  32  32   0   0
  0.1429699E+02  0.5489780E-09  0.5490584E-09  0.1752375E-08  0.5000000E-15
  1.000000000000000E-004
  CAR 
 Ir_Ru                                   
     19.31447629     -1.57547373  301      9.61248339      1.00000000
     -1.575  0.0000E+00  0.0000E+00
     -1.506  0.0000E+00  0.0000E+00
     -1.436  0.0000E+00  0.0000E+00
     -1.367  0.0000E+00  0.0000E+00
     -1.297  0.0000E+00  0.0000E+00
     -1.227  0.0000E+00  0.0000E+00
     -1.158  0.0000E+00  0.0000E+00
     -1.088  0.0000E+00  0.0000E+00
     -1.018  0.0000E+00  0.0000E+00
     -0.949  0.0000E+00  0.0000E+00
     -0.879  0.0000E+00  0.0000E+00
     -0.810  0.0000E+00  0.0000E+00
     -0.740  0.0000E+00  0.0000E+00
     -0.670  0.0000E+00  0.0000E+00
     -0.601  0.0000E+00  0.0000E+00
     -0.531  0.3900E+00  0.5894E-02
     -0.461  0.9215E+00  0.6265E-01
     -0.392  0.7566E+00  0.1130E+00
     -0.322  0.8441E+00  0.1688E+00
     -0.252  0.8487E+00  0.2292E+00
     -0.183  0.7853E+00  0.2854E+00
     -0.113  0.8215E+00  0.3413E+00
     -0.044  0.8823E+00  0.3999E+00
      0.026  0.1456E+01  0.4794E+00
      0.096  0.1575E+01  0.5836E+00
      0.165  0.1715E+01  0.6999E+00
      0.235  0.1752E+01  0.8198E+00
      0.305  0.1768E+01  0.9427E+00
      0.374  0.1789E+01  0.1067E+01
      0.444  0.1837E+01  0.1193E+01
      0.514  0.1981E+01  0.1325E+01
      0.583  0.2158E+01  0.1469E+01
      0.653  0.2338E+01  0.1626E+01
      0.722  0.2607E+01  0.1796E+01
      0.792  0.3084E+01  0.1995E+01
      0.862  0.3013E+01  0.2200E+01
      0.931  0.3150E+01  0.2415E+01
      1.001  0.3265E+01  0.2638E+01
      1.071  0.3904E+01  0.2881E+01
      1.140  0.3887E+01  0.3170E+01
      1.210  0.3336E+01  0.3419E+01
      1.279  0.3728E+01  0.3659E+01
      1.349  0.4318E+01  0.3936E+01
      1.419  0.4238E+01  0.4223E+01
      1.488  0.6464E+01  0.4572E+01
      1.558  0.3715E+01  0.4875E+01
      1.628  0.3862E+01  0.5138E+01
      1.697  0.5313E+01  0.5447E+01
      1.767  0.4868E+01  0.5819E+01
      1.837  0.4339E+01  0.6134E+01
      1.906  0.5649E+01  0.6454E+01
      1.976  0.7955E+01  0.6937E+01
      2.045  0.8041E+01  0.7493E+01
      2.115  0.9834E+01  0.8134E+01
      2.185  0.1693E+02  0.9001E+01
      2.254  0.1542E+02  0.1017E+02
      2.324  0.1933E+02  0.1135E+02
      2.394  0.1743E+02  0.1278E+02
      2.463  0.1699E+02  0.1395E+02
      2.533  0.1818E+02  0.1527E+02
      2.603  0.2135E+02  0.1660E+02
      2.672  0.2742E+02  0.1834E+02
      2.742  0.2763E+02  0.2019E+02
      2.811  0.2389E+02  0.2203E+02
      2.881  0.2864E+02  0.2385E+02
      2.951  0.2893E+02  0.2583E+02
      3.020  0.3359E+02  0.2800E+02
      3.090  0.3535E+02  0.3037E+02
      3.160  0.3569E+02  0.3289E+02
      3.229  0.4048E+02  0.3557E+02
      3.299  0.4033E+02  0.3850E+02
      3.368  0.3820E+02  0.4130E+02
      3.438  0.4020E+02  0.4406E+02
      3.508  0.3726E+02  0.4679E+02
      3.577  0.3659E+02  0.4944E+02
      3.647  0.3645E+02  0.5202E+02
      3.717  0.3763E+02  0.5464E+02
      3.786  0.3623E+02  0.5726E+02
      3.856  0.3261E+02  0.5968E+02
      3.926  0.3096E+02  0.6190E+02
      3.995  0.3007E+02  0.6402E+02
      4.065  0.3377E+02  0.6625E+02
      4.134  0.4183E+02  0.6885E+02
      4.204  0.4334E+02  0.7198E+02
      4.274  0.4730E+02  0.7515E+02
      4.343  0.4022E+02  0.7823E+02
      4.413  0.3741E+02  0.8105E+02
      4.483  0.3538E+02  0.8344E+02
      4.552  0.3532E+02  0.8577E+02
      4.622  0.3027E+02  0.8821E+02
      4.692  0.3623E+02  0.9041E+02
      4.761  0.3818E+02  0.9317E+02
      4.831  0.4131E+02  0.9602E+02
      4.900  0.4269E+02  0.9908E+02
      4.970  0.4404E+02  0.1022E+03
      5.040  0.4706E+02  0.1054E+03
      5.109  0.3901E+02  0.1086E+03
      5.179  0.3319E+02  0.1115E+03
      5.249  0.3263E+02  0.1138E+03
      5.318  0.3220E+02  0.1161E+03
      5.388  0.2779E+02  0.1182E+03
      5.457  0.2520E+02  0.1200E+03
      5.527  0.2347E+02  0.1217E+03
      5.597  0.3071E+02  0.1234E+03
      5.666  0.3959E+02  0.1259E+03
      5.736  0.4815E+02  0.1291E+03
      5.806  0.5143E+02  0.1325E+03
      5.875  0.4979E+02  0.1360E+03
      5.945  0.5105E+02  0.1396E+03
      6.015  0.5058E+02  0.1431E+03
      6.084  0.4727E+02  0.1465E+03
      6.154  0.4655E+02  0.1498E+03
      6.223  0.4531E+02  0.1529E+03
      6.293  0.5566E+02  0.1561E+03
      6.363  0.4936E+02  0.1595E+03
      6.432  0.4472E+02  0.1628E+03
      6.502  0.5267E+02  0.1662E+03
      6.572  0.4764E+02  0.1696E+03
      6.641  0.6360E+02  0.1734E+03
      6.711  0.5812E+02  0.1771E+03
      6.781  0.4608E+02  0.1806E+03
      6.850  0.4858E+02  0.1840E+03
      6.920  0.4779E+02  0.1873E+03
      6.989  0.4593E+02  0.1908E+03
      7.059  0.4924E+02  0.1941E+03
      7.129  0.4992E+02  0.1976E+03
      7.198  0.5331E+02  0.2010E+03
      7.268  0.4605E+02  0.2045E+03
      7.338  0.4144E+02  0.2076E+03
      7.407  0.4640E+02  0.2107E+03
      7.477  0.4187E+02  0.2139E+03
      7.546  0.3877E+02  0.2166E+03
      7.616  0.4216E+02  0.2194E+03
      7.686  0.3259E+02  0.2218E+03
      7.755  0.3642E+02  0.2242E+03
      7.825  0.3216E+02  0.2267E+03
      7.895  0.3441E+02  0.2289E+03
      7.964  0.3319E+02  0.2313E+03
      8.034  0.2556E+02  0.2334E+03
      8.104  0.2745E+02  0.2353E+03
      8.173  0.3066E+02  0.2372E+03
      8.243  0.3216E+02  0.2394E+03
      8.312  0.2783E+02  0.2415E+03
      8.382  0.2355E+02  0.2432E+03
      8.452  0.3087E+02  0.2451E+03
      8.521  0.2521E+02  0.2471E+03
      8.591  0.2345E+02  0.2489E+03
      8.661  0.2464E+02  0.2506E+03
      8.730  0.2310E+02  0.2523E+03
      8.800  0.2360E+02  0.2539E+03
      8.870  0.2381E+02  0.2556E+03
      8.939  0.2458E+02  0.2573E+03
      9.009  0.2612E+02  0.2590E+03
      9.078  0.2939E+02  0.2610E+03
      9.148  0.2699E+02  0.2631E+03
      9.218  0.2473E+02  0.2649E+03
      9.287  0.2780E+02  0.2667E+03
      9.357  0.2533E+02  0.2685E+03
      9.427  0.2745E+02  0.2704E+03
      9.496  0.2963E+02  0.2724E+03
      9.566  0.3031E+02  0.2745E+03
      9.635  0.3534E+02  0.2768E+03
      9.705  0.4272E+02  0.2796E+03
      9.775  0.4292E+02  0.2826E+03
      9.844  0.3748E+02  0.2856E+03
      9.914  0.4011E+02  0.2882E+03
      9.984  0.3741E+02  0.2908E+03
     10.053  0.4468E+02  0.2937E+03
     10.123  0.4911E+02  0.2969E+03
     10.193  0.5553E+02  0.3007E+03
     10.262  0.5194E+02  0.3045E+03
     10.332  0.5802E+02  0.3082E+03
     10.401  0.6255E+02  0.3124E+03
     10.471  0.6117E+02  0.3168E+03
     10.541  0.5750E+02  0.3211E+03
     10.610  0.5972E+02  0.3253E+03
     10.680  0.5022E+02  0.3290E+03
     10.750  0.4831E+02  0.3323E+03
     10.819  0.4121E+02  0.3354E+03
     10.889  0.2157E+02  0.3375E+03
     10.958  0.1267E+02  0.3387E+03
     11.028  0.1141E+02  0.3395E+03
     11.098  0.9209E+01  0.3403E+03
     11.167  0.7382E+01  0.3408E+03
     11.237  0.6390E+01  0.3413E+03
     11.307  0.7981E+01  0.3418E+03
     11.376  0.9711E+01  0.3425E+03
     11.446  0.9156E+01  0.3432E+03
     11.516  0.1101E+02  0.3438E+03
     11.585  0.9756E+01  0.3445E+03
     11.655  0.1023E+02  0.3453E+03
     11.724  0.8814E+01  0.3459E+03
     11.794  0.8956E+01  0.3466E+03
     11.864  0.9286E+01  0.3472E+03
     11.933  0.8350E+01  0.3478E+03
     12.003  0.8763E+01  0.3484E+03
     12.073  0.8342E+01  0.3490E+03
     12.142  0.7834E+01  0.3495E+03
     12.212  0.1104E+02  0.3501E+03
     12.282  0.9102E+01  0.3508E+03
     12.351  0.8034E+01  0.3514E+03
     12.421  0.8029E+01  0.3520E+03
     12.490  0.9308E+01  0.3526E+03
     12.560  0.9022E+01  0.3532E+03
     12.630  0.8556E+01  0.3538E+03
     12.699  0.8388E+01  0.3544E+03
     12.769  0.7828E+01  0.3550E+03
     12.839  0.7515E+01  0.3555E+03
     12.908  0.7350E+01  0.3560E+03
     12.978  0.6999E+01  0.3565E+03
     13.047  0.6603E+01  0.3570E+03
     13.117  0.7250E+01  0.3575E+03
     13.187  0.8254E+01  0.3580E+03
     13.256  0.9493E+01  0.3586E+03
     13.326  0.7192E+01  0.3592E+03
     13.396  0.7842E+01  0.3598E+03
     13.465  0.7407E+01  0.3603E+03
     13.535  0.7468E+01  0.3608E+03
     13.605  0.6920E+01  0.3613E+03
     13.674  0.7115E+01  0.3618E+03
     13.744  0.7214E+01  0.3623E+03
     13.813  0.7452E+01  0.3628E+03
     13.883  0.7695E+01  0.3633E+03
     13.953  0.8378E+01  0.3639E+03
     14.022  0.8365E+01  0.3645E+03
     14.092  0.7737E+01  0.3651E+03
     14.162  0.7627E+01  0.3656E+03
     14.231  0.8084E+01  0.3661E+03
     14.301  0.7494E+01  0.3667E+03
     14.371  0.7869E+01  0.3672E+03
     14.440  0.6641E+01  0.3677E+03
     14.510  0.7228E+01  0.3682E+03
     14.579  0.6964E+01  0.3687E+03
     14.649  0.6984E+01  0.3692E+03
     14.719  0.7378E+01  0.3697E+03
     14.788  0.8144E+01  0.3702E+03
     14.858  0.7858E+01  0.3708E+03
     14.928  0.7501E+01  0.3713E+03
     14.997  0.7766E+01  0.3718E+03
     15.067  0.7400E+01  0.3724E+03
     15.136  0.7552E+01  0.3729E+03
     15.206  0.8057E+01  0.3734E+03
     15.276  0.7171E+01  0.3739E+03
     15.345  0.7030E+01  0.3744E+03
     15.415  0.6431E+01  0.3749E+03
     15.485  0.6314E+01  0.3754E+03
     15.554  0.6462E+01  0.3758E+03
     15.624  0.6144E+01  0.3763E+03
     15.694  0.5937E+01  0.3767E+03
     15.763  0.6750E+01  0.3771E+03
     15.833  0.6953E+01  0.3776E+03
     15.902  0.5885E+01  0.3780E+03
     15.972  0.5531E+01  0.3785E+03
     16.042  0.4944E+01  0.3788E+03
     16.111  0.4267E+01  0.3791E+03
     16.181  0.3653E+01  0.3794E+03
     16.251  0.3554E+01  0.3796E+03
     16.320  0.4618E+01  0.3799E+03
     16.390  0.6282E+01  0.3803E+03
     16.460  0.4541E+01  0.3806E+03
     16.529  0.4193E+01  0.3809E+03
     16.599  0.4224E+01  0.3812E+03
     16.668  0.3807E+01  0.3815E+03
     16.738  0.3537E+01  0.3818E+03
     16.808  0.2965E+01  0.3820E+03
     16.877  0.2849E+01  0.3822E+03
     16.947  0.2666E+01  0.3824E+03
     17.017  0.2477E+01  0.3826E+03
     17.086  0.2615E+01  0.3827E+03
     17.156  0.2965E+01  0.3829E+03
     17.225  0.3048E+01  0.3831E+03
     17.295  0.2866E+01  0.3833E+03
     17.365  0.2543E+01  0.3835E+03
     17.434  0.1884E+01  0.3837E+03
     17.504  0.9828E+00  0.3838E+03
     17.574  0.6323E+00  0.3838E+03
     17.643  0.5079E+00  0.3839E+03
     17.713  0.4257E+00  0.3839E+03
     17.783  0.3428E+00  0.3839E+03
     17.852  0.2711E+00  0.3840E+03
     17.922  0.2048E+00  0.3840E+03
     17.991  0.1329E+00  0.3840E+03
     18.061  0.5557E-01  0.3840E+03
     18.131  0.1307E-01  0.3840E+03
     18.200  0.2178E-02  0.3840E+03
     18.270  0.3310E-03  0.3840E+03
     18.340  0.0000E+00  0.3840E+03
     18.409  0.0000E+00  0.3840E+03
     18.479  0.0000E+00  0.3840E+03
     18.549  0.0000E+00  0.3840E+03
     18.618  0.0000E+00  0.3840E+03
     18.688  0.0000E+00  0.3840E+03
     18.757  0.0000E+00  0.3840E+03
     18.827  0.0000E+00  0.3840E+03
     18.897  0.0000E+00  0.3840E+03
     18.966  0.0000E+00  0.3840E+03
     19.036  0.0000E+00  0.3840E+03
     19.106  0.0000E+00  0.3840E+03
     19.175  0.0000E+00  0.3840E+03
     19.245  0.0000E+00  0.3840E+03
     19.314  0.0000E+00  0.3840E+03
