       N       E                     dE             d eps       ncg     rms          rms(c)
RMM:   1     0.154860854416E+04    0.15486E+04   -0.56002E+04 29184   0.611E+02
RMM:   2     0.995823891051E+02   -0.14490E+04   -0.14753E+04 29184   0.219E+02
RMM:   3    -0.171246817265E+03   -0.27083E+03   -0.21716E+03 29184   0.926E+01
RMM:   4    -0.267606802830E+03   -0.96360E+02   -0.54756E+02 29184   0.595E+01
RMM:   5    -0.292206441198E+03   -0.24600E+02   -0.19081E+02 29184   0.318E+01
RMM:   6    -0.302229563288E+03   -0.10023E+02   -0.75756E+01 29184   0.207E+01
RMM:   7    -0.305993992831E+03   -0.37644E+01   -0.31540E+01 29184   0.120E+01
RMM:   8    -0.307647404159E+03   -0.16534E+01   -0.13479E+01 29184   0.798E+00
RMM:   9    -0.308725285008E+03   -0.10779E+01   -0.99631E+00 72081   0.465E+00
RMM:  10    -0.308828138655E+03   -0.10285E+00   -0.48872E-01 74732   0.854E-01
RMM:  11    -0.308829794727E+03   -0.16561E-02   -0.13625E-02 72398   0.186E-01
RMM:  12    -0.308829847056E+03   -0.52329E-04   -0.62387E-04 74494   0.295E-02    0.272E+01
RMM:  13    -0.365631607687E+03   -0.56802E+02   -0.57209E+01 63426   0.192E+01    0.498E+01
RMM:  14    -0.298981414073E+03    0.66650E+02   -0.16750E+01 61426   0.801E+00    0.213E+01
RMM:  15    -0.299808794926E+03   -0.82738E+00   -0.21908E+01 59949   0.111E+01    0.230E+01
RMM:  16    -0.301278917169E+03   -0.14701E+01   -0.55312E+00 61203   0.489E+00    0.240E+01
RMM:  17    -0.288951187650E+03    0.12328E+02   -0.26517E+00 60671   0.340E+00    0.624E+00
RMM:  18    -0.288290603558E+03    0.66058E+00   -0.47375E-01 61251   0.148E+00    0.205E+00
RMM:  19    -0.288199529184E+03    0.91074E-01   -0.11374E-01 61965   0.786E-01    0.141E+00
RMM:  20    -0.288153461393E+03    0.46068E-01   -0.37073E-02 61115   0.436E-01    0.697E-01
RMM:  21    -0.288143118202E+03    0.10343E-01   -0.21575E-02 60102   0.350E-01    0.757E-01
RMM:  22    -0.288131832802E+03    0.11285E-01   -0.96694E-03 59953   0.244E-01    0.321E-01
RMM:  23    -0.288130604160E+03    0.12286E-02   -0.22470E-03 60483   0.108E-01    0.179E-01
RMM:  24    -0.288130606560E+03   -0.23995E-05   -0.52878E-04 61582   0.508E-02
   1 F= -.28813061E+03 E0= -.28813061E+03  d E =0.000000E+00
