<?xml version="1.0" encoding="ISO-8859-1"?>
<modeling>
 <generator>
  <i name="program" type="string">vasp </i>
  <i name="version" type="string">5.4.1  </i>
  <i name="subversion" type="string">24Jun15 (build Dec 12 2017 15:24:27) complex                          parallel </i>
  <i name="platform" type="string">IFC91_ompi </i>
  <i name="date" type="string">2020 04 03 </i>
  <i name="time" type="string">17:10:09 </i>
 </generator>
 <incar>
  <i type="string" name="SYSTEM"> Ir_Ru</i>
  <i type="int" name="ISTART">     0</i>
  <i type="string" name="PREC">accurate</i>
  <i type="string" name="ALGO"> Very_Fast</i>
  <i type="int" name="ICHARG">     2</i>
  <i type="int" name="NELMIN">     5</i>
  <i type="int" name="IBRION">    -1</i>
  <i name="EDIFFG">      0.00001000</i>
  <i type="int" name="ISIF">     2</i>
  <i type="int" name="ISMEAR">    -5</i>
  <i name="SIGMA">      0.10000000</i>
  <v type="int" name="KPOINT_BSE">    -1     0     0     0</v>
 </incar>
 <kpoints>
  <generation param="Gamma">
   <v type="int" name="divisions">      10       10        3 </v>
   <v name="usershift">      0.00000000       0.00000000       0.00000000 </v>
   <v name="genvec1">      0.10000000       0.00000000       0.00000000 </v>
   <v name="genvec2">      0.00000000       0.10000000      -0.00000000 </v>
   <v name="genvec3">      0.00000000       0.00000000       0.33333333 </v>
   <v name="shift">      0.00000000       0.00000000       0.00000000 </v>
  </generation>
  <varray name="kpointlist" >
   <v>       0.00000000       0.00000000       0.00000000 </v>
   <v>       0.10000000      -0.00000000       0.00000000 </v>
   <v>       0.20000000      -0.00000000      -0.00000000 </v>
   <v>       0.30000000      -0.00000000      -0.00000000 </v>
   <v>       0.40000000      -0.00000000      -0.00000000 </v>
   <v>       0.50000000      -0.00000000       0.00000000 </v>
   <v>      -0.00000000       0.10000000       0.00000000 </v>
   <v>       0.10000000       0.10000000       0.00000000 </v>
   <v>       0.20000000       0.10000000      -0.00000000 </v>
   <v>       0.30000000       0.10000000       0.00000000 </v>
   <v>       0.40000000       0.10000000       0.00000000 </v>
   <v>       0.50000000       0.10000000      -0.00000000 </v>
   <v>      -0.40000000       0.10000000       0.00000000 </v>
   <v>      -0.30000000       0.10000000      -0.00000000 </v>
   <v>      -0.20000000       0.10000000       0.00000000 </v>
   <v>      -0.10000000       0.10000000       0.00000000 </v>
   <v>       0.00000000       0.20000000       0.00000000 </v>
   <v>       0.10000000       0.20000000       0.00000000 </v>
   <v>       0.20000000       0.20000000       0.00000000 </v>
   <v>       0.30000000       0.20000000       0.00000000 </v>
   <v>       0.40000000       0.20000000       0.00000000 </v>
   <v>       0.50000000       0.20000000       0.00000000 </v>
   <v>      -0.40000000       0.20000000       0.00000000 </v>
   <v>      -0.30000000       0.20000000       0.00000000 </v>
   <v>      -0.20000000       0.20000000       0.00000000 </v>
   <v>      -0.10000000       0.20000000       0.00000000 </v>
   <v>      -0.00000000       0.30000000       0.00000000 </v>
   <v>       0.10000000       0.30000000       0.00000000 </v>
   <v>       0.20000000       0.30000000      -0.00000000 </v>
   <v>       0.30000000       0.30000000       0.00000000 </v>
   <v>       0.40000000       0.30000000       0.00000000 </v>
   <v>       0.50000000       0.30000000       0.00000000 </v>
   <v>      -0.40000000       0.30000000      -0.00000000 </v>
   <v>      -0.30000000       0.30000000       0.00000000 </v>
   <v>      -0.20000000       0.30000000       0.00000000 </v>
   <v>      -0.10000000       0.30000000      -0.00000000 </v>
   <v>       0.00000000       0.40000000       0.00000000 </v>
   <v>       0.10000000       0.40000000       0.00000000 </v>
   <v>       0.20000000       0.40000000       0.00000000 </v>
   <v>       0.30000000       0.40000000       0.00000000 </v>
   <v>       0.40000000       0.40000000       0.00000000 </v>
   <v>       0.50000000       0.40000000       0.00000000 </v>
   <v>      -0.40000000       0.40000000       0.00000000 </v>
   <v>      -0.30000000       0.40000000       0.00000000 </v>
   <v>      -0.20000000       0.40000000      -0.00000000 </v>
   <v>      -0.10000000       0.40000000       0.00000000 </v>
   <v>      -0.00000000       0.50000000       0.00000000 </v>
   <v>       0.10000000       0.50000000       0.00000000 </v>
   <v>       0.20000000       0.50000000       0.00000000 </v>
   <v>       0.30000000       0.50000000       0.00000000 </v>
   <v>       0.40000000       0.50000000       0.00000000 </v>
   <v>       0.50000000       0.50000000       0.00000000 </v>
   <v>       0.00000000       0.00000000       0.33333333 </v>
   <v>       0.10000000      -0.00000000       0.33333333 </v>
   <v>       0.20000000      -0.00000000       0.33333333 </v>
   <v>       0.30000000       0.00000000       0.33333333 </v>
   <v>       0.40000000      -0.00000000       0.33333333 </v>
   <v>       0.50000000      -0.00000000       0.33333333 </v>
   <v>      -0.40000000       0.00000000       0.33333333 </v>
   <v>      -0.30000000       0.00000000       0.33333333 </v>
   <v>      -0.20000000       0.00000000       0.33333333 </v>
   <v>      -0.10000000       0.00000000       0.33333333 </v>
   <v>       0.00000000       0.10000000       0.33333333 </v>
   <v>       0.10000000       0.10000000       0.33333333 </v>
   <v>       0.20000000       0.10000000       0.33333333 </v>
   <v>       0.30000000       0.10000000       0.33333333 </v>
   <v>       0.40000000       0.10000000       0.33333333 </v>
   <v>       0.50000000       0.10000000       0.33333333 </v>
   <v>      -0.40000000       0.10000000       0.33333333 </v>
   <v>      -0.30000000       0.10000000       0.33333333 </v>
   <v>      -0.20000000       0.10000000       0.33333333 </v>
   <v>      -0.10000000       0.10000000       0.33333333 </v>
   <v>       0.00000000       0.20000000       0.33333333 </v>
   <v>       0.10000000       0.20000000       0.33333333 </v>
   <v>       0.20000000       0.20000000       0.33333333 </v>
   <v>       0.30000000       0.20000000       0.33333333 </v>
   <v>       0.40000000       0.20000000       0.33333333 </v>
   <v>       0.50000000       0.20000000       0.33333333 </v>
   <v>      -0.40000000       0.20000000       0.33333333 </v>
   <v>      -0.30000000       0.20000000       0.33333333 </v>
   <v>      -0.20000000       0.20000000       0.33333333 </v>
   <v>      -0.10000000       0.20000000       0.33333333 </v>
   <v>      -0.00000000       0.30000000       0.33333333 </v>
   <v>       0.10000000       0.30000000       0.33333333 </v>
   <v>       0.20000000       0.30000000       0.33333333 </v>
   <v>       0.30000000       0.30000000       0.33333333 </v>
   <v>       0.40000000       0.30000000       0.33333333 </v>
   <v>       0.50000000       0.30000000       0.33333333 </v>
   <v>      -0.40000000       0.30000000       0.33333333 </v>
   <v>      -0.30000000       0.30000000       0.33333333 </v>
   <v>      -0.20000000       0.30000000       0.33333333 </v>
   <v>      -0.10000000       0.30000000       0.33333333 </v>
   <v>       0.00000000       0.40000000       0.33333333 </v>
   <v>       0.10000000       0.40000000       0.33333333 </v>
   <v>       0.20000000       0.40000000       0.33333333 </v>
   <v>       0.30000000       0.40000000       0.33333333 </v>
   <v>       0.40000000       0.40000000       0.33333333 </v>
   <v>       0.50000000       0.40000000       0.33333333 </v>
   <v>      -0.40000000       0.40000000       0.33333333 </v>
   <v>      -0.30000000       0.40000000       0.33333333 </v>
   <v>      -0.20000000       0.40000000       0.33333333 </v>
   <v>      -0.10000000       0.40000000       0.33333333 </v>
   <v>      -0.00000000       0.50000000       0.33333333 </v>
   <v>       0.10000000       0.50000000       0.33333333 </v>
   <v>       0.20000000       0.50000000       0.33333333 </v>
   <v>       0.30000000       0.50000000       0.33333333 </v>
   <v>       0.40000000       0.50000000       0.33333333 </v>
   <v>       0.50000000       0.50000000       0.33333333 </v>
   <v>      -0.40000000       0.50000000       0.33333333 </v>
   <v>      -0.30000000       0.50000000       0.33333333 </v>
   <v>      -0.20000000       0.50000000       0.33333333 </v>
   <v>      -0.10000000       0.50000000       0.33333333 </v>
   <v>      -0.00000000      -0.40000000       0.33333333 </v>
   <v>       0.10000000      -0.40000000       0.33333333 </v>
   <v>       0.20000000      -0.40000000       0.33333333 </v>
   <v>       0.30000000      -0.40000000       0.33333333 </v>
   <v>       0.40000000      -0.40000000       0.33333333 </v>
   <v>       0.50000000      -0.40000000       0.33333333 </v>
   <v>      -0.40000000      -0.40000000       0.33333333 </v>
   <v>      -0.30000000      -0.40000000       0.33333333 </v>
   <v>      -0.20000000      -0.40000000       0.33333333 </v>
   <v>      -0.10000000      -0.40000000       0.33333333 </v>
   <v>      -0.00000000      -0.30000000       0.33333333 </v>
   <v>       0.10000000      -0.30000000       0.33333333 </v>
   <v>       0.20000000      -0.30000000       0.33333333 </v>
   <v>       0.30000000      -0.30000000       0.33333333 </v>
   <v>       0.40000000      -0.30000000       0.33333333 </v>
   <v>       0.50000000      -0.30000000       0.33333333 </v>
   <v>      -0.40000000      -0.30000000       0.33333333 </v>
   <v>      -0.30000000      -0.30000000       0.33333333 </v>
   <v>      -0.20000000      -0.30000000       0.33333333 </v>
   <v>      -0.10000000      -0.30000000       0.33333333 </v>
   <v>      -0.00000000      -0.20000000       0.33333333 </v>
   <v>       0.10000000      -0.20000000       0.33333333 </v>
   <v>       0.20000000      -0.20000000       0.33333333 </v>
   <v>       0.30000000      -0.20000000       0.33333333 </v>
   <v>       0.40000000      -0.20000000       0.33333333 </v>
   <v>       0.50000000      -0.20000000       0.33333333 </v>
   <v>      -0.40000000      -0.20000000       0.33333333 </v>
   <v>      -0.30000000      -0.20000000       0.33333333 </v>
   <v>      -0.20000000      -0.20000000       0.33333333 </v>
   <v>      -0.10000000      -0.20000000       0.33333333 </v>
   <v>       0.00000000      -0.10000000       0.33333333 </v>
   <v>       0.10000000      -0.10000000       0.33333333 </v>
   <v>       0.20000000      -0.10000000       0.33333333 </v>
   <v>       0.30000000      -0.10000000       0.33333333 </v>
   <v>       0.40000000      -0.10000000       0.33333333 </v>
   <v>       0.50000000      -0.10000000       0.33333333 </v>
   <v>      -0.40000000      -0.10000000       0.33333333 </v>
   <v>      -0.30000000      -0.10000000       0.33333333 </v>
   <v>      -0.20000000      -0.10000000       0.33333333 </v>
   <v>      -0.10000000      -0.10000000       0.33333333 </v>
  </varray>
  <varray name="weights" >
   <v>       0.00333333 </v>
   <v>       0.00666667 </v>
   <v>       0.00666667 </v>
   <v>       0.00666667 </v>
   <v>       0.00666667 </v>
   <v>       0.00333333 </v>
   <v>       0.00666667 </v>
   <v>       0.00666667 </v>
   <v>       0.00666667 </v>
   <v>       0.00666667 </v>
   <v>       0.00666667 </v>
   <v>       0.00666667 </v>
   <v>       0.00666667 </v>
   <v>       0.00666667 </v>
   <v>       0.00666667 </v>
   <v>       0.00666667 </v>
   <v>       0.00666667 </v>
   <v>       0.00666667 </v>
   <v>       0.00666667 </v>
   <v>       0.00666667 </v>
   <v>       0.00666667 </v>
   <v>       0.00666667 </v>
   <v>       0.00666667 </v>
   <v>       0.00666667 </v>
   <v>       0.00666667 </v>
   <v>       0.00666667 </v>
   <v>       0.00666667 </v>
   <v>       0.00666667 </v>
   <v>       0.00666667 </v>
   <v>       0.00666667 </v>
   <v>       0.00666667 </v>
   <v>       0.00666667 </v>
   <v>       0.00666667 </v>
   <v>       0.00666667 </v>
   <v>       0.00666667 </v>
   <v>       0.00666667 </v>
   <v>       0.00666667 </v>
   <v>       0.00666667 </v>
   <v>       0.00666667 </v>
   <v>       0.00666667 </v>
   <v>       0.00666667 </v>
   <v>       0.00666667 </v>
   <v>       0.00666667 </v>
   <v>       0.00666667 </v>
   <v>       0.00666667 </v>
   <v>       0.00666667 </v>
   <v>       0.00333333 </v>
   <v>       0.00666667 </v>
   <v>       0.00666667 </v>
   <v>       0.00666667 </v>
   <v>       0.00666667 </v>
   <v>       0.00333333 </v>
   <v>       0.00666667 </v>
   <v>       0.00666667 </v>
   <v>       0.00666667 </v>
   <v>       0.00666667 </v>
   <v>       0.00666667 </v>
   <v>       0.00666667 </v>
   <v>       0.00666667 </v>
   <v>       0.00666667 </v>
   <v>       0.00666667 </v>
   <v>       0.00666667 </v>
   <v>       0.00666667 </v>
   <v>       0.00666667 </v>
   <v>       0.00666667 </v>
   <v>       0.00666667 </v>
   <v>       0.00666667 </v>
   <v>       0.00666667 </v>
   <v>       0.00666667 </v>
   <v>       0.00666667 </v>
   <v>       0.00666667 </v>
   <v>       0.00666667 </v>
   <v>       0.00666667 </v>
   <v>       0.00666667 </v>
   <v>       0.00666667 </v>
   <v>       0.00666667 </v>
   <v>       0.00666667 </v>
   <v>       0.00666667 </v>
   <v>       0.00666667 </v>
   <v>       0.00666667 </v>
   <v>       0.00666667 </v>
   <v>       0.00666667 </v>
   <v>       0.00666667 </v>
   <v>       0.00666667 </v>
   <v>       0.00666667 </v>
   <v>       0.00666667 </v>
   <v>       0.00666667 </v>
   <v>       0.00666667 </v>
   <v>       0.00666667 </v>
   <v>       0.00666667 </v>
   <v>       0.00666667 </v>
   <v>       0.00666667 </v>
   <v>       0.00666667 </v>
   <v>       0.00666667 </v>
   <v>       0.00666667 </v>
   <v>       0.00666667 </v>
   <v>       0.00666667 </v>
   <v>       0.00666667 </v>
   <v>       0.00666667 </v>
   <v>       0.00666667 </v>
   <v>       0.00666667 </v>
   <v>       0.00666667 </v>
   <v>       0.00666667 </v>
   <v>       0.00666667 </v>
   <v>       0.00666667 </v>
   <v>       0.00666667 </v>
   <v>       0.00666667 </v>
   <v>       0.00666667 </v>
   <v>       0.00666667 </v>
   <v>       0.00666667 </v>
   <v>       0.00666667 </v>
   <v>       0.00666667 </v>
   <v>       0.00666667 </v>
   <v>       0.00666667 </v>
   <v>       0.00666667 </v>
   <v>       0.00666667 </v>
   <v>       0.00666667 </v>
   <v>       0.00666667 </v>
   <v>       0.00666667 </v>
   <v>       0.00666667 </v>
   <v>       0.00666667 </v>
   <v>       0.00666667 </v>
   <v>       0.00666667 </v>
   <v>       0.00666667 </v>
   <v>       0.00666667 </v>
   <v>       0.00666667 </v>
   <v>       0.00666667 </v>
   <v>       0.00666667 </v>
   <v>       0.00666667 </v>
   <v>       0.00666667 </v>
   <v>       0.00666667 </v>
   <v>       0.00666667 </v>
   <v>       0.00666667 </v>
   <v>       0.00666667 </v>
   <v>       0.00666667 </v>
   <v>       0.00666667 </v>
   <v>       0.00666667 </v>
   <v>       0.00666667 </v>
   <v>       0.00666667 </v>
   <v>       0.00666667 </v>
   <v>       0.00666667 </v>
   <v>       0.00666667 </v>
   <v>       0.00666667 </v>
   <v>       0.00666667 </v>
   <v>       0.00666667 </v>
   <v>       0.00666667 </v>
   <v>       0.00666667 </v>
   <v>       0.00666667 </v>
   <v>       0.00666667 </v>
   <v>       0.00666667 </v>
   <v>       0.00666667 </v>
   <v>       0.00666667 </v>
  </varray>
  <varray name="tetrahedronlist"  type="int" >
   <v type="int" >        2        1        2        8       53 </v>
   <v type="int" >        2        1        7        8       53 </v>
   <v type="int" >        2        7        8       53       63 </v>
   <v type="int" >        2        2        8       53       54 </v>
   <v type="int" >        2        8       53       54       64 </v>
   <v type="int" >        2        8       53       63       64 </v>
   <v type="int" >        2        2        3        9       54 </v>
   <v type="int" >        2        2        8        9       54 </v>
   <v type="int" >        2        8        9       54       64 </v>
   <v type="int" >        2        3        9       54       55 </v>
   <v type="int" >        2        9       54       55       65 </v>
   <v type="int" >        2        9       54       64       65 </v>
   <v type="int" >        2        3        4       10       55 </v>
   <v type="int" >        2        3        9       10       55 </v>
   <v type="int" >        2        9       10       55       65 </v>
   <v type="int" >        2        4       10       55       56 </v>
   <v type="int" >        2       10       55       56       66 </v>
   <v type="int" >        2       10       55       65       66 </v>
   <v type="int" >        2        4        5       11       56 </v>
   <v type="int" >        2        4       10       11       56 </v>
   <v type="int" >        2       10       11       56       66 </v>
   <v type="int" >        2        5       11       56       57 </v>
   <v type="int" >        2       11       56       57       67 </v>
   <v type="int" >        2       11       56       66       67 </v>
   <v type="int" >        2        5        6       12       57 </v>
   <v type="int" >        2        5       11       12       57 </v>
   <v type="int" >        2       11       12       57       67 </v>
   <v type="int" >        2        6       12       57       58 </v>
   <v type="int" >        2       12       57       58       68 </v>
   <v type="int" >        2       12       57       67       68 </v>
   <v type="int" >        2        5        6       13       58 </v>
   <v type="int" >        2        6       12       13       58 </v>
   <v type="int" >        2       12       13       58       68 </v>
   <v type="int" >        2        5       13       58       59 </v>
   <v type="int" >        2       13       58       59       69 </v>
   <v type="int" >        2       13       58       68       69 </v>
   <v type="int" >        2        4        5       14       59 </v>
   <v type="int" >        2        5       13       14       59 </v>
   <v type="int" >        2       13       14       59       69 </v>
   <v type="int" >        2        4       14       59       60 </v>
   <v type="int" >        2       14       59       60       70 </v>
   <v type="int" >        2       14       59       69       70 </v>
   <v type="int" >        2        3        4       15       60 </v>
   <v type="int" >        2        4       14       15       60 </v>
   <v type="int" >        2       14       15       60       70 </v>
   <v type="int" >        2        3       15       60       61 </v>
   <v type="int" >        2       15       60       61       71 </v>
   <v type="int" >        2       15       60       70       71 </v>
   <v type="int" >        2        2        3       16       61 </v>
   <v type="int" >        2        3       15       16       61 </v>
   <v type="int" >        2       15       16       61       71 </v>
   <v type="int" >        2        2       16       61       62 </v>
   <v type="int" >        2       16       61       62       72 </v>
   <v type="int" >        2       16       61       71       72 </v>
   <v type="int" >        2        1        2        7       62 </v>
   <v type="int" >        2        2        7       16       62 </v>
   <v type="int" >        2        7       16       62       72 </v>
   <v type="int" >        2        1        7       53       62 </v>
   <v type="int" >        2        7       53       62       63 </v>
   <v type="int" >        2        7       62       63       72 </v>
   <v type="int" >        2        7        8       18       63 </v>
   <v type="int" >        2        7       17       18       63 </v>
   <v type="int" >        2       17       18       63       73 </v>
   <v type="int" >        2        8       18       63       64 </v>
   <v type="int" >        2       18       63       64       74 </v>
   <v type="int" >        2       18       63       73       74 </v>
   <v type="int" >        2        8        9       19       64 </v>
   <v type="int" >        2        8       18       19       64 </v>
   <v type="int" >        2       18       19       64       74 </v>
   <v type="int" >        2        9       19       64       65 </v>
   <v type="int" >        2       19       64       65       75 </v>
   <v type="int" >        2       19       64       74       75 </v>
   <v type="int" >        2        9       10       20       65 </v>
   <v type="int" >        2        9       19       20       65 </v>
   <v type="int" >        2       19       20       65       75 </v>
   <v type="int" >        2       10       20       65       66 </v>
   <v type="int" >        2       20       65       66       76 </v>
   <v type="int" >        2       20       65       75       76 </v>
   <v type="int" >        2       10       11       21       66 </v>
   <v type="int" >        2       10       20       21       66 </v>
   <v type="int" >        2       20       21       66       76 </v>
   <v type="int" >        2       11       21       66       67 </v>
   <v type="int" >        2       21       66       67       77 </v>
   <v type="int" >        2       21       66       76       77 </v>
   <v type="int" >        2       11       12       22       67 </v>
   <v type="int" >        2       11       21       22       67 </v>
   <v type="int" >        2       21       22       67       77 </v>
   <v type="int" >        2       12       22       67       68 </v>
   <v type="int" >        2       22       67       68       78 </v>
   <v type="int" >        2       22       67       77       78 </v>
   <v type="int" >        2       12       13       23       68 </v>
   <v type="int" >        2       12       22       23       68 </v>
   <v type="int" >        2       22       23       68       78 </v>
   <v type="int" >        2       13       23       68       69 </v>
   <v type="int" >        2       23       68       69       79 </v>
   <v type="int" >        2       23       68       78       79 </v>
   <v type="int" >        2       13       14       24       69 </v>
   <v type="int" >        2       13       23       24       69 </v>
   <v type="int" >        2       23       24       69       79 </v>
   <v type="int" >        2       14       24       69       70 </v>
   <v type="int" >        2       24       69       70       80 </v>
   <v type="int" >        2       24       69       79       80 </v>
   <v type="int" >        2       14       15       25       70 </v>
   <v type="int" >        2       14       24       25       70 </v>
   <v type="int" >        2       24       25       70       80 </v>
   <v type="int" >        2       15       25       70       71 </v>
   <v type="int" >        2       25       70       71       81 </v>
   <v type="int" >        2       25       70       80       81 </v>
   <v type="int" >        2       15       16       26       71 </v>
   <v type="int" >        2       15       25       26       71 </v>
   <v type="int" >        2       25       26       71       81 </v>
   <v type="int" >        2       16       26       71       72 </v>
   <v type="int" >        2       26       71       72       82 </v>
   <v type="int" >        2       26       71       81       82 </v>
   <v type="int" >        2        7       16       17       72 </v>
   <v type="int" >        2       16       17       26       72 </v>
   <v type="int" >        2       17       26       72       82 </v>
   <v type="int" >        2        7       17       63       72 </v>
   <v type="int" >        2       17       63       72       73 </v>
   <v type="int" >        2       17       72       73       82 </v>
   <v type="int" >        2       17       18       28       73 </v>
   <v type="int" >        2       17       27       28       73 </v>
   <v type="int" >        2       27       28       73       83 </v>
   <v type="int" >        2       18       28       73       74 </v>
   <v type="int" >        2       28       73       74       84 </v>
   <v type="int" >        2       28       73       83       84 </v>
   <v type="int" >        2       18       19       29       74 </v>
   <v type="int" >        2       18       28       29       74 </v>
   <v type="int" >        2       28       29       74       84 </v>
   <v type="int" >        2       19       29       74       75 </v>
   <v type="int" >        2       29       74       75       85 </v>
   <v type="int" >        2       29       74       84       85 </v>
   <v type="int" >        2       19       20       30       75 </v>
   <v type="int" >        2       19       29       30       75 </v>
   <v type="int" >        2       29       30       75       85 </v>
   <v type="int" >        2       20       30       75       76 </v>
   <v type="int" >        2       30       75       76       86 </v>
   <v type="int" >        2       30       75       85       86 </v>
   <v type="int" >        2       20       21       31       76 </v>
   <v type="int" >        2       20       30       31       76 </v>
   <v type="int" >        2       30       31       76       86 </v>
   <v type="int" >        2       21       31       76       77 </v>
   <v type="int" >        2       31       76       77       87 </v>
   <v type="int" >        2       31       76       86       87 </v>
   <v type="int" >        2       21       22       32       77 </v>
   <v type="int" >        2       21       31       32       77 </v>
   <v type="int" >        2       31       32       77       87 </v>
   <v type="int" >        2       22       32       77       78 </v>
   <v type="int" >        2       32       77       78       88 </v>
   <v type="int" >        2       32       77       87       88 </v>
   <v type="int" >        2       22       23       33       78 </v>
   <v type="int" >        2       22       32       33       78 </v>
   <v type="int" >        2       32       33       78       88 </v>
   <v type="int" >        2       23       33       78       79 </v>
   <v type="int" >        2       33       78       79       89 </v>
   <v type="int" >        2       33       78       88       89 </v>
   <v type="int" >        2       23       24       34       79 </v>
   <v type="int" >        2       23       33       34       79 </v>
   <v type="int" >        2       33       34       79       89 </v>
   <v type="int" >        2       24       34       79       80 </v>
   <v type="int" >        2       34       79       80       90 </v>
   <v type="int" >        2       34       79       89       90 </v>
   <v type="int" >        2       24       25       35       80 </v>
   <v type="int" >        2       24       34       35       80 </v>
   <v type="int" >        2       34       35       80       90 </v>
   <v type="int" >        2       25       35       80       81 </v>
   <v type="int" >        2       35       80       81       91 </v>
   <v type="int" >        2       35       80       90       91 </v>
   <v type="int" >        2       25       26       36       81 </v>
   <v type="int" >        2       25       35       36       81 </v>
   <v type="int" >        2       35       36       81       91 </v>
   <v type="int" >        2       26       36       81       82 </v>
   <v type="int" >        2       36       81       82       92 </v>
   <v type="int" >        2       36       81       91       92 </v>
   <v type="int" >        2       17       26       27       82 </v>
   <v type="int" >        2       26       27       36       82 </v>
   <v type="int" >        2       27       36       82       92 </v>
   <v type="int" >        2       17       27       73       82 </v>
   <v type="int" >        2       27       73       82       83 </v>
   <v type="int" >        2       27       82       83       92 </v>
   <v type="int" >        2       27       28       38       83 </v>
   <v type="int" >        2       27       37       38       83 </v>
   <v type="int" >        2       37       38       83       93 </v>
   <v type="int" >        2       28       38       83       84 </v>
   <v type="int" >        2       38       83       84       94 </v>
   <v type="int" >        2       38       83       93       94 </v>
   <v type="int" >        2       28       29       39       84 </v>
   <v type="int" >        2       28       38       39       84 </v>
   <v type="int" >        2       38       39       84       94 </v>
   <v type="int" >        2       29       39       84       85 </v>
   <v type="int" >        2       39       84       85       95 </v>
   <v type="int" >        2       39       84       94       95 </v>
   <v type="int" >        2       29       30       40       85 </v>
   <v type="int" >        2       29       39       40       85 </v>
   <v type="int" >        2       39       40       85       95 </v>
   <v type="int" >        2       30       40       85       86 </v>
   <v type="int" >        2       40       85       86       96 </v>
   <v type="int" >        2       40       85       95       96 </v>
   <v type="int" >        2       30       31       41       86 </v>
   <v type="int" >        2       30       40       41       86 </v>
   <v type="int" >        2       40       41       86       96 </v>
   <v type="int" >        2       31       41       86       87 </v>
   <v type="int" >        2       41       86       87       97 </v>
   <v type="int" >        2       41       86       96       97 </v>
   <v type="int" >        2       31       32       42       87 </v>
   <v type="int" >        2       31       41       42       87 </v>
   <v type="int" >        2       41       42       87       97 </v>
   <v type="int" >        2       32       42       87       88 </v>
   <v type="int" >        2       42       87       88       98 </v>
   <v type="int" >        2       42       87       97       98 </v>
   <v type="int" >        2       32       33       43       88 </v>
   <v type="int" >        2       32       42       43       88 </v>
   <v type="int" >        2       42       43       88       98 </v>
   <v type="int" >        2       33       43       88       89 </v>
   <v type="int" >        2       43       88       89       99 </v>
   <v type="int" >        2       43       88       98       99 </v>
   <v type="int" >        2       33       34       44       89 </v>
   <v type="int" >        2       33       43       44       89 </v>
   <v type="int" >        2       43       44       89       99 </v>
   <v type="int" >        2       34       44       89       90 </v>
   <v type="int" >        2       44       89       90      100 </v>
   <v type="int" >        2       44       89       99      100 </v>
   <v type="int" >        2       34       35       45       90 </v>
   <v type="int" >        2       34       44       45       90 </v>
   <v type="int" >        2       44       45       90      100 </v>
   <v type="int" >        2       35       45       90       91 </v>
   <v type="int" >        2       45       90       91      101 </v>
   <v type="int" >        2       45       90      100      101 </v>
   <v type="int" >        2       35       36       46       91 </v>
   <v type="int" >        2       35       45       46       91 </v>
   <v type="int" >        2       45       46       91      101 </v>
   <v type="int" >        2       36       46       91       92 </v>
   <v type="int" >        2       46       91       92      102 </v>
   <v type="int" >        2       46       91      101      102 </v>
   <v type="int" >        2       27       36       37       92 </v>
   <v type="int" >        2       36       37       46       92 </v>
   <v type="int" >        2       37       46       92      102 </v>
   <v type="int" >        2       27       37       83       92 </v>
   <v type="int" >        2       37       83       92       93 </v>
   <v type="int" >        2       37       92       93      102 </v>
   <v type="int" >        2       37       38       48       93 </v>
   <v type="int" >        2       37       47       48       93 </v>
   <v type="int" >        2       47       48       93      103 </v>
   <v type="int" >        2       38       48       93       94 </v>
   <v type="int" >        2       48       93       94      104 </v>
   <v type="int" >        2       48       93      103      104 </v>
   <v type="int" >        2       38       39       49       94 </v>
   <v type="int" >        2       38       48       49       94 </v>
   <v type="int" >        2       48       49       94      104 </v>
   <v type="int" >        2       39       49       94       95 </v>
   <v type="int" >        2       49       94       95      105 </v>
   <v type="int" >        2       49       94      104      105 </v>
   <v type="int" >        2       39       40       50       95 </v>
   <v type="int" >        2       39       49       50       95 </v>
   <v type="int" >        2       49       50       95      105 </v>
   <v type="int" >        2       40       50       95       96 </v>
   <v type="int" >        2       50       95       96      106 </v>
   <v type="int" >        2       50       95      105      106 </v>
   <v type="int" >        2       40       41       51       96 </v>
   <v type="int" >        2       40       50       51       96 </v>
   <v type="int" >        2       50       51       96      106 </v>
   <v type="int" >        2       41       51       96       97 </v>
   <v type="int" >        2       51       96       97      107 </v>
   <v type="int" >        2       51       96      106      107 </v>
   <v type="int" >        2       41       42       52       97 </v>
   <v type="int" >        2       41       51       52       97 </v>
   <v type="int" >        2       51       52       97      107 </v>
   <v type="int" >        2       42       52       97       98 </v>
   <v type="int" >        2       52       97       98      108 </v>
   <v type="int" >        2       52       97      107      108 </v>
   <v type="int" >        2       42       43       51       98 </v>
   <v type="int" >        2       42       51       52       98 </v>
   <v type="int" >        2       51       52       98      108 </v>
   <v type="int" >        2       43       51       98       99 </v>
   <v type="int" >        2       51       98       99      109 </v>
   <v type="int" >        2       51       98      108      109 </v>
   <v type="int" >        2       43       44       50       99 </v>
   <v type="int" >        2       43       50       51       99 </v>
   <v type="int" >        2       50       51       99      109 </v>
   <v type="int" >        2       44       50       99      100 </v>
   <v type="int" >        2       50       99      100      110 </v>
   <v type="int" >        2       50       99      109      110 </v>
   <v type="int" >        2       44       45       49      100 </v>
   <v type="int" >        2       44       49       50      100 </v>
   <v type="int" >        2       49       50      100      110 </v>
   <v type="int" >        2       45       49      100      101 </v>
   <v type="int" >        2       49      100      101      111 </v>
   <v type="int" >        2       49      100      110      111 </v>
   <v type="int" >        2       45       46       48      101 </v>
   <v type="int" >        2       45       48       49      101 </v>
   <v type="int" >        2       48       49      101      111 </v>
   <v type="int" >        2       46       48      101      102 </v>
   <v type="int" >        2       48      101      102      112 </v>
   <v type="int" >        2       48      101      111      112 </v>
   <v type="int" >        2       37       46       47      102 </v>
   <v type="int" >        2       46       47       48      102 </v>
   <v type="int" >        2       47       48      102      112 </v>
   <v type="int" >        2       37       47       93      102 </v>
   <v type="int" >        2       47       93      102      103 </v>
   <v type="int" >        2       47      102      103      112 </v>
   <v type="int" >        2       46       47       48      103 </v>
   <v type="int" >        2       37       46       47      103 </v>
   <v type="int" >        2       37       46      103      113 </v>
   <v type="int" >        2       46       48      103      104 </v>
   <v type="int" >        2       46      103      104      114 </v>
   <v type="int" >        2       46      103      113      114 </v>
   <v type="int" >        2       45       48       49      104 </v>
   <v type="int" >        2       45       46       48      104 </v>
   <v type="int" >        2       45       46      104      114 </v>
   <v type="int" >        2       45       49      104      105 </v>
   <v type="int" >        2       45      104      105      115 </v>
   <v type="int" >        2       45      104      114      115 </v>
   <v type="int" >        2       44       49       50      105 </v>
   <v type="int" >        2       44       45       49      105 </v>
   <v type="int" >        2       44       45      105      115 </v>
   <v type="int" >        2       44       50      105      106 </v>
   <v type="int" >        2       44      105      106      116 </v>
   <v type="int" >        2       44      105      115      116 </v>
   <v type="int" >        2       43       50       51      106 </v>
   <v type="int" >        2       43       44       50      106 </v>
   <v type="int" >        2       43       44      106      116 </v>
   <v type="int" >        2       43       51      106      107 </v>
   <v type="int" >        2       43      106      107      117 </v>
   <v type="int" >        2       43      106      116      117 </v>
   <v type="int" >        2       42       51       52      107 </v>
   <v type="int" >        2       42       43       51      107 </v>
   <v type="int" >        2       42       43      107      117 </v>
   <v type="int" >        2       42       52      107      108 </v>
   <v type="int" >        2       42      107      108      118 </v>
   <v type="int" >        2       42      107      117      118 </v>
   <v type="int" >        2       41       51       52      108 </v>
   <v type="int" >        2       41       42       52      108 </v>
   <v type="int" >        2       41       42      108      118 </v>
   <v type="int" >        2       41       51      108      109 </v>
   <v type="int" >        2       41      108      109      119 </v>
   <v type="int" >        2       41      108      118      119 </v>
   <v type="int" >        2       40       50       51      109 </v>
   <v type="int" >        2       40       41       51      109 </v>
   <v type="int" >        2       40       41      109      119 </v>
   <v type="int" >        2       40       50      109      110 </v>
   <v type="int" >        2       40      109      110      120 </v>
   <v type="int" >        2       40      109      119      120 </v>
   <v type="int" >        2       39       49       50      110 </v>
   <v type="int" >        2       39       40       50      110 </v>
   <v type="int" >        2       39       40      110      120 </v>
   <v type="int" >        2       39       49      110      111 </v>
   <v type="int" >        2       39      110      111      121 </v>
   <v type="int" >        2       39      110      120      121 </v>
   <v type="int" >        2       38       48       49      111 </v>
   <v type="int" >        2       38       39       49      111 </v>
   <v type="int" >        2       38       39      111      121 </v>
   <v type="int" >        2       38       48      111      112 </v>
   <v type="int" >        2       38      111      112      122 </v>
   <v type="int" >        2       38      111      121      122 </v>
   <v type="int" >        2       37       47       48      112 </v>
   <v type="int" >        2       37       38       48      112 </v>
   <v type="int" >        2       37       38      112      122 </v>
   <v type="int" >        2       37       47      103      112 </v>
   <v type="int" >        2       37      103      112      113 </v>
   <v type="int" >        2       37      112      113      122 </v>
   <v type="int" >        2       36       37       46      113 </v>
   <v type="int" >        2       27       36       37      113 </v>
   <v type="int" >        2       27       36      113      123 </v>
   <v type="int" >        2       36       46      113      114 </v>
   <v type="int" >        2       36      113      114      124 </v>
   <v type="int" >        2       36      113      123      124 </v>
   <v type="int" >        2       35       45       46      114 </v>
   <v type="int" >        2       35       36       46      114 </v>
   <v type="int" >        2       35       36      114      124 </v>
   <v type="int" >        2       35       45      114      115 </v>
   <v type="int" >        2       35      114      115      125 </v>
   <v type="int" >        2       35      114      124      125 </v>
   <v type="int" >        2       34       44       45      115 </v>
   <v type="int" >        2       34       35       45      115 </v>
   <v type="int" >        2       34       35      115      125 </v>
   <v type="int" >        2       34       44      115      116 </v>
   <v type="int" >        2       34      115      116      126 </v>
   <v type="int" >        2       34      115      125      126 </v>
   <v type="int" >        2       33       43       44      116 </v>
   <v type="int" >        2       33       34       44      116 </v>
   <v type="int" >        2       33       34      116      126 </v>
   <v type="int" >        2       33       43      116      117 </v>
   <v type="int" >        2       33      116      117      127 </v>
   <v type="int" >        2       33      116      126      127 </v>
   <v type="int" >        2       32       42       43      117 </v>
   <v type="int" >        2       32       33       43      117 </v>
   <v type="int" >        2       32       33      117      127 </v>
   <v type="int" >        2       32       42      117      118 </v>
   <v type="int" >        2       32      117      118      128 </v>
   <v type="int" >        2       32      117      127      128 </v>
   <v type="int" >        2       31       41       42      118 </v>
   <v type="int" >        2       31       32       42      118 </v>
   <v type="int" >        2       31       32      118      128 </v>
   <v type="int" >        2       31       41      118      119 </v>
   <v type="int" >        2       31      118      119      129 </v>
   <v type="int" >        2       31      118      128      129 </v>
   <v type="int" >        2       30       40       41      119 </v>
   <v type="int" >        2       30       31       41      119 </v>
   <v type="int" >        2       30       31      119      129 </v>
   <v type="int" >        2       30       40      119      120 </v>
   <v type="int" >        2       30      119      120      130 </v>
   <v type="int" >        2       30      119      129      130 </v>
   <v type="int" >        2       29       39       40      120 </v>
   <v type="int" >        2       29       30       40      120 </v>
   <v type="int" >        2       29       30      120      130 </v>
   <v type="int" >        2       29       39      120      121 </v>
   <v type="int" >        2       29      120      121      131 </v>
   <v type="int" >        2       29      120      130      131 </v>
   <v type="int" >        2       28       38       39      121 </v>
   <v type="int" >        2       28       29       39      121 </v>
   <v type="int" >        2       28       29      121      131 </v>
   <v type="int" >        2       28       38      121      122 </v>
   <v type="int" >        2       28      121      122      132 </v>
   <v type="int" >        2       28      121      131      132 </v>
   <v type="int" >        2       27       37       38      122 </v>
   <v type="int" >        2       27       28       38      122 </v>
   <v type="int" >        2       27       28      122      132 </v>
   <v type="int" >        2       27       37      113      122 </v>
   <v type="int" >        2       27      113      122      123 </v>
   <v type="int" >        2       27      122      123      132 </v>
   <v type="int" >        2       26       27       36      123 </v>
   <v type="int" >        2       17       26       27      123 </v>
   <v type="int" >        2       17       26      123      133 </v>
   <v type="int" >        2       26       36      123      124 </v>
   <v type="int" >        2       26      123      124      134 </v>
   <v type="int" >        2       26      123      133      134 </v>
   <v type="int" >        2       25       35       36      124 </v>
   <v type="int" >        2       25       26       36      124 </v>
   <v type="int" >        2       25       26      124      134 </v>
   <v type="int" >        2       25       35      124      125 </v>
   <v type="int" >        2       25      124      125      135 </v>
   <v type="int" >        2       25      124      134      135 </v>
   <v type="int" >        2       24       34       35      125 </v>
   <v type="int" >        2       24       25       35      125 </v>
   <v type="int" >        2       24       25      125      135 </v>
   <v type="int" >        2       24       34      125      126 </v>
   <v type="int" >        2       24      125      126      136 </v>
   <v type="int" >        2       24      125      135      136 </v>
   <v type="int" >        2       23       33       34      126 </v>
   <v type="int" >        2       23       24       34      126 </v>
   <v type="int" >        2       23       24      126      136 </v>
   <v type="int" >        2       23       33      126      127 </v>
   <v type="int" >        2       23      126      127      137 </v>
   <v type="int" >        2       23      126      136      137 </v>
   <v type="int" >        2       22       32       33      127 </v>
   <v type="int" >        2       22       23       33      127 </v>
   <v type="int" >        2       22       23      127      137 </v>
   <v type="int" >        2       22       32      127      128 </v>
   <v type="int" >        2       22      127      128      138 </v>
   <v type="int" >        2       22      127      137      138 </v>
   <v type="int" >        2       21       31       32      128 </v>
   <v type="int" >        2       21       22       32      128 </v>
   <v type="int" >        2       21       22      128      138 </v>
   <v type="int" >        2       21       31      128      129 </v>
   <v type="int" >        2       21      128      129      139 </v>
   <v type="int" >        2       21      128      138      139 </v>
   <v type="int" >        2       20       30       31      129 </v>
   <v type="int" >        2       20       21       31      129 </v>
   <v type="int" >        2       20       21      129      139 </v>
   <v type="int" >        2       20       30      129      130 </v>
   <v type="int" >        2       20      129      130      140 </v>
   <v type="int" >        2       20      129      139      140 </v>
   <v type="int" >        2       19       29       30      130 </v>
   <v type="int" >        2       19       20       30      130 </v>
   <v type="int" >        2       19       20      130      140 </v>
   <v type="int" >        2       19       29      130      131 </v>
   <v type="int" >        2       19      130      131      141 </v>
   <v type="int" >        2       19      130      140      141 </v>
   <v type="int" >        2       18       28       29      131 </v>
   <v type="int" >        2       18       19       29      131 </v>
   <v type="int" >        2       18       19      131      141 </v>
   <v type="int" >        2       18       28      131      132 </v>
   <v type="int" >        2       18      131      132      142 </v>
   <v type="int" >        2       18      131      141      142 </v>
   <v type="int" >        2       17       27       28      132 </v>
   <v type="int" >        2       17       18       28      132 </v>
   <v type="int" >        2       17       18      132      142 </v>
   <v type="int" >        2       17       27      123      132 </v>
   <v type="int" >        2       17      123      132      133 </v>
   <v type="int" >        2       17      132      133      142 </v>
   <v type="int" >        2       16       17       26      133 </v>
   <v type="int" >        2        7       16       17      133 </v>
   <v type="int" >        2        7       16      133      143 </v>
   <v type="int" >        2       16       26      133      134 </v>
   <v type="int" >        2       16      133      134      144 </v>
   <v type="int" >        2       16      133      143      144 </v>
   <v type="int" >        2       15       25       26      134 </v>
   <v type="int" >        2       15       16       26      134 </v>
   <v type="int" >        2       15       16      134      144 </v>
   <v type="int" >        2       15       25      134      135 </v>
   <v type="int" >        2       15      134      135      145 </v>
   <v type="int" >        2       15      134      144      145 </v>
   <v type="int" >        2       14       24       25      135 </v>
   <v type="int" >        2       14       15       25      135 </v>
   <v type="int" >        2       14       15      135      145 </v>
   <v type="int" >        2       14       24      135      136 </v>
   <v type="int" >        2       14      135      136      146 </v>
   <v type="int" >        2       14      135      145      146 </v>
   <v type="int" >        2       13       23       24      136 </v>
   <v type="int" >        2       13       14       24      136 </v>
   <v type="int" >        2       13       14      136      146 </v>
   <v type="int" >        2       13       23      136      137 </v>
   <v type="int" >        2       13      136      137      147 </v>
   <v type="int" >        2       13      136      146      147 </v>
   <v type="int" >        2       12       22       23      137 </v>
   <v type="int" >        2       12       13       23      137 </v>
   <v type="int" >        2       12       13      137      147 </v>
   <v type="int" >        2       12       22      137      138 </v>
   <v type="int" >        2       12      137      138      148 </v>
   <v type="int" >        2       12      137      147      148 </v>
   <v type="int" >        2       11       21       22      138 </v>
   <v type="int" >        2       11       12       22      138 </v>
   <v type="int" >        2       11       12      138      148 </v>
   <v type="int" >        2       11       21      138      139 </v>
   <v type="int" >        2       11      138      139      149 </v>
   <v type="int" >        2       11      138      148      149 </v>
   <v type="int" >        2       10       20       21      139 </v>
   <v type="int" >        2       10       11       21      139 </v>
   <v type="int" >        2       10       11      139      149 </v>
   <v type="int" >        2       10       20      139      140 </v>
   <v type="int" >        2       10      139      140      150 </v>
   <v type="int" >        2       10      139      149      150 </v>
   <v type="int" >        2        9       19       20      140 </v>
   <v type="int" >        2        9       10       20      140 </v>
   <v type="int" >        2        9       10      140      150 </v>
   <v type="int" >        2        9       19      140      141 </v>
   <v type="int" >        2        9      140      141      151 </v>
   <v type="int" >        2        9      140      150      151 </v>
   <v type="int" >        2        8       18       19      141 </v>
   <v type="int" >        2        8        9       19      141 </v>
   <v type="int" >        2        8        9      141      151 </v>
   <v type="int" >        2        8       18      141      142 </v>
   <v type="int" >        2        8      141      142      152 </v>
   <v type="int" >        2        8      141      151      152 </v>
   <v type="int" >        2        7       17       18      142 </v>
   <v type="int" >        2        7        8       18      142 </v>
   <v type="int" >        2        7        8      142      152 </v>
   <v type="int" >        2        7       17      133      142 </v>
   <v type="int" >        2        7      133      142      143 </v>
   <v type="int" >        2        7      142      143      152 </v>
   <v type="int" >        2        2        7       16      143 </v>
   <v type="int" >        2        1        2        7      143 </v>
   <v type="int" >        2        1        2       53      143 </v>
   <v type="int" >        2        2       16      143      144 </v>
   <v type="int" >        2        2       54      143      144 </v>
   <v type="int" >        2        2       53       54      143 </v>
   <v type="int" >        2        3       15       16      144 </v>
   <v type="int" >        2        2        3       16      144 </v>
   <v type="int" >        2        2        3       54      144 </v>
   <v type="int" >        2        3       15      144      145 </v>
   <v type="int" >        2        3       55      144      145 </v>
   <v type="int" >        2        3       54       55      144 </v>
   <v type="int" >        2        4       14       15      145 </v>
   <v type="int" >        2        3        4       15      145 </v>
   <v type="int" >        2        3        4       55      145 </v>
   <v type="int" >        2        4       14      145      146 </v>
   <v type="int" >        2        4       56      145      146 </v>
   <v type="int" >        2        4       55       56      145 </v>
   <v type="int" >        2        5       13       14      146 </v>
   <v type="int" >        2        4        5       14      146 </v>
   <v type="int" >        2        4        5       56      146 </v>
   <v type="int" >        2        5       13      146      147 </v>
   <v type="int" >        2        5       57      146      147 </v>
   <v type="int" >        2        5       56       57      146 </v>
   <v type="int" >        2        6       12       13      147 </v>
   <v type="int" >        2        5        6       13      147 </v>
   <v type="int" >        2        5        6       57      147 </v>
   <v type="int" >        2        6       12      147      148 </v>
   <v type="int" >        2        6       58      147      148 </v>
   <v type="int" >        2        6       57       58      147 </v>
   <v type="int" >        2        5       11       12      148 </v>
   <v type="int" >        2        5        6       12      148 </v>
   <v type="int" >        2        5        6       58      148 </v>
   <v type="int" >        2        5       11      148      149 </v>
   <v type="int" >        2        5       59      148      149 </v>
   <v type="int" >        2        5       58       59      148 </v>
   <v type="int" >        2        4       10       11      149 </v>
   <v type="int" >        2        4        5       11      149 </v>
   <v type="int" >        2        4        5       59      149 </v>
   <v type="int" >        2        4       10      149      150 </v>
   <v type="int" >        2        4       60      149      150 </v>
   <v type="int" >        2        4       59       60      149 </v>
   <v type="int" >        2        3        9       10      150 </v>
   <v type="int" >        2        3        4       10      150 </v>
   <v type="int" >        2        3        4       60      150 </v>
   <v type="int" >        2        3        9      150      151 </v>
   <v type="int" >        2        3       61      150      151 </v>
   <v type="int" >        2        3       60       61      150 </v>
   <v type="int" >        2        2        8        9      151 </v>
   <v type="int" >        2        2        3        9      151 </v>
   <v type="int" >        2        2        3       61      151 </v>
   <v type="int" >        2        2        8      151      152 </v>
   <v type="int" >        2        2       62      151      152 </v>
   <v type="int" >        2        2       61       62      151 </v>
   <v type="int" >        2        1        7        8      152 </v>
   <v type="int" >        2        1        2        8      152 </v>
   <v type="int" >        2        1        2       62      152 </v>
   <v type="int" >        2        1        7      143      152 </v>
   <v type="int" >        2        1       53      143      152 </v>
   <v type="int" >        2        1       53       62      152 </v>
   <v type="int" >        2       53       53       54       64 </v>
   <v type="int" >        2       53       53       63       64 </v>
   <v type="int" >        2       53       63       64      143 </v>
   <v type="int" >        2       53       54       62       64 </v>
   <v type="int" >        2       53       62       64      152 </v>
   <v type="int" >        2       53       64      143      152 </v>
   <v type="int" >        2       54       55       62       65 </v>
   <v type="int" >        2       54       62       64       65 </v>
   <v type="int" >        2       62       64       65      152 </v>
   <v type="int" >        2       55       61       62       65 </v>
   <v type="int" >        2       61       62       65      151 </v>
   <v type="int" >        2       62       65      151      152 </v>
   <v type="int" >        2       55       56       61       66 </v>
   <v type="int" >        2       55       61       65       66 </v>
   <v type="int" >        2       61       65       66      151 </v>
   <v type="int" >        2       56       60       61       66 </v>
   <v type="int" >        2       60       61       66      150 </v>
   <v type="int" >        2       61       66      150      151 </v>
   <v type="int" >        2       56       57       60       67 </v>
   <v type="int" >        2       56       60       66       67 </v>
   <v type="int" >        2       60       66       67      150 </v>
   <v type="int" >        2       57       59       60       67 </v>
   <v type="int" >        2       59       60       67      149 </v>
   <v type="int" >        2       60       67      149      150 </v>
   <v type="int" >        2       57       58       59       68 </v>
   <v type="int" >        2       57       59       67       68 </v>
   <v type="int" >        2       59       67       68      149 </v>
   <v type="int" >        2       58       58       59       68 </v>
   <v type="int" >        2       58       59       68      148 </v>
   <v type="int" >        2       59       68      148      149 </v>
   <v type="int" >        2       58       58       59       69 </v>
   <v type="int" >        2       58       58       68       69 </v>
   <v type="int" >        2       58       68       69      148 </v>
   <v type="int" >        2       57       58       59       69 </v>
   <v type="int" >        2       57       58       69      147 </v>
   <v type="int" >        2       58       69      147      148 </v>
   <v type="int" >        2       57       59       60       70 </v>
   <v type="int" >        2       57       59       69       70 </v>
   <v type="int" >        2       57       69       70      147 </v>
   <v type="int" >        2       56       57       60       70 </v>
   <v type="int" >        2       56       57       70      146 </v>
   <v type="int" >        2       57       70      146      147 </v>
   <v type="int" >        2       56       60       61       71 </v>
   <v type="int" >        2       56       60       70       71 </v>
   <v type="int" >        2       56       70       71      146 </v>
   <v type="int" >        2       55       56       61       71 </v>
   <v type="int" >        2       55       56       71      145 </v>
   <v type="int" >        2       56       71      145      146 </v>
   <v type="int" >        2       55       61       62       72 </v>
   <v type="int" >        2       55       61       71       72 </v>
   <v type="int" >        2       55       71       72      145 </v>
   <v type="int" >        2       54       55       62       72 </v>
   <v type="int" >        2       54       55       72      144 </v>
   <v type="int" >        2       55       72      144      145 </v>
   <v type="int" >        2       53       54       62       63 </v>
   <v type="int" >        2       54       62       63       72 </v>
   <v type="int" >        2       54       63       72      144 </v>
   <v type="int" >        2       53       53       54       63 </v>
   <v type="int" >        2       53       54       63      143 </v>
   <v type="int" >        2       54       63      143      144 </v>
   <v type="int" >        2       63       64       74      143 </v>
   <v type="int" >        2       63       73       74      143 </v>
   <v type="int" >        2       73       74      133      143 </v>
   <v type="int" >        2       64       74      143      152 </v>
   <v type="int" >        2       74      142      143      152 </v>
   <v type="int" >        2       74      133      142      143 </v>
   <v type="int" >        2       64       65       75      152 </v>
   <v type="int" >        2       64       74       75      152 </v>
   <v type="int" >        2       74       75      142      152 </v>
   <v type="int" >        2       65       75      151      152 </v>
   <v type="int" >        2       75      141      151      152 </v>
   <v type="int" >        2       75      141      142      152 </v>
   <v type="int" >        2       65       66       76      151 </v>
   <v type="int" >        2       65       75       76      151 </v>
   <v type="int" >        2       75       76      141      151 </v>
   <v type="int" >        2       66       76      150      151 </v>
   <v type="int" >        2       76      140      150      151 </v>
   <v type="int" >        2       76      140      141      151 </v>
   <v type="int" >        2       66       67       77      150 </v>
   <v type="int" >        2       66       76       77      150 </v>
   <v type="int" >        2       76       77      140      150 </v>
   <v type="int" >        2       67       77      149      150 </v>
   <v type="int" >        2       77      139      149      150 </v>
   <v type="int" >        2       77      139      140      150 </v>
   <v type="int" >        2       67       68       78      149 </v>
   <v type="int" >        2       67       77       78      149 </v>
   <v type="int" >        2       77       78      139      149 </v>
   <v type="int" >        2       68       78      148      149 </v>
   <v type="int" >        2       78      138      148      149 </v>
   <v type="int" >        2       78      138      139      149 </v>
   <v type="int" >        2       68       69       79      148 </v>
   <v type="int" >        2       68       78       79      148 </v>
   <v type="int" >        2       78       79      138      148 </v>
   <v type="int" >        2       69       79      147      148 </v>
   <v type="int" >        2       79      137      147      148 </v>
   <v type="int" >        2       79      137      138      148 </v>
   <v type="int" >        2       69       70       80      147 </v>
   <v type="int" >        2       69       79       80      147 </v>
   <v type="int" >        2       79       80      137      147 </v>
   <v type="int" >        2       70       80      146      147 </v>
   <v type="int" >        2       80      136      146      147 </v>
   <v type="int" >        2       80      136      137      147 </v>
   <v type="int" >        2       70       71       81      146 </v>
   <v type="int" >        2       70       80       81      146 </v>
   <v type="int" >        2       80       81      136      146 </v>
   <v type="int" >        2       71       81      145      146 </v>
   <v type="int" >        2       81      135      145      146 </v>
   <v type="int" >        2       81      135      136      146 </v>
   <v type="int" >        2       71       72       82      145 </v>
   <v type="int" >        2       71       81       82      145 </v>
   <v type="int" >        2       81       82      135      145 </v>
   <v type="int" >        2       72       82      144      145 </v>
   <v type="int" >        2       82      134      144      145 </v>
   <v type="int" >        2       82      134      135      145 </v>
   <v type="int" >        2       63       72       73      144 </v>
   <v type="int" >        2       72       73       82      144 </v>
   <v type="int" >        2       73       82      134      144 </v>
   <v type="int" >        2       63       73      143      144 </v>
   <v type="int" >        2       73      133      143      144 </v>
   <v type="int" >        2       73      133      134      144 </v>
   <v type="int" >        2       73       74       84      133 </v>
   <v type="int" >        2       73       83       84      133 </v>
   <v type="int" >        2       83       84      123      133 </v>
   <v type="int" >        2       74       84      133      142 </v>
   <v type="int" >        2       84      132      133      142 </v>
   <v type="int" >        2       84      123      132      133 </v>
   <v type="int" >        2       74       75       85      142 </v>
   <v type="int" >        2       74       84       85      142 </v>
   <v type="int" >        2       84       85      132      142 </v>
   <v type="int" >        2       75       85      141      142 </v>
   <v type="int" >        2       85      131      141      142 </v>
   <v type="int" >        2       85      131      132      142 </v>
   <v type="int" >        2       75       76       86      141 </v>
   <v type="int" >        2       75       85       86      141 </v>
   <v type="int" >        2       85       86      131      141 </v>
   <v type="int" >        2       76       86      140      141 </v>
   <v type="int" >        2       86      130      140      141 </v>
   <v type="int" >        2       86      130      131      141 </v>
   <v type="int" >        2       76       77       87      140 </v>
   <v type="int" >        2       76       86       87      140 </v>
   <v type="int" >        2       86       87      130      140 </v>
   <v type="int" >        2       77       87      139      140 </v>
   <v type="int" >        2       87      129      139      140 </v>
   <v type="int" >        2       87      129      130      140 </v>
   <v type="int" >        2       77       78       88      139 </v>
   <v type="int" >        2       77       87       88      139 </v>
   <v type="int" >        2       87       88      129      139 </v>
   <v type="int" >        2       78       88      138      139 </v>
   <v type="int" >        2       88      128      138      139 </v>
   <v type="int" >        2       88      128      129      139 </v>
   <v type="int" >        2       78       79       89      138 </v>
   <v type="int" >        2       78       88       89      138 </v>
   <v type="int" >        2       88       89      128      138 </v>
   <v type="int" >        2       79       89      137      138 </v>
   <v type="int" >        2       89      127      137      138 </v>
   <v type="int" >        2       89      127      128      138 </v>
   <v type="int" >        2       79       80       90      137 </v>
   <v type="int" >        2       79       89       90      137 </v>
   <v type="int" >        2       89       90      127      137 </v>
   <v type="int" >        2       80       90      136      137 </v>
   <v type="int" >        2       90      126      136      137 </v>
   <v type="int" >        2       90      126      127      137 </v>
   <v type="int" >        2       80       81       91      136 </v>
   <v type="int" >        2       80       90       91      136 </v>
   <v type="int" >        2       90       91      126      136 </v>
   <v type="int" >        2       81       91      135      136 </v>
   <v type="int" >        2       91      125      135      136 </v>
   <v type="int" >        2       91      125      126      136 </v>
   <v type="int" >        2       81       82       92      135 </v>
   <v type="int" >        2       81       91       92      135 </v>
   <v type="int" >        2       91       92      125      135 </v>
   <v type="int" >        2       82       92      134      135 </v>
   <v type="int" >        2       92      124      134      135 </v>
   <v type="int" >        2       92      124      125      135 </v>
   <v type="int" >        2       73       82       83      134 </v>
   <v type="int" >        2       82       83       92      134 </v>
   <v type="int" >        2       83       92      124      134 </v>
   <v type="int" >        2       73       83      133      134 </v>
   <v type="int" >        2       83      123      133      134 </v>
   <v type="int" >        2       83      123      124      134 </v>
   <v type="int" >        2       83       84       94      123 </v>
   <v type="int" >        2       83       93       94      123 </v>
   <v type="int" >        2       93       94      113      123 </v>
   <v type="int" >        2       84       94      123      132 </v>
   <v type="int" >        2       94      122      123      132 </v>
   <v type="int" >        2       94      113      122      123 </v>
   <v type="int" >        2       84       85       95      132 </v>
   <v type="int" >        2       84       94       95      132 </v>
   <v type="int" >        2       94       95      122      132 </v>
   <v type="int" >        2       85       95      131      132 </v>
   <v type="int" >        2       95      121      131      132 </v>
   <v type="int" >        2       95      121      122      132 </v>
   <v type="int" >        2       85       86       96      131 </v>
   <v type="int" >        2       85       95       96      131 </v>
   <v type="int" >        2       95       96      121      131 </v>
   <v type="int" >        2       86       96      130      131 </v>
   <v type="int" >        2       96      120      130      131 </v>
   <v type="int" >        2       96      120      121      131 </v>
   <v type="int" >        2       86       87       97      130 </v>
   <v type="int" >        2       86       96       97      130 </v>
   <v type="int" >        2       96       97      120      130 </v>
   <v type="int" >        2       87       97      129      130 </v>
   <v type="int" >        2       97      119      129      130 </v>
   <v type="int" >        2       97      119      120      130 </v>
   <v type="int" >        2       87       88       98      129 </v>
   <v type="int" >        2       87       97       98      129 </v>
   <v type="int" >        2       97       98      119      129 </v>
   <v type="int" >        2       88       98      128      129 </v>
   <v type="int" >        2       98      118      128      129 </v>
   <v type="int" >        2       98      118      119      129 </v>
   <v type="int" >        2       88       89       99      128 </v>
   <v type="int" >        2       88       98       99      128 </v>
   <v type="int" >        2       98       99      118      128 </v>
   <v type="int" >        2       89       99      127      128 </v>
   <v type="int" >        2       99      117      127      128 </v>
   <v type="int" >        2       99      117      118      128 </v>
   <v type="int" >        2       89       90      100      127 </v>
   <v type="int" >        2       89       99      100      127 </v>
   <v type="int" >        2       99      100      117      127 </v>
   <v type="int" >        2       90      100      126      127 </v>
   <v type="int" >        2      100      116      126      127 </v>
   <v type="int" >        2      100      116      117      127 </v>
   <v type="int" >        2       90       91      101      126 </v>
   <v type="int" >        2       90      100      101      126 </v>
   <v type="int" >        2      100      101      116      126 </v>
   <v type="int" >        2       91      101      125      126 </v>
   <v type="int" >        2      101      115      125      126 </v>
   <v type="int" >        2      101      115      116      126 </v>
   <v type="int" >        2       91       92      102      125 </v>
   <v type="int" >        2       91      101      102      125 </v>
   <v type="int" >        2      101      102      115      125 </v>
   <v type="int" >        2       92      102      124      125 </v>
   <v type="int" >        2      102      114      124      125 </v>
   <v type="int" >        2      102      114      115      125 </v>
   <v type="int" >        2       83       92       93      124 </v>
   <v type="int" >        2       92       93      102      124 </v>
   <v type="int" >        2       93      102      114      124 </v>
   <v type="int" >        2       83       93      123      124 </v>
   <v type="int" >        2       93      113      123      124 </v>
   <v type="int" >        2       93      113      114      124 </v>
   <v type="int" >        2       93       94      104      113 </v>
   <v type="int" >        2       93      103      104      113 </v>
   <v type="int" >        2      103      103      104      113 </v>
   <v type="int" >        2       94      104      113      122 </v>
   <v type="int" >        2      104      112      113      122 </v>
   <v type="int" >        2      103      104      112      113 </v>
   <v type="int" >        2       94       95      105      122 </v>
   <v type="int" >        2       94      104      105      122 </v>
   <v type="int" >        2      104      105      112      122 </v>
   <v type="int" >        2       95      105      121      122 </v>
   <v type="int" >        2      105      111      121      122 </v>
   <v type="int" >        2      105      111      112      122 </v>
   <v type="int" >        2       95       96      106      121 </v>
   <v type="int" >        2       95      105      106      121 </v>
   <v type="int" >        2      105      106      111      121 </v>
   <v type="int" >        2       96      106      120      121 </v>
   <v type="int" >        2      106      110      120      121 </v>
   <v type="int" >        2      106      110      111      121 </v>
   <v type="int" >        2       96       97      107      120 </v>
   <v type="int" >        2       96      106      107      120 </v>
   <v type="int" >        2      106      107      110      120 </v>
   <v type="int" >        2       97      107      119      120 </v>
   <v type="int" >        2      107      109      119      120 </v>
   <v type="int" >        2      107      109      110      120 </v>
   <v type="int" >        2       97       98      108      119 </v>
   <v type="int" >        2       97      107      108      119 </v>
   <v type="int" >        2      107      108      109      119 </v>
   <v type="int" >        2       98      108      118      119 </v>
   <v type="int" >        2      108      108      118      119 </v>
   <v type="int" >        2      108      108      109      119 </v>
   <v type="int" >        2       98       99      109      118 </v>
   <v type="int" >        2       98      108      109      118 </v>
   <v type="int" >        2      108      108      109      118 </v>
   <v type="int" >        2       99      109      117      118 </v>
   <v type="int" >        2      107      109      117      118 </v>
   <v type="int" >        2      107      108      109      118 </v>
   <v type="int" >        2       99      100      110      117 </v>
   <v type="int" >        2       99      109      110      117 </v>
   <v type="int" >        2      107      109      110      117 </v>
   <v type="int" >        2      100      110      116      117 </v>
   <v type="int" >        2      106      110      116      117 </v>
   <v type="int" >        2      106      107      110      117 </v>
   <v type="int" >        2      100      101      111      116 </v>
   <v type="int" >        2      100      110      111      116 </v>
   <v type="int" >        2      106      110      111      116 </v>
   <v type="int" >        2      101      111      115      116 </v>
   <v type="int" >        2      105      111      115      116 </v>
   <v type="int" >        2      105      106      111      116 </v>
   <v type="int" >        2      101      102      112      115 </v>
   <v type="int" >        2      101      111      112      115 </v>
   <v type="int" >        2      105      111      112      115 </v>
   <v type="int" >        2      102      112      114      115 </v>
   <v type="int" >        2      104      112      114      115 </v>
   <v type="int" >        2      104      105      112      115 </v>
   <v type="int" >        2       93      102      103      114 </v>
   <v type="int" >        2      102      103      112      114 </v>
   <v type="int" >        2      103      104      112      114 </v>
   <v type="int" >        2       93      103      113      114 </v>
   <v type="int" >        2      103      103      113      114 </v>
   <v type="int" >        2      103      103      104      114 </v>
  </varray>
  <i name="volumeweight">      0.00055556 </i>
 </kpoints>
 <parameters>
  <separator name="general" >
   <i type="string" name="SYSTEM">Ir_Ru</i>
   <i type="logical" name="LCOMPAT"> F  </i>
  </separator>
  <separator name="electronic" >
   <i type="string" name="PREC">accura</i>
   <i name="ENMAX">    213.27600000</i>
   <i name="ENAUG">    333.49400000</i>
   <i name="EDIFF">      0.00010000</i>
   <i type="int" name="IALGO">    48</i>
   <i type="int" name="IWAVPR">    10</i>
   <i type="int" name="NBANDS">   192</i>
   <i name="NELECT">    276.00000000</i>
   <i type="int" name="TURBO">     0</i>
   <i type="int" name="IRESTART">     0</i>
   <i type="int" name="NREBOOT">     0</i>
   <i type="int" name="NMIN">     0</i>
   <i name="EREF">      0.00000000</i>
   <separator name="electronic smearing" >
    <i type="int" name="ISMEAR">    -5</i>
    <i name="SIGMA">      0.10000000</i>
    <i name="KSPACING">      0.50000000</i>
    <i type="logical" name="KGAMMA"> T  </i>
   </separator>
   <separator name="electronic projectors" >
    <i type="logical" name="LREAL"> F  </i>
    <v name="ROPT">      0.00000000      0.00000000</v>
    <i type="int" name="LMAXPAW">  -100</i>
    <i type="int" name="LMAXMIX">     2</i>
    <i type="logical" name="NLSPLINE"> F  </i>
   </separator>
   <separator name="electronic startup" >
    <i type="int" name="ISTART">     0</i>
    <i type="int" name="ICHARG">     2</i>
    <i type="int" name="INIWAV">     1</i>
   </separator>
   <separator name="electronic spin" >
    <i type="int" name="ISPIN">     1</i>
    <i type="logical" name="LNONCOLLINEAR"> F  </i>
    <v name="MAGMOM">      1.00000000      1.00000000      1.00000000      1.00000000      1.00000000      1.00000000      1.00000000      1.00000000      1.00000000      1.00000000      1.00000000      1.00000000      1.00000000      1.00000000      1.00000000      1.00000000      1.00000000      1.00000000      1.00000000      1.00000000
      1.00000000      1.00000000      1.00000000      1.00000000      1.00000000      1.00000000      1.00000000      1.00000000      1.00000000      1.00000000      1.00000000      1.00000000</v>
    <i name="NUPDOWN">     -1.00000000</i>
    <i type="logical" name="LSORBIT"> F  </i>
[...]
       <r>   10.1618    0.0000 </r>
       <r>   10.1813    0.0000 </r>
       <r>   10.2409    0.0000 </r>
       <r>   10.2468    0.0000 </r>
       <r>   10.3487    0.0000 </r>
       <r>   10.3623    0.0000 </r>
       <r>   10.3973    0.0000 </r>
       <r>   10.4269    0.0000 </r>
       <r>   10.4571    0.0000 </r>
       <r>   10.4747    0.0000 </r>
       <r>   10.4990    0.0000 </r>
       <r>   10.5341    0.0000 </r>
       <r>   10.5402    0.0000 </r>
       <r>   10.5510    0.0000 </r>
       <r>   10.5714    0.0000 </r>
       <r>   10.5856    0.0000 </r>
       <r>   10.5913    0.0000 </r>
       <r>   10.6243    0.0000 </r>
       <r>   10.6378    0.0000 </r>
       <r>   10.6523    0.0000 </r>
       <r>   10.6769    0.0000 </r>
       <r>   10.6861    0.0000 </r>
       <r>   10.6990    0.0000 </r>
       <r>   10.7049    0.0000 </r>
       <r>   10.7278    0.0000 </r>
       <r>   10.7442    0.0000 </r>
       <r>   10.7680    0.0000 </r>
       <r>   10.7723    0.0000 </r>
       <r>   10.8099    0.0000 </r>
       <r>   10.8225    0.0000 </r>
       <r>   10.8369    0.0000 </r>
       <r>   10.8510    0.0000 </r>
       <r>   10.9002    0.0000 </r>
       <r>   11.0114    0.0000 </r>
       <r>   11.4032    0.0000 </r>
       <r>   11.4148    0.0000 </r>
       <r>   11.5637    0.0000 </r>
       <r>   11.6478    0.0000 </r>
       <r>   11.6576    0.0000 </r>
       <r>   11.8679    0.0000 </r>
       <r>   12.1985    0.0000 </r>
       <r>   12.2041    0.0000 </r>
       <r>   12.4904    0.0000 </r>
       <r>   12.5104    0.0000 </r>
       <r>   12.5743    0.0000 </r>
       <r>   12.9130    0.0000 </r>
       <r>   12.9179    0.0000 </r>
       <r>   13.3742    0.0000 </r>
       <r>   13.5134    0.0000 </r>
       <r>   13.5172    0.0000 </r>
       <r>   14.3831    0.0000 </r>
       <r>   14.4098    0.0000 </r>
       <r>   14.6701    0.0000 </r>
       <r>   14.7862    0.0000 </r>
       <r>   17.7901    0.0000 </r>
       <r>   17.9769    0.0000 </r>
      </set>
     </set>
    </set>
   </array>
  </eigenvalues>
  <separator name="orbital magnetization" >
   <v name="MAGDIPOLOUT">      0.00000000      0.00000000      0.00000000</v>
  </separator>
  <dos>
   <i name="efermi">      9.61248339 </i>
   <total>
    <array>
     <dimension dim="1">gridpoints</dimension>
     <dimension dim="2">spin</dimension>
     <field>energy</field>
     <field>total</field>
     <field>integrated</field>
     <set>
      <set comment="spin 1">
       <r>    -1.5755     0.0000     0.0000 </r>
       <r>    -1.5058     0.0000     0.0000 </r>
       <r>    -1.4362     0.0000     0.0000 </r>
       <r>    -1.3666     0.0000     0.0000 </r>
       <r>    -1.2969     0.0000     0.0000 </r>
       <r>    -1.2273     0.0000     0.0000 </r>
       <r>    -1.1577     0.0000     0.0000 </r>
       <r>    -1.0880     0.0000     0.0000 </r>
       <r>    -1.0184     0.0000     0.0000 </r>
       <r>    -0.9488     0.0000     0.0000 </r>
       <r>    -0.8791     0.0000     0.0000 </r>
       <r>    -0.8095     0.0000     0.0000 </r>
       <r>    -0.7399     0.0000     0.0000 </r>
       <r>    -0.6702     0.0000     0.0000 </r>
       <r>    -0.6006     0.0000     0.0000 </r>
       <r>    -0.5310     0.3900     0.0059 </r>
       <r>    -0.4613     0.9215     0.0627 </r>
       <r>    -0.3917     0.7566     0.1130 </r>
       <r>    -0.3221     0.8441     0.1688 </r>
       <r>    -0.2524     0.8487     0.2292 </r>
       <r>    -0.1828     0.7853     0.2854 </r>
       <r>    -0.1132     0.8215     0.3413 </r>
       <r>    -0.0435     0.8823     0.3999 </r>
       <r>     0.0261     1.4563     0.4794 </r>
       <r>     0.0957     1.5747     0.5836 </r>
       <r>     0.1654     1.7149     0.6999 </r>
       <r>     0.2350     1.7520     0.8198 </r>
       <r>     0.3046     1.7682     0.9427 </r>
       <r>     0.3743     1.7890     1.0666 </r>
       <r>     0.4439     1.8370     1.1926 </r>
       <r>     0.5135     1.9813     1.3247 </r>
       <r>     0.5832     2.1576     1.4692 </r>
       <r>     0.6528     2.3381     1.6257 </r>
       <r>     0.7224     2.6072     1.7957 </r>
       <r>     0.7921     3.0837     1.9949 </r>
       <r>     0.8617     3.0130     2.2003 </r>
       <r>     0.9313     3.1500     2.4149 </r>
       <r>     1.0010     3.2654     2.6381 </r>
       <r>     1.0706     3.9043     2.8805 </r>
       <r>     1.1402     3.8875     3.1698 </r>
       <r>     1.2099     3.3359     3.4185 </r>
       <r>     1.2795     3.7280     3.6593 </r>
       <r>     1.3491     4.3176     3.9358 </r>
       <r>     1.4188     4.2378     4.2233 </r>
       <r>     1.4884     6.4644     4.5724 </r>
       <r>     1.5580     3.7150     4.8749 </r>
       <r>     1.6277     3.8622     5.1377 </r>
       <r>     1.6973     5.3128     5.4475 </r>
       <r>     1.7669     4.8675     5.8188 </r>
       <r>     1.8366     4.3392     6.1339 </r>
       <r>     1.9062     5.6489     6.4539 </r>
       <r>     1.9758     7.9550     6.9372 </r>
       <r>     2.0455     8.0414     7.4929 </r>
       <r>     2.1151     9.8337     8.1342 </r>
       <r>     2.1847    16.9294     9.0010 </r>
       <r>     2.2544    15.4201    10.1664 </r>
       <r>     2.3240    19.3271    11.3478 </r>
       <r>     2.3936    17.4315    12.7800 </r>
       <r>     2.4632    16.9930    13.9540 </r>
       <r>     2.5329    18.1773    15.2700 </r>
       <r>     2.6025    21.3530    16.5991 </r>
       <r>     2.6721    27.4202    18.3389 </r>
       <r>     2.7418    27.6260    20.1934 </r>
       <r>     2.8114    23.8875    22.0252 </r>
       <r>     2.8810    28.6361    23.8546 </r>
       <r>     2.9507    28.9347    25.8308 </r>
       <r>     3.0203    33.5882    28.0046 </r>
       <r>     3.0899    35.3532    30.3683 </r>
       <r>     3.1596    35.6851    32.8916 </r>
       <r>     3.2292    40.4760    35.5729 </r>
       <r>     3.2988    40.3330    38.5045 </r>
       <r>     3.3685    38.2038    41.3021 </r>
       <r>     3.4381    40.1988    44.0626 </r>
       <r>     3.5077    37.2642    46.7927 </r>
       <r>     3.5774    36.5904    49.4370 </r>
       <r>     3.6470    36.4457    52.0175 </r>
       <r>     3.7166    37.6251    54.6418 </r>
       <r>     3.7863    36.2348    57.2591 </r>
       <r>     3.8559    32.6147    59.6788 </r>
       <r>     3.9255    30.9624    61.8994 </r>
       <r>     3.9952    30.0722    64.0185 </r>
       <r>     4.0648    33.7720    66.2546 </r>
       <r>     4.1344    41.8327    68.8538 </r>
       <r>     4.2041    43.3445    71.9798 </r>
       <r>     4.2737    47.3027    75.1480 </r>
       <r>     4.3433    40.2199    78.2258 </r>
       <r>     4.4130    37.4150    81.0495 </r>
       <r>     4.4826    35.3813    83.4363 </r>
       <r>     4.5522    35.3150    85.7685 </r>
       <r>     4.6219    30.2675    88.2054 </r>
       <r>     4.6915    36.2331    90.4100 </r>
       <r>     4.7611    38.1798    93.1715 </r>
       <r>     4.8308    41.3094    96.0236 </r>
       <r>     4.9004    42.6879    99.0837 </r>
       <r>     4.9700    44.0356   102.2134 </r>
       <r>     5.0397    47.0596   105.4140 </r>
       <r>     5.1093    39.0134   108.6075 </r>
       <r>     5.1789    33.1864   111.4532 </r>
       <r>     5.2486    32.6255   113.7779 </r>
       <r>     5.3182    32.2037   116.0534 </r>
       <r>     5.3878    27.7860   118.1810 </r>
       <r>     5.4575    25.1998   120.0114 </r>
       <r>     5.5271    23.4651   121.6602 </r>
       <r>     5.5967    30.7105   123.3905 </r>
       <r>     5.6664    39.5924   125.9218 </r>
       <r>     5.7360    48.1474   129.0650 </r>
       <r>     5.8056    51.4299   132.4702 </r>
       <r>     5.8753    49.7938   136.0464 </r>
       <r>     5.9449    51.0503   139.6209 </r>
       <r>     6.0145    50.5824   143.0999 </r>
       <r>     6.0842    47.2743   146.4985 </r>
       <r>     6.1538    46.5537   149.7770 </r>
       <r>     6.2234    45.3096   152.9314 </r>
       <r>     6.2931    55.6586   156.1409 </r>
       <r>     6.3627    49.3572   159.5371 </r>
       <r>     6.4323    44.7230   162.8002 </r>
       <r>     6.5020    52.6692   166.1700 </r>
       <r>     6.5716    47.6392   169.6435 </r>
       <r>     6.6412    63.5998   173.3516 </r>
       <r>     6.7109    58.1203   177.1027 </r>
       <r>     6.7805    46.0778   180.6095 </r>
       <r>     6.8501    48.5809   183.9675 </r>
       <r>     6.9198    47.7897   187.3364 </r>
       <r>     6.9894    45.9319   190.7604 </r>
       <r>     7.0590    49.2377   194.1172 </r>
       <r>     7.1287    49.9233   197.6140 </r>
       <r>     7.1983    53.3077   201.0056 </r>
       <r>     7.2679    46.0492   204.4726 </r>
       <r>     7.3376    41.4425   207.6378 </r>
       <r>     7.4072    46.4033   210.7350 </r>
       <r>     7.4768    41.8726   213.8849 </r>
       <r>     7.5465    38.7699   216.5661 </r>
       <r>     7.6161    42.1599   219.4336 </r>
       <r>     7.6857    32.5925   221.8486 </r>
       <r>     7.7554    36.4151   224.2379 </r>
       <r>     7.8250    32.1575   226.7076 </r>
       <r>     7.8946    34.4070   228.9233 </r>
       <r>     7.9643    33.1920   231.3447 </r>
       <r>     8.0339    25.5593   233.4310 </r>
       <r>     8.1035    27.4519   235.2741 </r>
       <r>     8.1732    30.6571   237.2165 </r>
       <r>     8.2428    32.1560   239.3616 </r>
       <r>     8.3124    27.8321   241.4709 </r>
       <r>     8.3821    23.5472   243.2133 </r>
       <r>     8.4517    30.8732   245.1340 </r>
       <r>     8.5213    25.2130   247.1456 </r>
       <r>     8.5910    23.4541   248.8622 </r>
       <r>     8.6606    24.6450   250.5694 </r>
       <r>     8.7302    23.0983   252.2649 </r>
       <r>     8.7999    23.5972   253.8748 </r>
       <r>     8.8695    23.8069   255.5554 </r>
       <r>     8.9391    24.5770   257.2543 </r>
       <r>     9.0088    26.1212   259.0023 </r>
       <r>     9.0784    29.3854   261.0346 </r>
       <r>     9.1480    26.9921   263.1036 </r>
       <r>     9.2177    24.7262   264.8724 </r>
       <r>     9.2873    27.8031   266.7214 </r>
       <r>     9.3569    25.3334   268.5146 </r>
       <r>     9.4266    27.4484   270.3906 </r>
       <r>     9.4962    29.6331   272.3565 </r>
       <r>     9.5658    30.3133   274.4735 </r>
       <r>     9.6355    35.3428   276.8212 </r>
       <r>     9.7051    42.7166   279.5935 </r>
       <r>     9.7747    42.9179   282.6306 </r>
       <r>     9.8444    37.4824   285.5508 </r>
       <r>     9.9140    40.1150   288.1803 </r>
       <r>     9.9836    37.4134   290.7946 </r>
       <r>    10.0533    44.6806   293.7032 </r>
       <r>    10.1229    49.1089   296.9438 </r>
       <r>    10.1925    55.5257   300.7453 </r>
       <r>    10.2622    51.9359   304.4952 </r>
       <r>    10.3318    58.0178   308.2166 </r>
       <r>    10.4014    62.5509   312.4303 </r>
       <r>    10.4711    61.1720   316.8161 </r>
       <r>    10.5407    57.4987   321.1323 </r>
       <r>    10.6103    59.7233   325.3176 </r>
       <r>    10.6800    50.2211   329.0017 </r>
       <r>    10.7496    48.3104   332.3124 </r>
       <r>    10.8192    41.2147   335.4078 </r>
       <r>    10.8889    21.5720   337.4944 </r>
       <r>    10.9585    12.6687   338.7026 </r>
       <r>    11.0281    11.4133   339.5487 </r>
       <r>    11.0978     9.2092   340.2608 </r>
       <r>    11.1674     7.3824   340.8415 </r>
       <r>    11.2370     6.3901   341.3067 </r>
       <r>    11.3067     7.9809   341.8438 </r>
       <r>    11.3763     9.7105   342.4755 </r>
       <r>    11.4459     9.1562   343.1505 </r>
       <r>    11.5156    11.0077   343.8314 </r>
       <r>    11.5852     9.7558   344.5411 </r>
       <r>    11.6548    10.2307   345.2514 </r>
       <r>    11.7245     8.8142   345.9072 </r>
       <r>    11.7941     8.9561   346.5567 </r>
       <r>    11.8637     9.2858   347.1861 </r>
       <r>    11.9334     8.3504   347.7838 </r>
       <r>    12.0030     8.7628   348.3730 </r>
       <r>    12.0726     8.3419   348.9712 </r>
       <r>    12.1423     7.8337   349.5282 </r>
       <r>    12.2119    11.0423   350.1071 </r>
       <r>    12.2815     9.1021   350.8256 </r>
       <r>    12.3512     8.0343   351.4223 </r>
       <r>    12.4208     8.0292   351.9764 </r>
       <r>    12.4904     9.3080   352.5645 </r>
       <r>    12.5601     9.0222   353.2223 </r>
       <r>    12.6297     8.5562   353.8311 </r>
       <r>    12.6993     8.3880   354.4289 </r>
       <r>    12.7690     7.8285   354.9724 </r>
       <r>    12.8386     7.5147   355.5198 </r>
       <r>    12.9082     7.3497   356.0399 </r>
       <r>    12.9779     6.9987   356.5367 </r>
       <r>    13.0475     6.6027   357.0114 </r>
       <r>    13.1171     7.2501   357.4817 </r>
       <r>    13.1868     8.2540   358.0185 </r>
       <r>    13.2564     9.4931   358.6344 </r>
       <r>    13.3260     7.1920   359.2158 </r>
       <r>    13.3957     7.8425   359.7583 </r>
       <r>    13.4653     7.4075   360.2926 </r>
       <r>    13.5349     7.4678   360.8132 </r>
       <r>    13.6046     6.9197   361.3007 </r>
       <r>    13.6742     7.1152   361.7892 </r>
       <r>    13.7438     7.2137   362.2884 </r>
       <r>    13.8135     7.4523   362.7987 </r>
       <r>    13.8831     7.6953   363.3255 </r>
       <r>    13.9527     8.3776   363.8856 </r>
       <r>    14.0224     8.3652   364.4711 </r>
       <r>    14.0920     7.7373   365.0751 </r>
       <r>    14.1616     7.6275   365.6022 </r>
       <r>    14.2313     8.0841   366.1487 </r>
       <r>    14.3009     7.4940   366.6926 </r>
       <r>    14.3705     7.8690   367.2121 </r>
       <r>    14.4402     6.6406   367.6906 </r>
       <r>    14.5098     7.2277   368.1732 </r>
       <r>    14.5794     6.9637   368.6750 </r>
       <r>    14.6491     6.9845   369.1616 </r>
       <r>    14.7187     7.3776   369.6543 </r>
       <r>    14.7883     8.1438   370.1885 </r>
       <r>    14.8580     7.8575   370.7570 </r>
       <r>    14.9276     7.5014   371.2852 </r>
       <r>    14.9972     7.7656   371.8100 </r>
       <r>    15.0669     7.4003   372.3504 </r>
       <r>    15.1365     7.5522   372.8651 </r>
       <r>    15.2061     8.0571   373.4049 </r>
       <r>    15.2758     7.1712   373.9443 </r>
       <r>    15.3454     7.0302   374.4248 </r>
       <r>    15.4150     6.4312   374.9166 </r>
       <r>    15.4847     6.3140   375.3539 </r>
       <r>    15.5543     6.4617   375.8110 </r>
       <r>    15.6239     6.1437   376.2532 </r>
       <r>    15.6936     5.9370   376.6747 </r>
       <r>    15.7632     6.7503   377.1209 </r>
       <r>    15.8328     6.9528   377.5983 </r>
       <r>    15.9025     5.8851   378.0495 </r>
       <r>    15.9721     5.5314   378.4517 </r>
       <r>    16.0417     4.9444   378.7902 </r>
       <r>    16.1114     4.2673   379.1023 </r>
       <r>    16.1810     3.6531   379.3638 </r>
       <r>    16.2506     3.5536   379.6083 </r>
       <r>    16.3203     4.6181   379.8866 </r>
       <r>    16.3899     6.2824   380.2533 </r>
       <r>    16.4595     4.5409   380.6184 </r>
       <r>    16.5291     4.1929   380.9172 </r>
       <r>    16.5988     4.2235   381.2125 </r>
       <r>    16.6684     3.8075   381.4955 </r>
       <r>    16.7380     3.5374   381.7566 </r>
       <r>    16.8077     2.9651   381.9815 </r>
       <r>    16.8773     2.8488   382.1832 </r>
       <r>    16.9469     2.6664   382.3721 </r>
       <r>    17.0166     2.4767   382.5517 </r>
       <r>    17.0862     2.6147   382.7261 </r>
       <r>    17.1558     2.9652   382.9210 </r>
       <r>    17.2255     3.0484   383.1328 </r>
       <r>    17.2951     2.8656   383.3401 </r>
       <r>    17.3647     2.5433   383.5307 </r>
       <r>    17.4344     1.8845   383.6871 </r>
       <r>    17.5040     0.9828   383.7877 </r>
       <r>    17.5736     0.6323   383.8426 </r>
       <r>    17.6433     0.5079   383.8821 </r>
       <r>    17.7129     0.4257   383.9145 </r>
       <r>    17.7825     0.3428   383.9412 </r>
       <r>    17.8522     0.2711   383.9626 </r>
       <r>    17.9218     0.2048   383.9791 </r>
       <r>    17.9914     0.1329   383.9909 </r>
       <r>    18.0611     0.0556   383.9973 </r>
       <r>    18.1307     0.0131   383.9995 </r>
       <r>    18.2003     0.0022   383.9999 </r>
       <r>    18.2700     0.0003   384.0000 </r>
       <r>    18.3396     0.0000   384.0000 </r>
       <r>    18.4092     0.0000   384.0000 </r>
       <r>    18.4789     0.0000   384.0000 </r>
       <r>    18.5485     0.0000   384.0000 </r>
       <r>    18.6181     0.0000   384.0000 </r>
       <r>    18.6878     0.0000   384.0000 </r>
       <r>    18.7574     0.0000   384.0000 </r>
       <r>    18.8270     0.0000   384.0000 </r>
       <r>    18.8967     0.0000   384.0000 </r>
       <r>    18.9663     0.0000   384.0000 </r>
       <r>    19.0359     0.0000   384.0000 </r>
       <r>    19.1056     0.0000   384.0000 </r>
       <r>    19.1752     0.0000   384.0000 </r>
       <r>    19.2448     0.0000   384.0000 </r>
       <r>    19.3145     0.0000   384.0000 </r>
      </set>
     </set>
    </array>
   </total>
  </dos>
 </calculation>
 <structure name="finalpos" >
  <crystal>
   <varray name="basis" >
    <v>       2.74448865      -4.75452058      -0.00041992 </v>
    <v>       5.49058390       0.00092778      -0.00029760 </v>
    <v>      -0.00094944       0.00099935      17.52374767 </v>
   </varray>
   <i name="volume">    457.50370144 </i>
   <varray name="rec_basis" >
    <v>       0.00003554      -0.21030564       0.00001200 </v>
    <v>       0.18211223       0.10512205       0.00000387 </v>
    <v>       0.00000309      -0.00000325       0.05706542 </v>
   </varray>
  </crystal>
  <varray name="positions" >
   <v>       0.33338974       0.83374610       0.06086846 </v>
   <v>       0.33312596       0.83377503       0.31250098 </v>
   <v>       0.33265236       0.83408367       0.56459587 </v>
   <v>       0.83344202       0.83374882       0.56483182 </v>
   <v>       0.83360136       0.33300786       0.31154650 </v>
   <v>       0.83391396       0.33247204       0.56435262 </v>
   <v>       0.83345788       0.33251380       0.81286227 </v>
   <v>       0.16618932       0.16702199       0.18582617 </v>
   <v>       0.66677181       0.16636138       0.43689951 </v>
   <v>       0.16565036       0.66701770       0.18629869 </v>
   <v>       0.16583086       0.66684719       0.43755124 </v>
   <v>       0.16610360       0.66730222       0.93660141 </v>
   <v>       0.33468856       0.33229443       0.06086022 </v>
   <v>       0.33357774       0.33306381       0.31195437 </v>
   <v>       0.33329240       0.33300897       0.56495318 </v>
   <v>       0.33378287       0.33303637       0.81234608 </v>
   <v>       0.66750881       0.66657448       0.18573104 </v>
   <v>       0.66704819       0.66668647       0.43714736 </v>
   <v>       0.66636734       0.66718734       0.68987861 </v>
   <v>       0.66691884       0.66663749       0.93714384 </v>
   <v>       0.33242682       0.83398277       0.81200555 </v>
   <v>       0.83279647       0.83480849       0.06132719 </v>
   <v>       0.83309456       0.83381393       0.31125800 </v>
   <v>       0.83368906       0.83413796       0.81262988 </v>
   <v>       0.83333740       0.33221760       0.06126747 </v>
   <v>       0.16640542       0.16692618       0.43778543 </v>
   <v>       0.16687653       0.16616136       0.68953612 </v>
   <v>       0.16594079       0.16631027       0.93684347 </v>
   <v>       0.66725937       0.16595825       0.18592943 </v>
   <v>       0.66691898       0.16600982       0.68948775 </v>
   <v>       0.66764484       0.16607383       0.93758099 </v>
   <v>       0.16629579       0.66721240       0.68959848 </v>
  </varray>
 </structure>
</modeling>
