       N       E                     dE             d eps       ncg     rms          rms(c)
DAV:   1     0.112829702981E+05    0.11283E+05   -0.55466E+05 95400   0.810E+02
DAV:   2    -0.143842491281E+04   -0.12721E+05   -0.12145E+05 95780   0.337E+02
DAV:   3    -0.241072756122E+04   -0.97230E+03   -0.89410E+03135140   0.780E+01
DAV:   4    -0.248225398753E+04   -0.71526E+02   -0.69091E+02131960   0.209E+01
DAV:   5    -0.248512613656E+04   -0.28721E+01   -0.28157E+01139780   0.333E+00    0.779E+01
RMM:   6    -0.241652213785E+04    0.68604E+02   -0.68099E+02105897   0.245E+01    0.623E+01
RMM:   7    -0.236998781644E+04    0.46534E+02   -0.35224E+02 97764   0.172E+01    0.455E+01
RMM:   8    -0.233995155790E+04    0.30036E+02   -0.15722E+02 97704   0.114E+01    0.322E+01
RMM:   9    -0.231577309004E+04    0.24178E+02   -0.34527E+01 98864   0.532E+00    0.663E+00
RMM:  10    -0.231563093241E+04    0.14216E+00   -0.71995E+00137629   0.145E+00    0.424E+00
RMM:  11    -0.231534377541E+04    0.28716E+00   -0.13643E+00123799   0.720E-01    0.365E+00
RMM:  12    -0.231489331274E+04    0.45046E+00   -0.65576E-01109499   0.821E-01    0.198E+00
RMM:  13    -0.231481598074E+04    0.77332E-01   -0.24783E-01115452   0.397E-01    0.171E+00
RMM:  14    -0.231478008161E+04    0.35899E-01   -0.14265E-01118901   0.251E-01    0.154E+00
RMM:  15    -0.231472745840E+04    0.52623E-01   -0.92166E-02111564   0.246E-01    0.892E-01
RMM:  16    -0.231471596617E+04    0.11492E-01   -0.22457E-02112014   0.119E-01    0.410E-01
RMM:  17    -0.231471491903E+04    0.10471E-02   -0.95595E-03123158   0.615E-02    0.291E-01
RMM:  18    -0.231471416967E+04    0.74936E-03   -0.66947E-03124671   0.542E-02    0.184E-01
RMM:  19    -0.231471441040E+04   -0.24073E-03   -0.32448E-03128830   0.363E-02    0.194E-01
RMM:  20    -0.231471388416E+04    0.52624E-03   -0.51613E-04113441   0.172E-02    0.126E-01
RMM:  21    -0.231471353225E+04    0.35191E-03   -0.68306E-04116624   0.197E-02    0.423E-02
RMM:  22    -0.231471349213E+04    0.40118E-04   -0.27115E-04133466   0.102E-02
   1 F= -.23147135E+04 E0= -.23147212E+04  d E =0.231037E-01
