 256 256   0   0
  0.1419206E+02  0.1537080E-08  0.1537218E-08  0.1537636E-08  0.5000000E-15
  1.000000000000000E-004
  CAR 
 Ir_Ru                                   
     12.68285237     -1.29503566  301      9.24209681      1.00000000
     -1.295  0.0000E+00  0.0000E+00
     -1.248  0.0000E+00  0.0000E+00
     -1.202  0.0000E+00  0.0000E+00
     -1.155  0.0000E+00  0.0000E+00
     -1.109 -0.2738E-28 -0.1276E-29
     -1.062 -0.4082E-25 -0.1903E-26
     -1.015 -0.3925E-22 -0.1831E-23
     -0.969 -0.2437E-19 -0.1137E-20
     -0.922 -0.9758E-17 -0.4558E-18
     -0.876 -0.2447E-14 -0.1145E-15
     -0.829 -0.4058E-12 -0.1902E-13
     -0.783 -0.4334E-10 -0.2038E-11
     -0.736 -0.2983E-08 -0.1410E-09
     -0.689 -0.1324E-06 -0.6308E-08
     -0.643 -0.3794E-05 -0.1831E-06
     -0.596 -0.7043E-04 -0.3465E-05
     -0.550 -0.8490E-03 -0.4302E-04
     -0.503 -0.6650E-02 -0.3529E-03
     -0.456 -0.3344E-01 -0.1911E-02
     -0.410 -0.1018E+00 -0.6654E-02
     -0.363 -0.1379E+00 -0.1308E-01
     -0.317  0.2216E+00 -0.2757E-02
     -0.270  0.1503E+01  0.6729E-01
     -0.223  0.3532E+01  0.2319E+00
     -0.177  0.5067E+01  0.4680E+00
     -0.130  0.5730E+01  0.7349E+00
     -0.084  0.7317E+01  0.1076E+01
     -0.037  0.1019E+02  0.1550E+01
      0.010  0.1103E+02  0.2064E+01
      0.056  0.9159E+01  0.2491E+01
      0.103  0.9372E+01  0.2928E+01
      0.149  0.1313E+02  0.3539E+01
      0.196  0.1591E+02  0.4281E+01
      0.243  0.1605E+02  0.5028E+01
      0.289  0.1672E+02  0.5808E+01
      0.336  0.1848E+02  0.6669E+01
      0.382  0.1834E+02  0.7523E+01
      0.429  0.1742E+02  0.8335E+01
      0.475  0.1976E+02  0.9256E+01
      0.522  0.2333E+02  0.1034E+02
      0.569  0.2405E+02  0.1146E+02
      0.615  0.2230E+02  0.1250E+02
      0.662  0.1877E+02  0.1338E+02
      0.708  0.1413E+02  0.1404E+02
      0.755  0.1117E+02  0.1456E+02
      0.802  0.1073E+02  0.1506E+02
      0.848  0.1116E+02  0.1558E+02
      0.895  0.1219E+02  0.1614E+02
      0.941  0.1467E+02  0.1683E+02
      0.988  0.1832E+02  0.1768E+02
      1.035  0.2284E+02  0.1874E+02
      1.081  0.2804E+02  0.2005E+02
      1.128  0.3123E+02  0.2151E+02
      1.174  0.2975E+02  0.2289E+02
      1.221  0.2593E+02  0.2410E+02
      1.268  0.2308E+02  0.2518E+02
      1.314  0.2095E+02  0.2615E+02
      1.361  0.1997E+02  0.2708E+02
      1.407  0.2153E+02  0.2808E+02
      1.454  0.2402E+02  0.2920E+02
      1.501  0.2567E+02  0.3040E+02
      1.547  0.2895E+02  0.3175E+02
      1.594  0.3502E+02  0.3338E+02
      1.640  0.3869E+02  0.3518E+02
      1.687  0.3787E+02  0.3695E+02
      1.734  0.3923E+02  0.3878E+02
      1.780  0.4543E+02  0.4089E+02
      1.827  0.4931E+02  0.4319E+02
      1.873  0.4783E+02  0.4542E+02
      1.920  0.4726E+02  0.4762E+02
      1.966  0.5087E+02  0.4999E+02
      2.013  0.5413E+02  0.5251E+02
      2.060  0.5545E+02  0.5510E+02
      2.106  0.6113E+02  0.5794E+02
      2.153  0.7419E+02  0.6140E+02
      2.199  0.8908E+02  0.6555E+02
      2.246  0.1029E+03  0.7034E+02
      2.293  0.1176E+03  0.7582E+02
      2.339  0.1309E+03  0.8192E+02
      2.386  0.1382E+03  0.8836E+02
      2.432  0.1431E+03  0.9503E+02
      2.479  0.1521E+03  0.1021E+03
      2.526  0.1609E+03  0.1096E+03
      2.572  0.1617E+03  0.1171E+03
      2.619  0.1613E+03  0.1247E+03
      2.665  0.1688E+03  0.1325E+03
      2.712  0.1784E+03  0.1408E+03
      2.759  0.1847E+03  0.1494E+03
      2.805  0.1976E+03  0.1587E+03
      2.852  0.2226E+03  0.1690E+03
      2.898  0.2473E+03  0.1805E+03
      2.945  0.2563E+03  0.1925E+03
      2.992  0.2498E+03  0.2041E+03
      3.038  0.2467E+03  0.2156E+03
      3.085  0.2617E+03  0.2278E+03
      3.131  0.2861E+03  0.2411E+03
      3.178  0.3011E+03  0.2552E+03
      3.224  0.3038E+03  0.2693E+03
      3.271  0.3051E+03  0.2835E+03
      3.318  0.3085E+03  0.2979E+03
      3.364  0.3112E+03  0.3124E+03
      3.411  0.3143E+03  0.3271E+03
      3.457  0.3214E+03  0.3420E+03
      3.504  0.3330E+03  0.3575E+03
      3.551  0.3439E+03  0.3736E+03
      3.597  0.3470E+03  0.3897E+03
      3.644  0.3450E+03  0.4058E+03
      3.690  0.3485E+03  0.4221E+03
      3.737  0.3574E+03  0.4387E+03
      3.784  0.3592E+03  0.4554E+03
      3.830  0.3523E+03  0.4719E+03
      3.877  0.3477E+03  0.4881E+03
      3.923  0.3494E+03  0.5043E+03
      3.970  0.3505E+03  0.5207E+03
      4.017  0.3417E+03  0.5366E+03
      4.063  0.3233E+03  0.5517E+03
      4.110  0.3071E+03  0.5660E+03
      4.156  0.2978E+03  0.5798E+03
      4.203  0.2877E+03  0.5932E+03
      4.250  0.2717E+03  0.6059E+03
      4.296  0.2540E+03  0.6177E+03
      4.343  0.2428E+03  0.6290E+03
      4.389  0.2450E+03  0.6405E+03
      4.436  0.2575E+03  0.6525E+03
      4.482  0.2620E+03  0.6647E+03
      4.529  0.2511E+03  0.6764E+03
      4.576  0.2475E+03  0.6879E+03
      4.622  0.2666E+03  0.7003E+03
      4.669  0.2915E+03  0.7139E+03
      4.715  0.3066E+03  0.7282E+03
      4.762  0.3136E+03  0.7428E+03
      4.809  0.3134E+03  0.7574E+03
      4.855  0.3050E+03  0.7716E+03
      4.902  0.2905E+03  0.7852E+03
      4.948  0.2787E+03  0.7981E+03
      4.995  0.2810E+03  0.8112E+03
      5.042  0.2948E+03  0.8250E+03
      5.088  0.3075E+03  0.8393E+03
      5.135  0.3093E+03  0.8537E+03
      5.181  0.2980E+03  0.8676E+03
      5.228  0.2859E+03  0.8809E+03
      5.275  0.2845E+03  0.8942E+03
      5.321  0.2903E+03  0.9077E+03
      5.368  0.2971E+03  0.9215E+03
      5.414  0.3017E+03  0.9356E+03
      5.461  0.2988E+03  0.9495E+03
      5.508  0.2889E+03  0.9630E+03
      5.554  0.2865E+03  0.9763E+03
      5.601  0.3021E+03  0.9904E+03
      5.647  0.3212E+03  0.1005E+04
      5.694  0.3254E+03  0.1021E+04
      5.741  0.3204E+03  0.1035E+04
      5.787  0.3199E+03  0.1050E+04
      5.834  0.3260E+03  0.1066E+04
      5.880  0.3363E+03  0.1081E+04
      5.927  0.3497E+03  0.1098E+04
      5.973  0.3649E+03  0.1115E+04
      6.020  0.3787E+03  0.1132E+04
      6.067  0.3855E+03  0.1150E+04
      6.113  0.3874E+03  0.1168E+04
      6.160  0.3913E+03  0.1186E+04
      6.206  0.3982E+03  0.1205E+04
      6.253  0.4091E+03  0.1224E+04
      6.300  0.4266E+03  0.1244E+04
      6.346  0.4459E+03  0.1265E+04
      6.393  0.4570E+03  0.1286E+04
      6.439  0.4573E+03  0.1307E+04
      6.486  0.4534E+03  0.1328E+04
      6.533  0.4502E+03  0.1349E+04
      6.579  0.4457E+03  0.1370E+04
      6.626  0.4393E+03  0.1391E+04
      6.672  0.4320E+03  0.1411E+04
      6.719  0.4250E+03  0.1431E+04
      6.766  0.4174E+03  0.1450E+04
      6.812  0.4023E+03  0.1469E+04
      6.859  0.3776E+03  0.1486E+04
      6.905  0.3548E+03  0.1503E+04
      6.952  0.3443E+03  0.1519E+04
      6.999  0.3393E+03  0.1535E+04
      7.045  0.3281E+03  0.1550E+04
      7.092  0.3151E+03  0.1565E+04
      7.138  0.3133E+03  0.1579E+04
      7.185  0.3193E+03  0.1594E+04
      7.231  0.3140E+03  0.1609E+04
      7.278  0.2886E+03  0.1622E+04
      7.325  0.2568E+03  0.1634E+04
      7.371  0.2404E+03  0.1645E+04
      7.418  0.2481E+03  0.1657E+04
      7.464  0.2705E+03  0.1670E+04
      7.511  0.2844E+03  0.1683E+04
      7.558  0.2769E+03  0.1696E+04
      7.604  0.2590E+03  0.1708E+04
      7.651  0.2484E+03  0.1719E+04
      7.697  0.2566E+03  0.1731E+04
      7.744  0.2820E+03  0.1744E+04
      7.791  0.3050E+03  0.1759E+04
      7.837  0.3120E+03  0.1773E+04
      7.884  0.3089E+03  0.1788E+04
      7.930  0.3032E+03  0.1802E+04
      7.977  0.2963E+03  0.1816E+04
      8.024  0.2911E+03  0.1829E+04
      8.070  0.2954E+03  0.1843E+04
      8.117  0.3088E+03  0.1857E+04
      8.163  0.3170E+03  0.1872E+04
      8.210  0.3175E+03  0.1887E+04
      8.257  0.3290E+03  0.1902E+04
      8.303  0.3529E+03  0.1919E+04
      8.350  0.3626E+03  0.1935E+04
      8.396  0.3411E+03  0.1951E+04
      8.443  0.3015E+03  0.1965E+04
      8.489  0.2679E+03  0.1978E+04
      8.536  0.2556E+03  0.1990E+04
      8.583  0.2699E+03  0.2002E+04
      8.629  0.2948E+03  0.2016E+04
      8.676  0.3005E+03  0.2030E+04
      8.722  0.2848E+03  0.2043E+04
      8.769  0.2681E+03  0.2056E+04
      8.816  0.2573E+03  0.2068E+04
      8.862  0.2493E+03  0.2079E+04
      8.909  0.2451E+03  0.2091E+04
      8.955  0.2452E+03  0.2102E+04
      9.002  0.2529E+03  0.2114E+04
      9.049  0.2726E+03  0.2127E+04
      9.095  0.2842E+03  0.2140E+04
      9.142  0.2671E+03  0.2152E+04
      9.188  0.2416E+03  0.2164E+04
      9.235  0.2286E+03  0.2174E+04
      9.282  0.2203E+03  0.2185E+04
      9.328  0.2138E+03  0.2195E+04
      9.375  0.2212E+03  0.2205E+04
      9.421  0.2416E+03  0.2216E+04
      9.468  0.2617E+03  0.2228E+04
      9.515  0.2733E+03  0.2241E+04
      9.561  0.2772E+03  0.2254E+04
      9.608  0.2763E+03  0.2267E+04
      9.654  0.2712E+03  0.2280E+04
      9.701  0.2615E+03  0.2292E+04
      9.747  0.2447E+03  0.2303E+04
      9.794  0.2249E+03  0.2314E+04
      9.841  0.2192E+03  0.2324E+04
      9.887  0.2355E+03  0.2335E+04
      9.934  0.2629E+03  0.2347E+04
      9.980  0.2938E+03  0.2361E+04
     10.027  0.3261E+03  0.2376E+04
     10.074  0.3487E+03  0.2392E+04
     10.120  0.3471E+03  0.2408E+04
     10.167  0.3249E+03  0.2423E+04
     10.213  0.3102E+03  0.2438E+04
     10.260  0.3275E+03  0.2453E+04
     10.307  0.3839E+03  0.2471E+04
     10.353  0.4631E+03  0.2493E+04
     10.400  0.5175E+03  0.2517E+04
     10.446  0.5109E+03  0.2541E+04
     10.493  0.4538E+03  0.2562E+04
     10.540  0.3775E+03  0.2579E+04
     10.586  0.3049E+03  0.2594E+04
     10.633  0.2499E+03  0.2605E+04
     10.679  0.2136E+03  0.2615E+04
     10.726  0.1825E+03  0.2624E+04
     10.773  0.1442E+03  0.2630E+04
     10.819  0.9931E+02  0.2635E+04
     10.866  0.5773E+02  0.2638E+04
     10.912  0.2794E+02  0.2639E+04
     10.959  0.1090E+02  0.2639E+04
     11.006  0.3321E+01  0.2640E+04
     11.052  0.1507E+01  0.2640E+04
     11.099  0.1836E+01  0.2640E+04
     11.145  0.1689E+01  0.2640E+04
     11.192  0.7452E+00  0.2640E+04
     11.238  0.2812E-01  0.2640E+04
     11.285 -0.1182E+00  0.2640E+04
     11.332 -0.5470E-01  0.2640E+04
     11.378 -0.1219E-01  0.2640E+04
     11.425 -0.3565E-02  0.2640E+04
     11.471 -0.1294E-01  0.2640E+04
     11.518 -0.4203E-01  0.2640E+04
     11.565 -0.3678E-01  0.2640E+04
     11.611  0.1953E+00  0.2640E+04
     11.658  0.7102E+00  0.2640E+04
     11.704  0.1026E+01  0.2640E+04
     11.751  0.7284E+00  0.2640E+04
     11.798  0.2094E+00  0.2640E+04
     11.844 -0.3392E-01  0.2640E+04
     11.891 -0.4313E-01  0.2640E+04
     11.937 -0.1352E-01  0.2640E+04
     11.984 -0.2204E-02  0.2640E+04
     12.031 -0.2108E-03  0.2640E+04
     12.077 -0.1234E-04  0.2640E+04
     12.124 -0.4515E-06  0.2640E+04
     12.170 -0.1044E-07  0.2640E+04
     12.217 -0.1537E-09  0.2640E+04
     12.264 -0.1446E-11  0.2640E+04
     12.310 -0.8638E-14  0.2640E+04
     12.357  0.0000E+00  0.2640E+04
     12.403  0.0000E+00  0.2640E+04
     12.450  0.0000E+00  0.2640E+04
     12.496  0.0000E+00  0.2640E+04
     12.543  0.0000E+00  0.2640E+04
     12.590  0.0000E+00  0.2640E+04
     12.636  0.0000E+00  0.2640E+04
     12.683  0.0000E+00  0.2640E+04
