 256 256   0   0
  0.1419206E+02  0.1537080E-08  0.1537218E-08  0.1537636E-08  0.5000000E-15
  1.000000000000000E-004
  CAR 
 Ir_Ru                                   
     12.68474424     -1.29531200  301      9.24214469      1.00000000
     -1.295  0.0000E+00  0.0000E+00
     -1.249  0.0000E+00  0.0000E+00
     -1.202  0.0000E+00  0.0000E+00
     -1.156  0.0000E+00  0.0000E+00
     -1.109 -0.2751E-28 -0.1282E-29
     -1.062 -0.4104E-25 -0.1914E-26
     -1.016 -0.3949E-22 -0.1842E-23
     -0.969 -0.2453E-19 -0.1145E-20
     -0.923 -0.9827E-17 -0.4591E-18
     -0.876 -0.2465E-14 -0.1153E-15
     -0.829 -0.4088E-12 -0.1917E-13
     -0.783 -0.4366E-10 -0.2054E-11
     -0.736 -0.3005E-08 -0.1421E-09
     -0.690 -0.1333E-06 -0.6354E-08
     -0.643 -0.3820E-05 -0.1844E-06
     -0.596 -0.7087E-04 -0.3487E-05
     -0.550 -0.8539E-03 -0.4328E-04
     -0.503 -0.6683E-02 -0.3547E-03
     -0.457 -0.3357E-01 -0.1919E-02
     -0.410 -0.1021E+00 -0.6676E-02
     -0.363 -0.1378E+00 -0.1310E-01
     -0.317  0.2241E+00 -0.2654E-02
     -0.270  0.1510E+01  0.6770E-01
     -0.224  0.3540E+01  0.2327E+00
     -0.177  0.5072E+01  0.4690E+00
     -0.130  0.5735E+01  0.7362E+00
     -0.084  0.7330E+01  0.1078E+01
     -0.037  0.1020E+02  0.1553E+01
      0.009  0.1102E+02  0.2067E+01
      0.056  0.9155E+01  0.2493E+01
      0.103  0.9394E+01  0.2931E+01
      0.149  0.1316E+02  0.3544E+01
      0.196  0.1592E+02  0.4286E+01
      0.242  0.1606E+02  0.5034E+01
      0.289  0.1675E+02  0.5815E+01
      0.336  0.1850E+02  0.6677E+01
      0.382  0.1833E+02  0.7531E+01
      0.429  0.1743E+02  0.8343E+01
      0.475  0.1981E+02  0.9266E+01
      0.522  0.2337E+02  0.1036E+02
      0.569  0.2405E+02  0.1148E+02
      0.615  0.2228E+02  0.1251E+02
      0.662  0.1873E+02  0.1339E+02
      0.708  0.1407E+02  0.1404E+02
      0.755  0.1113E+02  0.1456E+02
      0.802  0.1070E+02  0.1506E+02
      0.848  0.1111E+02  0.1558E+02
      0.895  0.1211E+02  0.1614E+02
      0.941  0.1459E+02  0.1682E+02
      0.988  0.1830E+02  0.1768E+02
      1.035  0.2285E+02  0.1874E+02
      1.081  0.2804E+02  0.2005E+02
      1.128  0.3124E+02  0.2150E+02
      1.174  0.2978E+02  0.2289E+02
      1.221  0.2597E+02  0.2410E+02
      1.268  0.2311E+02  0.2518E+02
      1.314  0.2098E+02  0.2616E+02
      1.361  0.2000E+02  0.2709E+02
      1.407  0.2155E+02  0.2809E+02
      1.454  0.2401E+02  0.2921E+02
      1.501  0.2562E+02  0.3040E+02
      1.547  0.2893E+02  0.3175E+02
      1.594  0.3508E+02  0.3339E+02
      1.640  0.3877E+02  0.3519E+02
      1.687  0.3789E+02  0.3696E+02
      1.734  0.3922E+02  0.3879E+02
      1.780  0.4543E+02  0.4090E+02
      1.827  0.4931E+02  0.4320E+02
      1.874  0.4785E+02  0.4543E+02
      1.920  0.4728E+02  0.4763E+02
      1.967  0.5083E+02  0.5000E+02
      2.013  0.5407E+02  0.5252E+02
      2.060  0.5552E+02  0.5511E+02
      2.107  0.6146E+02  0.5797E+02
      2.153  0.7462E+02  0.6145E+02
      2.200  0.8937E+02  0.6562E+02
      2.246  0.1030E+03  0.7042E+02
      2.293  0.1176E+03  0.7590E+02
      2.340  0.1309E+03  0.8200E+02
      2.386  0.1382E+03  0.8844E+02
      2.433  0.1432E+03  0.9511E+02
      2.479  0.1522E+03  0.1022E+03
      2.526  0.1610E+03  0.1097E+03
      2.573  0.1617E+03  0.1172E+03
      2.619  0.1613E+03  0.1248E+03
      2.666  0.1689E+03  0.1326E+03
      2.712  0.1784E+03  0.1409E+03
      2.759  0.1847E+03  0.1495E+03
      2.806  0.1976E+03  0.1588E+03
      2.852  0.2229E+03  0.1691E+03
      2.899  0.2477E+03  0.1807E+03
      2.945  0.2564E+03  0.1926E+03
      2.992  0.2496E+03  0.2043E+03
      3.039  0.2465E+03  0.2157E+03
      3.085  0.2618E+03  0.2279E+03
      3.132  0.2863E+03  0.2413E+03
      3.178  0.3012E+03  0.2553E+03
      3.225  0.3039E+03  0.2695E+03
      3.272  0.3051E+03  0.2837E+03
      3.318  0.3084E+03  0.2981E+03
      3.365  0.3109E+03  0.3126E+03
      3.411  0.3140E+03  0.3272E+03
      3.458  0.3212E+03  0.3422E+03
      3.505  0.3330E+03  0.3577E+03
      3.551  0.3439E+03  0.3737E+03
      3.598  0.3469E+03  0.3899E+03
      3.644  0.3449E+03  0.4059E+03
      3.691  0.3487E+03  0.4222E+03
      3.738  0.3577E+03  0.4389E+03
      3.784  0.3595E+03  0.4556E+03
      3.831  0.3524E+03  0.4720E+03
      3.877  0.3478E+03  0.4882E+03
      3.924  0.3496E+03  0.5045E+03
      3.971  0.3505E+03  0.5209E+03
      4.017  0.3416E+03  0.5368E+03
      4.064  0.3231E+03  0.5518E+03
      4.110  0.3070E+03  0.5661E+03
      4.157  0.2977E+03  0.5800E+03
      4.204  0.2875E+03  0.5934E+03
      4.250  0.2715E+03  0.6061E+03
      4.297  0.2540E+03  0.6179E+03
      4.343  0.2429E+03  0.6292E+03
      4.390  0.2452E+03  0.6407E+03
      4.437  0.2577E+03  0.6527E+03
      4.483  0.2618E+03  0.6649E+03
      4.530  0.2508E+03  0.6765E+03
      4.576  0.2477E+03  0.6881E+03
      4.623  0.2670E+03  0.7005E+03
      4.670  0.2916E+03  0.7141E+03
      4.716  0.3064E+03  0.7284E+03
      4.763  0.3134E+03  0.7430E+03
      4.809  0.3135E+03  0.7576E+03
      4.856  0.3050E+03  0.7718E+03
      4.903  0.2902E+03  0.7853E+03
      4.949  0.2784E+03  0.7983E+03
      4.996  0.2810E+03  0.8114E+03
      5.042  0.2949E+03  0.8252E+03
      5.089  0.3076E+03  0.8395E+03
      5.136  0.3091E+03  0.8539E+03
      5.182  0.2977E+03  0.8678E+03
      5.229  0.2856E+03  0.8811E+03
      5.275  0.2844E+03  0.8943E+03
      5.322  0.2904E+03  0.9079E+03
      5.369  0.2974E+03  0.9217E+03
      5.415  0.3019E+03  0.9358E+03
      5.462  0.2988E+03  0.9497E+03
      5.508  0.2889E+03  0.9632E+03
      5.555  0.2868E+03  0.9766E+03
      5.602  0.3027E+03  0.9907E+03
      5.648  0.3215E+03  0.1006E+04
      5.695  0.3254E+03  0.1021E+04
      5.741  0.3203E+03  0.1036E+04
      5.788  0.3199E+03  0.1051E+04
      5.835  0.3261E+03  0.1066E+04
      5.881  0.3365E+03  0.1082E+04
      5.928  0.3498E+03  0.1098E+04
      5.974  0.3652E+03  0.1115E+04
      6.021  0.3789E+03  0.1132E+04
      6.068  0.3856E+03  0.1150E+04
      6.114  0.3876E+03  0.1169E+04
      6.161  0.3917E+03  0.1187E+04
      6.207  0.3985E+03  0.1205E+04
      6.254  0.4094E+03  0.1224E+04
      6.301  0.4270E+03  0.1244E+04
      6.347  0.4464E+03  0.1265E+04
      6.394  0.4573E+03  0.1286E+04
      6.440  0.4572E+03  0.1308E+04
      6.487  0.4532E+03  0.1329E+04
      6.534  0.4500E+03  0.1350E+04
      6.580  0.4456E+03  0.1371E+04
      6.627  0.4392E+03  0.1391E+04
      6.673  0.4318E+03  0.1411E+04
      6.720  0.4247E+03  0.1431E+04
      6.767  0.4169E+03  0.1450E+04
      6.813  0.4017E+03  0.1469E+04
      6.860  0.3770E+03  0.1487E+04
      6.906  0.3545E+03  0.1503E+04
      6.953  0.3443E+03  0.1519E+04
      7.000  0.3393E+03  0.1535E+04
      7.046  0.3278E+03  0.1550E+04
      7.093  0.3148E+03  0.1565E+04
      7.139  0.3134E+03  0.1580E+04
      7.186  0.3193E+03  0.1594E+04
      7.233  0.3135E+03  0.1609E+04
      7.279  0.2878E+03  0.1623E+04
      7.326  0.2562E+03  0.1634E+04
      7.372  0.2403E+03  0.1646E+04
      7.419  0.2486E+03  0.1657E+04
      7.466  0.2710E+03  0.1670E+04
      7.512  0.2846E+03  0.1683E+04
      7.559  0.2766E+03  0.1696E+04
      7.605  0.2586E+03  0.1708E+04
      7.652  0.2482E+03  0.1720E+04
      7.699  0.2570E+03  0.1732E+04
      7.745  0.2826E+03  0.1745E+04
      7.792  0.3052E+03  0.1759E+04
      7.838  0.3120E+03  0.1774E+04
      7.885  0.3089E+03  0.1788E+04
      7.932  0.3033E+03  0.1802E+04
      7.978  0.2961E+03  0.1816E+04
      8.025  0.2909E+03  0.1829E+04
      8.071  0.2955E+03  0.1843E+04
      8.118  0.3090E+03  0.1858E+04
      8.165  0.3171E+03  0.1872E+04
      8.211  0.3178E+03  0.1887E+04
      8.258  0.3297E+03  0.1903E+04
      8.304  0.3535E+03  0.1919E+04
      8.351  0.3625E+03  0.1936E+04
      8.398  0.3401E+03  0.1952E+04
      8.444  0.3002E+03  0.1966E+04
      8.491  0.2671E+03  0.1978E+04
      8.537  0.2557E+03  0.1990E+04
      8.584  0.2707E+03  0.2003E+04
      8.631  0.2954E+03  0.2017E+04
      8.677  0.3004E+03  0.2031E+04
      8.724  0.2844E+03  0.2044E+04
      8.770  0.2677E+03  0.2056E+04
      8.817  0.2569E+03  0.2068E+04
      8.864  0.2489E+03  0.2080E+04
      8.910  0.2450E+03  0.2091E+04
      8.957  0.2452E+03  0.2103E+04
      9.003  0.2533E+03  0.2114E+04
      9.050  0.2732E+03  0.2127E+04
      9.097  0.2841E+03  0.2140E+04
      9.143  0.2664E+03  0.2153E+04
      9.190  0.2410E+03  0.2164E+04
      9.236  0.2283E+03  0.2175E+04
      9.283  0.2200E+03  0.2185E+04
      9.330  0.2138E+03  0.2195E+04
      9.376  0.2217E+03  0.2205E+04
      9.423  0.2422E+03  0.2217E+04
      9.469  0.2621E+03  0.2229E+04
      9.516  0.2735E+03  0.2241E+04
      9.563  0.2772E+03  0.2254E+04
      9.609  0.2762E+03  0.2267E+04
      9.656  0.2710E+03  0.2280E+04
      9.702  0.2612E+03  0.2292E+04
      9.749  0.2442E+03  0.2303E+04
      9.796  0.2245E+03  0.2314E+04
      9.842  0.2193E+03  0.2324E+04
      9.889  0.2362E+03  0.2335E+04
      9.935  0.2639E+03  0.2347E+04
      9.982  0.2950E+03  0.2361E+04
     10.029  0.3271E+03  0.2376E+04
     10.075  0.3490E+03  0.2393E+04
     10.122  0.3465E+03  0.2409E+04
     10.168  0.3242E+03  0.2424E+04
     10.215  0.3103E+03  0.2438E+04
     10.262  0.3288E+03  0.2454E+04
     10.308  0.3864E+03  0.2472E+04
     10.355  0.4657E+03  0.2493E+04
     10.401  0.5183E+03  0.2518E+04
     10.448  0.5094E+03  0.2541E+04
     10.495  0.4510E+03  0.2562E+04
     10.541  0.3745E+03  0.2580E+04
     10.588  0.3026E+03  0.2594E+04
     10.634  0.2486E+03  0.2605E+04
     10.681  0.2127E+03  0.2615E+04
     10.728  0.1811E+03  0.2624E+04
     10.774  0.1424E+03  0.2630E+04
     10.821  0.9779E+02  0.2635E+04
     10.867  0.5698E+02  0.2638E+04
     10.914  0.2765E+02  0.2639E+04
     10.961  0.1073E+02  0.2639E+04
     11.007  0.3254E+01  0.2640E+04
     11.054  0.1453E+01  0.2640E+04
     11.100  0.1714E+01  0.2640E+04
     11.147  0.1558E+01  0.2640E+04
     11.194  0.6738E+00  0.2640E+04
     11.240  0.1444E-01  0.2640E+04
     11.287 -0.1121E+00  0.2640E+04
     11.333 -0.5020E-01  0.2640E+04
     11.380 -0.1097E-01  0.2640E+04
     11.427 -0.3460E-02  0.2640E+04
     11.473 -0.1327E-01  0.2640E+04
     11.520 -0.4256E-01  0.2640E+04
     11.566 -0.3523E-01  0.2640E+04
     11.613  0.2026E+00  0.2640E+04
     11.660  0.7193E+00  0.2640E+04
     11.706  0.1026E+01  0.2640E+04
     11.753  0.7189E+00  0.2640E+04
     11.799  0.2022E+00  0.2640E+04
     11.846 -0.3530E-01  0.2640E+04
     11.893 -0.4253E-01  0.2640E+04
     11.939 -0.1316E-01  0.2640E+04
     11.986 -0.2126E-02  0.2640E+04
     12.032 -0.2016E-03  0.2640E+04
     12.079 -0.1171E-04  0.2640E+04
     12.126 -0.4255E-06  0.2640E+04
     12.172 -0.9772E-08  0.2640E+04
     12.219 -0.1428E-09  0.2640E+04
     12.265 -0.1335E-11  0.2640E+04
     12.312 -0.8041E-14  0.2640E+04
     12.359  0.0000E+00  0.2640E+04
     12.405  0.0000E+00  0.2640E+04
     12.452  0.0000E+00  0.2640E+04
     12.498  0.0000E+00  0.2640E+04
     12.545  0.0000E+00  0.2640E+04
     12.592  0.0000E+00  0.2640E+04
     12.638  0.0000E+00  0.2640E+04
     12.685  0.0000E+00  0.2640E+04
