       N       E                     dE             d eps       ncg     rms          rms(c)
DAV:   1     0.112830138398E+05    0.11283E+05   -0.55466E+05 95400   0.810E+02
DAV:   2    -0.143991523148E+04   -0.12723E+05   -0.12145E+05 95840   0.337E+02
DAV:   3    -0.241106988445E+04   -0.97115E+03   -0.89342E+03135240   0.780E+01
DAV:   4    -0.248225693038E+04   -0.71187E+02   -0.68763E+02131860   0.209E+01
DAV:   5    -0.248511871008E+04   -0.28618E+01   -0.28059E+01140240   0.333E+00    0.779E+01
RMM:   6    -0.241641790198E+04    0.68701E+02   -0.68051E+02105889   0.245E+01    0.622E+01
RMM:   7    -0.236998861436E+04    0.46429E+02   -0.35218E+02 97766   0.172E+01    0.455E+01
RMM:   8    -0.233986751257E+04    0.30121E+02   -0.15696E+02 97683   0.114E+01    0.321E+01
RMM:   9    -0.231568764339E+04    0.24180E+02   -0.34481E+01 98788   0.531E+00    0.637E+00
RMM:  10    -0.231554177499E+04    0.14587E+00   -0.72870E+00137114   0.149E+00    0.394E+00
RMM:  11    -0.231536189950E+04    0.17988E+00   -0.13340E+00124007   0.692E-01    0.386E+00
RMM:  12    -0.231488873384E+04    0.47317E+00   -0.62707E-01110579   0.774E-01    0.195E+00
RMM:  13    -0.231477716724E+04    0.11157E+00   -0.25190E-01112470   0.438E-01    0.130E+00
RMM:  14    -0.231473983174E+04    0.37336E-01   -0.14802E-01111730   0.324E-01    0.117E+00
RMM:  15    -0.231472077903E+04    0.19053E-01   -0.42240E-02115036   0.157E-01    0.621E-01
RMM:  16    -0.231471698180E+04    0.37972E-02   -0.12605E-02131049   0.586E-02    0.434E-01
RMM:  17    -0.231471419730E+04    0.27845E-02   -0.10676E-02117481   0.762E-02    0.193E-01
RMM:  18    -0.231471490990E+04   -0.71259E-03   -0.84223E-03129014   0.597E-02    0.213E-01
RMM:  19    -0.231471469695E+04    0.21295E-03   -0.13112E-03131958   0.197E-02    0.190E-01
RMM:  20    -0.231471421440E+04    0.48255E-03   -0.39483E-04116559   0.143E-02    0.126E-01
RMM:  21    -0.231471386827E+04    0.34613E-03   -0.79079E-04117996   0.206E-02    0.370E-02
RMM:  22    -0.231471384128E+04    0.26989E-04   -0.24057E-04136939   0.906E-03
   1 F= -.23147138E+04 E0= -.23147215E+04  d E =0.229397E-01
