 256 256   0   0
  0.1418917E+02  0.1588033E-08  0.1692661E-08  0.1693229E-08  0.5000000E-15
  1.000000000000000E-004
  CAR 
 Ir_Ru                                   
     14.24859165     -1.29177385  301      9.45689388      1.00000000
     -1.292  0.0000E+00  0.0000E+00
     -1.240  0.0000E+00  0.0000E+00
     -1.188  0.0000E+00  0.0000E+00
     -1.136 -0.2675E-30 -0.1386E-31
     -1.085 -0.1212E-26 -0.6278E-28
     -1.033 -0.3196E-23 -0.1656E-24
     -0.981 -0.4905E-20 -0.2542E-21
     -0.929 -0.4375E-17 -0.2269E-18
     -0.877 -0.2208E-14 -0.1146E-15
     -0.826 -0.6580E-12 -0.3420E-13
     -0.774 -0.1136E-09 -0.5921E-11
     -0.722 -0.1131E-07 -0.5920E-09
     -0.670 -0.6466E-06 -0.3409E-07
     -0.618 -0.2110E-04 -0.1127E-05
     -0.567 -0.3902E-03 -0.2134E-04
     -0.515 -0.4051E-02 -0.2312E-03
     -0.463 -0.2337E-01 -0.1442E-02
     -0.411 -0.7345E-01 -0.5246E-02
     -0.359 -0.1034E+00 -0.1060E-01
     -0.308  0.1836E+00 -0.1094E-02
     -0.256  0.1564E+01  0.7994E-01
     -0.204  0.4298E+01  0.3026E+00
     -0.152  0.6323E+01  0.6301E+00
     -0.100  0.6428E+01  0.9631E+00
     -0.049  0.6908E+01  0.1321E+01
      0.003  0.8765E+01  0.1775E+01
      0.055  0.1107E+02  0.2349E+01
      0.107  0.1351E+02  0.3048E+01
      0.159  0.1439E+02  0.3794E+01
      0.210  0.1187E+02  0.4409E+01
      0.262  0.1002E+02  0.4928E+01
      0.314  0.1391E+02  0.5648E+01
      0.366  0.2008E+02  0.6689E+01
      0.418  0.2251E+02  0.7854E+01
      0.469  0.2269E+02  0.9030E+01
      0.521  0.2349E+02  0.1025E+02
      0.573  0.2265E+02  0.1142E+02
      0.625  0.2051E+02  0.1248E+02
      0.677  0.2092E+02  0.1357E+02
      0.728  0.2058E+02  0.1463E+02
      0.780  0.1506E+02  0.1541E+02
      0.832  0.9139E+01  0.1589E+02
      0.884  0.7919E+01  0.1630E+02
      0.936  0.1132E+02  0.1688E+02
      0.987  0.1830E+02  0.1783E+02
      1.039  0.2723E+02  0.1924E+02
      1.091  0.3310E+02  0.2096E+02
      1.143  0.3322E+02  0.2268E+02
      1.195  0.2929E+02  0.2419E+02
      1.246  0.2334E+02  0.2540E+02
      1.298  0.1954E+02  0.2642E+02
      1.350  0.2123E+02  0.2751E+02
      1.402  0.2667E+02  0.2890E+02
      1.454  0.3028E+02  0.3046E+02
      1.505  0.2999E+02  0.3202E+02
      1.557  0.2930E+02  0.3354E+02
      1.609  0.3026E+02  0.3510E+02
      1.661  0.3104E+02  0.3671E+02
      1.713  0.3179E+02  0.3836E+02
      1.764  0.3460E+02  0.4015E+02
      1.816  0.3859E+02  0.4215E+02
      1.868  0.4461E+02  0.4446E+02
      1.920  0.5374E+02  0.4724E+02
      1.972  0.5940E+02  0.5032E+02
      2.024  0.5567E+02  0.5320E+02
      2.075  0.5048E+02  0.5582E+02
      2.127  0.5922E+02  0.5889E+02
      2.179  0.8352E+02  0.6321E+02
      2.231  0.1066E+03  0.6873E+02
      2.283  0.1187E+03  0.7489E+02
      2.334  0.1252E+03  0.8137E+02
      2.386  0.1309E+03  0.8815E+02
      2.438  0.1368E+03  0.9524E+02
      2.490  0.1456E+03  0.1028E+03
      2.542  0.1618E+03  0.1112E+03
      2.593  0.1807E+03  0.1205E+03
      2.645  0.1935E+03  0.1305E+03
      2.697  0.2046E+03  0.1411E+03
      2.749  0.2214E+03  0.1526E+03
      2.801  0.2308E+03  0.1646E+03
      2.852  0.2253E+03  0.1762E+03
      2.904  0.2260E+03  0.1879E+03
      2.956  0.2424E+03  0.2005E+03
      3.008  0.2569E+03  0.2138E+03
      3.060  0.2602E+03  0.2273E+03
      3.111  0.2604E+03  0.2408E+03
      3.163  0.2632E+03  0.2544E+03
      3.215  0.2713E+03  0.2685E+03
      3.267  0.2854E+03  0.2833E+03
      3.319  0.3041E+03  0.2990E+03
      3.370  0.3222E+03  0.3157E+03
      3.422  0.3307E+03  0.3328E+03
      3.474  0.3289E+03  0.3499E+03
      3.526  0.3225E+03  0.3666E+03
      3.578  0.3185E+03  0.3831E+03
      3.629  0.3172E+03  0.3995E+03
      3.681  0.3123E+03  0.4157E+03
      3.733  0.3061E+03  0.4315E+03
      3.785  0.3018E+03  0.4472E+03
      3.837  0.2976E+03  0.4626E+03
      3.888  0.2937E+03  0.4778E+03
      3.940  0.2898E+03  0.4928E+03
      3.992  0.2787E+03  0.5072E+03
      4.044  0.2671E+03  0.5211E+03
      4.096  0.2726E+03  0.5352E+03
      4.147  0.2911E+03  0.5503E+03
      4.199  0.3021E+03  0.5659E+03
      4.251  0.3044E+03  0.5817E+03
      4.303  0.3104E+03  0.5978E+03
      4.355  0.3177E+03  0.6142E+03
      4.406  0.3208E+03  0.6308E+03
      4.458  0.3233E+03  0.6476E+03
      4.510  0.3223E+03  0.6643E+03
      4.562  0.3122E+03  0.6805E+03
      4.614  0.2992E+03  0.6960E+03
      4.665  0.2935E+03  0.7112E+03
      4.717  0.2970E+03  0.7266E+03
      4.769  0.3041E+03  0.7423E+03
      4.821  0.3149E+03  0.7586E+03
      4.873  0.3291E+03  0.7757E+03
      4.924  0.3369E+03  0.7931E+03
      4.976  0.3430E+03  0.8109E+03
      5.028  0.3558E+03  0.8293E+03
      5.080  0.3651E+03  0.8482E+03
      5.132  0.3651E+03  0.8671E+03
      5.183  0.3577E+03  0.8857E+03
      5.235  0.3399E+03  0.9033E+03
      5.287  0.3100E+03  0.9193E+03
      5.339  0.2707E+03  0.9334E+03
      5.391  0.2273E+03  0.9451E+03
      5.442  0.1904E+03  0.9550E+03
      5.494  0.1729E+03  0.9639E+03
      5.546  0.1832E+03  0.9734E+03
      5.598  0.2176E+03  0.9847E+03
      5.650  0.2643E+03  0.9984E+03
      5.701  0.3146E+03  0.1015E+04
      5.753  0.3592E+03  0.1033E+04
      5.805  0.3901E+03  0.1054E+04
      5.857  0.4076E+03  0.1075E+04
      5.909  0.4174E+03  0.1096E+04
      5.960  0.4244E+03  0.1118E+04
      6.012  0.4287E+03  0.1140E+04
      6.064  0.4210E+03  0.1162E+04
      6.116  0.3980E+03  0.1183E+04
      6.168  0.3756E+03  0.1202E+04
      6.219  0.3632E+03  0.1221E+04
      6.271  0.3565E+03  0.1240E+04
      6.323  0.3551E+03  0.1258E+04
      6.375  0.3651E+03  0.1277E+04
      6.427  0.3796E+03  0.1297E+04
      6.478  0.3840E+03  0.1316E+04
      6.530  0.3884E+03  0.1337E+04
      6.582  0.4051E+03  0.1358E+04
      6.634  0.4216E+03  0.1379E+04
      6.686  0.4278E+03  0.1402E+04
      6.737  0.4266E+03  0.1424E+04
      6.789  0.4175E+03  0.1445E+04
      6.841  0.3983E+03  0.1466E+04
      6.893  0.3776E+03  0.1485E+04
      6.945  0.3677E+03  0.1505E+04
      6.996  0.3644E+03  0.1523E+04
      7.048  0.3651E+03  0.1542E+04
      7.100  0.3834E+03  0.1562E+04
      7.152  0.4097E+03  0.1583E+04
      7.204  0.4214E+03  0.1605E+04
      7.255  0.4227E+03  0.1627E+04
      7.307  0.4175E+03  0.1649E+04
      7.359  0.3965E+03  0.1669E+04
      7.411  0.3664E+03  0.1688E+04
      7.463  0.3443E+03  0.1706E+04
      7.514  0.3341E+03  0.1723E+04
      7.566  0.3303E+03  0.1741E+04
      7.618  0.3218E+03  0.1757E+04
      7.670  0.3023E+03  0.1773E+04
      7.722  0.2819E+03  0.1787E+04
      7.773  0.2707E+03  0.1801E+04
      7.825  0.2651E+03  0.1815E+04
      7.877  0.2597E+03  0.1829E+04
      7.929  0.2513E+03  0.1842E+04
      7.981  0.2437E+03  0.1854E+04
      8.032  0.2431E+03  0.1867E+04
      8.084  0.2413E+03  0.1879E+04
      8.136  0.2336E+03  0.1891E+04
      8.188  0.2289E+03  0.1903E+04
      8.240  0.2316E+03  0.1915E+04
      8.291  0.2366E+03  0.1928E+04
      8.343  0.2389E+03  0.1940E+04
      8.395  0.2382E+03  0.1952E+04
      8.447  0.2320E+03  0.1964E+04
      8.499  0.2216E+03  0.1976E+04
      8.550  0.2138E+03  0.1987E+04
      8.602  0.2091E+03  0.1998E+04
      8.654  0.2025E+03  0.2008E+04
      8.706  0.1942E+03  0.2018E+04
      8.758  0.1856E+03  0.2028E+04
      8.809  0.1798E+03  0.2037E+04
      8.861  0.1834E+03  0.2047E+04
      8.913  0.2035E+03  0.2057E+04
      8.965  0.2297E+03  0.2069E+04
      9.017  0.2384E+03  0.2081E+04
      9.068  0.2286E+03  0.2093E+04
      9.120  0.2129E+03  0.2104E+04
      9.172  0.1936E+03  0.2114E+04
      9.224  0.1791E+03  0.2124E+04
      9.276  0.1879E+03  0.2133E+04
      9.327  0.2180E+03  0.2145E+04
      9.379  0.2403E+03  0.2157E+04
      9.431  0.2433E+03  0.2170E+04
      9.483  0.2440E+03  0.2182E+04
      9.535  0.2453E+03  0.2195E+04
      9.586  0.2437E+03  0.2208E+04
      9.638  0.2606E+03  0.2221E+04
      9.690  0.3027E+03  0.2237E+04
      9.742  0.3331E+03  0.2254E+04
      9.794  0.3312E+03  0.2271E+04
      9.845  0.3191E+03  0.2288E+04
      9.897  0.3149E+03  0.2304E+04
      9.949  0.3181E+03  0.2321E+04
     10.001  0.3330E+03  0.2338E+04
     10.053  0.3652E+03  0.2357E+04
     10.104  0.4023E+03  0.2378E+04
     10.156  0.4244E+03  0.2400E+04
     10.208  0.4331E+03  0.2422E+04
     10.260  0.4430E+03  0.2445E+04
     10.312  0.4594E+03  0.2469E+04
     10.364  0.4783E+03  0.2494E+04
     10.415  0.4920E+03  0.2519E+04
     10.467  0.4923E+03  0.2545E+04
     10.519  0.4671E+03  0.2569E+04
     10.571  0.4149E+03  0.2590E+04
     10.623  0.3509E+03  0.2608E+04
     10.674  0.2772E+03  0.2623E+04
     10.726  0.1839E+03  0.2632E+04
     10.778  0.8613E+02  0.2637E+04
     10.830  0.1916E+02  0.2638E+04
     10.882 -0.4265E+01  0.2638E+04
     10.933 -0.4319E+01  0.2637E+04
     10.985 -0.1314E+01  0.2637E+04
     11.037 -0.2189E+00  0.2637E+04
     11.089 -0.2324E-01  0.2637E+04
     11.141 -0.1697E-02  0.2637E+04
     11.192 -0.8513E-04  0.2637E+04
     11.244 -0.2774E-05  0.2637E+04
     11.296 -0.5552E-07  0.2637E+04
     11.348 -0.6604E-09  0.2637E+04
     11.400 -0.4902E-11  0.2637E+04
     11.451 -0.6066E-10  0.2637E+04
     11.503 -0.7000E-08  0.2637E+04
     11.555 -0.4644E-06  0.2637E+04
     11.607 -0.1760E-04  0.2637E+04
     11.659 -0.3775E-03  0.2637E+04
     11.710 -0.4496E-02  0.2637E+04
     11.762 -0.2846E-01  0.2637E+04
     11.814 -0.8209E-01  0.2637E+04
     11.866 -0.3086E-02  0.2637E+04
     11.918  0.6333E+00  0.2637E+04
     11.969  0.1788E+01  0.2637E+04
     12.021  0.2315E+01  0.2637E+04
     12.073  0.1585E+01  0.2638E+04
     12.125  0.8522E+00  0.2638E+04
     12.177  0.1177E+01  0.2638E+04
     12.228  0.2221E+01  0.2638E+04
     12.280  0.2820E+01  0.2638E+04
     12.332  0.2331E+01  0.2638E+04
     12.384  0.1951E+01  0.2638E+04
     12.436  0.2190E+01  0.2638E+04
     12.487  0.1974E+01  0.2638E+04
     12.539  0.1578E+01  0.2638E+04
     12.591  0.2026E+01  0.2639E+04
     12.643  0.2869E+01  0.2639E+04
     12.695  0.3773E+01  0.2639E+04
     12.746  0.4142E+01  0.2639E+04
     12.798  0.3242E+01  0.2639E+04
     12.850  0.2489E+01  0.2639E+04
     12.902  0.2521E+01  0.2640E+04
     12.954  0.2064E+01  0.2640E+04
     13.005  0.1327E+01  0.2640E+04
     13.057  0.9320E+00  0.2640E+04
     13.109  0.6647E+00  0.2640E+04
     13.161  0.8102E+00  0.2640E+04
     13.213  0.1325E+01  0.2640E+04
     13.264  0.1365E+01  0.2640E+04
     13.316  0.7428E+00  0.2640E+04
     13.368  0.1339E+00  0.2640E+04
     13.420 -0.5725E-01  0.2640E+04
     13.472 -0.3443E-01  0.2640E+04
     13.523 -0.7136E-02  0.2640E+04
     13.575 -0.7359E-03  0.2640E+04
     13.627 -0.4100E-04  0.2640E+04
     13.679 -0.1274E-05  0.2640E+04
     13.731 -0.2245E-07  0.2640E+04
     13.782 -0.2264E-09  0.2640E+04
     13.834 -0.1313E-11  0.2640E+04
     13.886 -0.4763E-14  0.2640E+04
     13.938  0.0000E+00  0.2640E+04
     13.990  0.0000E+00  0.2640E+04
     14.041  0.0000E+00  0.2640E+04
     14.093  0.0000E+00  0.2640E+04
     14.145  0.0000E+00  0.2640E+04
     14.197  0.0000E+00  0.2640E+04
     14.249  0.0000E+00  0.2640E+04
