 256 256   0   0
  0.1418917E+02  0.1588033E-08  0.1692661E-08  0.1693229E-08  0.5000000E-15
  1.000000000000000E-004
  CAR 
 Ir_Ru                                   
     14.27441861     -1.29157006  301      9.45698593      1.00000000
     -1.292  0.0000E+00  0.0000E+00
     -1.240  0.0000E+00  0.0000E+00
     -1.188  0.0000E+00  0.0000E+00
     -1.136 -0.2788E-30 -0.1447E-31
     -1.084 -0.1276E-26 -0.6625E-28
     -1.032 -0.3397E-23 -0.1763E-24
     -0.980 -0.5251E-20 -0.2726E-21
     -0.928 -0.4710E-17 -0.2446E-18
     -0.876 -0.2390E-14 -0.1242E-15
     -0.825 -0.7119E-12 -0.3706E-13
     -0.773 -0.1230E-09 -0.6417E-11
     -0.721 -0.1222E-07 -0.6403E-09
     -0.669 -0.6955E-06 -0.3673E-07
     -0.617 -0.2256E-04 -0.1208E-05
     -0.565 -0.4140E-03 -0.2269E-04
     -0.513 -0.4256E-02 -0.2435E-03
     -0.461 -0.2425E-01 -0.1502E-02
     -0.409 -0.7507E-01 -0.5397E-02
     -0.358 -0.1020E+00 -0.1069E-01
     -0.306  0.2047E+00 -0.6741E-04
     -0.254  0.1636E+01  0.8479E-01
     -0.202  0.4393E+01  0.3128E+00
     -0.150  0.6353E+01  0.6424E+00
     -0.098  0.6422E+01  0.9756E+00
     -0.046  0.6958E+01  0.1337E+01
      0.006  0.8852E+01  0.1796E+01
      0.057  0.1117E+02  0.2376E+01
      0.109  0.1360E+02  0.3081E+01
      0.161  0.1435E+02  0.3826E+01
      0.213  0.1171E+02  0.4433E+01
      0.265  0.1006E+02  0.4955E+01
      0.317  0.1423E+02  0.5694E+01
      0.369  0.2031E+02  0.6748E+01
      0.421  0.2251E+02  0.7916E+01
      0.473  0.2270E+02  0.9094E+01
      0.524  0.2350E+02  0.1031E+02
      0.576  0.2252E+02  0.1148E+02
      0.628  0.2044E+02  0.1254E+02
      0.680  0.2099E+02  0.1363E+02
      0.732  0.2040E+02  0.1469E+02
      0.784  0.1465E+02  0.1545E+02
      0.836  0.8917E+01  0.1591E+02
      0.888  0.8047E+01  0.1633E+02
      0.940  0.1170E+02  0.1694E+02
      0.991  0.1890E+02  0.1792E+02
      1.043  0.2782E+02  0.1936E+02
      1.095  0.3330E+02  0.2109E+02
      1.147  0.3304E+02  0.2280E+02
      1.199  0.2884E+02  0.2430E+02
      1.251  0.2288E+02  0.2549E+02
      1.303  0.1949E+02  0.2650E+02
      1.355  0.2165E+02  0.2762E+02
      1.407  0.2712E+02  0.2903E+02
      1.458  0.3034E+02  0.3060E+02
      1.510  0.2985E+02  0.3215E+02
      1.562  0.2935E+02  0.3367E+02
      1.614  0.3040E+02  0.3525E+02
      1.666  0.3112E+02  0.3687E+02
      1.718  0.3205E+02  0.3853E+02
      1.770  0.3502E+02  0.4035E+02
      1.822  0.3902E+02  0.4237E+02
      1.874  0.4535E+02  0.4472E+02
      1.925  0.5457E+02  0.4755E+02
      1.977  0.5939E+02  0.5064E+02
      2.029  0.5488E+02  0.5348E+02
      2.081  0.5051E+02  0.5610E+02
      2.133  0.6136E+02  0.5929E+02
      2.185  0.8658E+02  0.6378E+02
      2.237  0.1085E+03  0.6941E+02
      2.289  0.1196E+03  0.7562E+02
      2.340  0.1256E+03  0.8213E+02
      2.392  0.1314E+03  0.8895E+02
      2.444  0.1374E+03  0.9608E+02
      2.496  0.1470E+03  0.1037E+03
      2.548  0.1642E+03  0.1122E+03
      2.600  0.1827E+03  0.1217E+03
      2.652  0.1948E+03  0.1318E+03
      2.704  0.2064E+03  0.1425E+03
      2.756  0.2233E+03  0.1541E+03
      2.807  0.2307E+03  0.1661E+03
      2.859  0.2245E+03  0.1777E+03
      2.911  0.2274E+03  0.1895E+03
      2.963  0.2450E+03  0.2022E+03
      3.015  0.2581E+03  0.2156E+03
      3.067  0.2603E+03  0.2291E+03
      3.119  0.2606E+03  0.2427E+03
      3.171  0.2640E+03  0.2564E+03
      3.223  0.2730E+03  0.2705E+03
      3.274  0.2881E+03  0.2855E+03
      3.326  0.3074E+03  0.3014E+03
      3.378  0.3245E+03  0.3183E+03
      3.430  0.3311E+03  0.3354E+03
      3.482  0.3282E+03  0.3525E+03
      3.534  0.3218E+03  0.3692E+03
      3.586  0.3185E+03  0.3857E+03
      3.638  0.3166E+03  0.4021E+03
      3.690  0.3109E+03  0.4182E+03
      3.741  0.3050E+03  0.4341E+03
      3.793  0.3011E+03  0.4497E+03
      3.845  0.2969E+03  0.4651E+03
      3.897  0.2933E+03  0.4803E+03
      3.949  0.2886E+03  0.4953E+03
      4.001  0.2762E+03  0.5096E+03
      4.053  0.2663E+03  0.5234E+03
      4.105  0.2753E+03  0.5377E+03
      4.157  0.2940E+03  0.5530E+03
      4.208  0.3028E+03  0.5687E+03
      4.260  0.3051E+03  0.5845E+03
      4.312  0.3121E+03  0.6007E+03
      4.364  0.3188E+03  0.6173E+03
      4.416  0.3214E+03  0.6339E+03
      4.468  0.3236E+03  0.6507E+03
      4.520  0.3210E+03  0.6674E+03
      4.572  0.3096E+03  0.6835E+03
      4.624  0.2973E+03  0.6989E+03
      4.675  0.2936E+03  0.7141E+03
      4.727  0.2982E+03  0.7296E+03
      4.779  0.3058E+03  0.7454E+03
      4.831  0.3177E+03  0.7619E+03
      4.883  0.3314E+03  0.7791E+03
      4.935  0.3379E+03  0.7967E+03
      4.987  0.3453E+03  0.8146E+03
      5.039  0.3583E+03  0.8332E+03
      5.090  0.3657E+03  0.8521E+03
      5.142  0.3643E+03  0.8710E+03
      5.194  0.3552E+03  0.8895E+03
      5.246  0.3347E+03  0.9068E+03
      5.298  0.3023E+03  0.9225E+03
      5.350  0.2614E+03  0.9361E+03
      5.402  0.2183E+03  0.9474E+03
      5.454  0.1844E+03  0.9570E+03
      5.506  0.1725E+03  0.9659E+03
      5.557  0.1890E+03  0.9757E+03
      5.609  0.2271E+03  0.9875E+03
      5.661  0.2754E+03  0.1002E+04
      5.713  0.3256E+03  0.1019E+04
      5.765  0.3677E+03  0.1038E+04
      5.817  0.3952E+03  0.1058E+04
      5.869  0.4104E+03  0.1080E+04
      5.921  0.4192E+03  0.1101E+04
      5.973  0.4256E+03  0.1123E+04
      6.024  0.4281E+03  0.1146E+04
      6.076  0.4165E+03  0.1167E+04
      6.128  0.3921E+03  0.1188E+04
      6.180  0.3719E+03  0.1207E+04
      6.232  0.3613E+03  0.1226E+04
      6.284  0.3556E+03  0.1244E+04
      6.336  0.3565E+03  0.1263E+04
      6.388  0.3690E+03  0.1282E+04
      6.440  0.3818E+03  0.1302E+04
      6.491  0.3842E+03  0.1321E+04
      6.543  0.3915E+03  0.1342E+04
      6.595  0.4099E+03  0.1363E+04
      6.647  0.4240E+03  0.1385E+04
      6.699  0.4282E+03  0.1407E+04
      6.751  0.4255E+03  0.1429E+04
      6.803  0.4136E+03  0.1451E+04
      6.855  0.3921E+03  0.1471E+04
      6.907  0.3734E+03  0.1491E+04
      6.958  0.3666E+03  0.1510E+04
      7.010  0.3638E+03  0.1528E+04
      7.062  0.3679E+03  0.1548E+04
      7.114  0.3908E+03  0.1568E+04
      7.166  0.4146E+03  0.1589E+04
      7.218  0.4223E+03  0.1611E+04
      7.270  0.4224E+03  0.1633E+04
      7.322  0.4134E+03  0.1655E+04
      7.373  0.3881E+03  0.1675E+04
      7.425  0.3590E+03  0.1693E+04
      7.477  0.3404E+03  0.1711E+04
      7.529  0.3327E+03  0.1728E+04
      7.581  0.3288E+03  0.1745E+04
      7.633  0.3172E+03  0.1762E+04
      7.685  0.2959E+03  0.1777E+04
      7.737  0.2776E+03  0.1792E+04
      7.789  0.2688E+03  0.1805E+04
      7.840  0.2637E+03  0.1819E+04
      7.892  0.2577E+03  0.1833E+04
      7.944  0.2485E+03  0.1845E+04
      7.996  0.2428E+03  0.1858E+04
      8.048  0.2432E+03  0.1871E+04
      8.100  0.2394E+03  0.1883E+04
      8.152  0.2314E+03  0.1895E+04
      8.204  0.2290E+03  0.1907E+04
      8.256  0.2333E+03  0.1919E+04
      8.307  0.2378E+03  0.1931E+04
      8.359  0.2391E+03  0.1944E+04
      8.411  0.2369E+03  0.1956E+04
      8.463  0.2288E+03  0.1968E+04
      8.515  0.2186E+03  0.1979E+04
      8.567  0.2122E+03  0.1990E+04
      8.619  0.2073E+03  0.2001E+04
      8.671  0.1999E+03  0.2011E+04
      8.723  0.1915E+03  0.2021E+04
      8.774  0.1832E+03  0.2031E+04
      8.826  0.1794E+03  0.2040E+04
      8.878  0.1880E+03  0.2050E+04
      8.930  0.2126E+03  0.2061E+04
      8.982  0.2352E+03  0.2073E+04
      9.034  0.2365E+03  0.2085E+04
      9.086  0.2237E+03  0.2097E+04
      9.138  0.2068E+03  0.2108E+04
      9.190  0.1873E+03  0.2118E+04
      9.241  0.1787E+03  0.2127E+04
      9.293  0.1969E+03  0.2137E+04
      9.345  0.2280E+03  0.2149E+04
      9.397  0.2430E+03  0.2161E+04
      9.449  0.2428E+03  0.2174E+04
      9.501  0.2448E+03  0.2187E+04
      9.553  0.2445E+03  0.2199E+04
      9.605  0.2461E+03  0.2212E+04
      9.657  0.2737E+03  0.2226E+04
      9.708  0.3170E+03  0.2243E+04
      9.760  0.3357E+03  0.2260E+04
      9.812  0.3266E+03  0.2277E+04
      9.864  0.3165E+03  0.2294E+04
      9.916  0.3151E+03  0.2310E+04
      9.968  0.3214E+03  0.2327E+04
     10.020  0.3425E+03  0.2344E+04
     10.072  0.3793E+03  0.2364E+04
     10.123  0.4126E+03  0.2386E+04
     10.175  0.4285E+03  0.2408E+04
     10.227  0.4362E+03  0.2430E+04
     10.279  0.4485E+03  0.2454E+04
     10.331  0.4669E+03  0.2478E+04
     10.383  0.4859E+03  0.2503E+04
     10.435  0.4974E+03  0.2529E+04
     10.487  0.4903E+03  0.2554E+04
     10.539  0.4531E+03  0.2578E+04
     10.590  0.3927E+03  0.2598E+04
     10.642  0.3236E+03  0.2615E+04
     10.694  0.2402E+03  0.2627E+04
     10.746  0.1400E+03  0.2635E+04
     10.798  0.5085E+02  0.2637E+04
     10.850  0.3818E+01  0.2638E+04
     10.902 -0.5680E+01  0.2637E+04
     10.954 -0.2760E+01  0.2637E+04
     11.006 -0.6169E+00  0.2637E+04
     11.057 -0.8281E-01  0.2637E+04
     11.109 -0.7549E-02  0.2637E+04
     11.161 -0.4860E-03  0.2637E+04
     11.213 -0.2106E-04  0.2637E+04
     11.265 -0.5724E-06  0.2637E+04
     11.317 -0.9309E-08  0.2637E+04
     11.369 -0.8866E-10  0.2637E+04
     11.421 -0.5678E-12  0.2637E+04
     11.473 -0.1943E-10  0.2637E+04
     11.524 -0.2784E-08  0.2637E+04
     11.576 -0.2298E-06  0.2637E+04
     11.628 -0.1086E-04  0.2637E+04
     11.680 -0.2905E-03  0.2637E+04
     11.732 -0.4295E-02  0.2637E+04
     11.784 -0.3341E-01  0.2637E+04
     11.836 -0.1176E+00  0.2637E+04
     11.888 -0.4105E-01  0.2637E+04
     11.940  0.8583E+00  0.2637E+04
     11.991  0.2360E+01  0.2637E+04
     12.043  0.2738E+01  0.2637E+04
     12.095  0.1761E+01  0.2638E+04
     12.147  0.7568E+00  0.2638E+04
     12.199  0.3569E+00  0.2638E+04
     12.251  0.8825E+00  0.2638E+04
     12.303  0.2109E+01  0.2638E+04
     12.355  0.3328E+01  0.2638E+04
     12.406  0.3737E+01  0.2638E+04
     12.458  0.2936E+01  0.2638E+04
     12.510  0.1936E+01  0.2638E+04
     12.562  0.1919E+01  0.2638E+04
     12.614  0.2812E+01  0.2639E+04
     12.666  0.3979E+01  0.2639E+04
     12.718  0.4574E+01  0.2639E+04
     12.770  0.3735E+01  0.2639E+04
     12.822  0.2526E+01  0.2639E+04
     12.873  0.2300E+01  0.2639E+04
     12.925  0.2118E+01  0.2640E+04
     12.977  0.1476E+01  0.2640E+04
     13.029  0.1093E+01  0.2640E+04
     13.081  0.1027E+01  0.2640E+04
     13.133  0.1003E+01  0.2640E+04
     13.185  0.9573E+00  0.2640E+04
     13.237  0.9178E+00  0.2640E+04
     13.289  0.9339E+00  0.2640E+04
     13.340  0.6510E+00  0.2640E+04
     13.392  0.1718E+00  0.2640E+04
     13.444 -0.3871E-01  0.2640E+04
     13.496 -0.3219E-01  0.2640E+04
     13.548 -0.7187E-02  0.2640E+04
     13.600 -0.7664E-03  0.2640E+04
     13.652 -0.4347E-04  0.2640E+04
     13.704 -0.1365E-05  0.2640E+04
     13.756 -0.2420E-07  0.2640E+04
     13.807 -0.2447E-09  0.2640E+04
     13.859 -0.1420E-11  0.2640E+04
     13.911 -0.4755E-14  0.2640E+04
     13.963  0.0000E+00  0.2640E+04
     14.015  0.0000E+00  0.2640E+04
     14.067  0.0000E+00  0.2640E+04
     14.119  0.0000E+00  0.2640E+04
     14.171  0.0000E+00  0.2640E+04
     14.223  0.0000E+00  0.2640E+04
     14.274  0.0000E+00  0.2640E+04
