       N       E                     dE             d eps       ncg     rms          rms(c)
DAV:   1     0.112830320485E+05    0.11283E+05   -0.55466E+05 95400   0.810E+02
DAV:   2    -0.143891371543E+04   -0.12722E+05   -0.12145E+05 95800   0.337E+02
DAV:   3    -0.241086043932E+04   -0.97195E+03   -0.89389E+03135160   0.780E+01
DAV:   4    -0.248227409317E+04   -0.71414E+02   -0.68983E+02132180   0.209E+01
DAV:   5    -0.248511792221E+04   -0.28438E+01   -0.27878E+01139740   0.331E+00    0.779E+01
RMM:   6    -0.241640184245E+04    0.68716E+02   -0.68055E+02105890   0.245E+01    0.622E+01
RMM:   7    -0.236997774472E+04    0.46424E+02   -0.35212E+02 97782   0.172E+01    0.455E+01
RMM:   8    -0.233986644915E+04    0.30111E+02   -0.15707E+02 97701   0.114E+01    0.321E+01
RMM:   9    -0.231562540854E+04    0.24241E+02   -0.34495E+01 98726   0.532E+00    0.618E+00
RMM:  10    -0.231541670454E+04    0.20870E+00   -0.73763E+00136483   0.153E+00    0.347E+00
RMM:  11    -0.231526711749E+04    0.14959E+00   -0.13282E+00120045   0.815E-01    0.382E+00
RMM:  12    -0.231489842903E+04    0.36869E+00   -0.49331E-01116901   0.544E-01    0.210E+00
RMM:  13    -0.231477656660E+04    0.12186E+00   -0.25442E-01111954   0.436E-01    0.131E+00
RMM:  14    -0.231474690596E+04    0.29661E-01   -0.15192E-01111284   0.330E-01    0.132E+00
RMM:  15    -0.231472842440E+04    0.18482E-01   -0.46128E-02119525   0.138E-01    0.944E-01
RMM:  16    -0.231471433261E+04    0.14092E-01   -0.17222E-02114563   0.100E-01    0.473E-01
RMM:  17    -0.231471117282E+04    0.31598E-02   -0.14764E-02119044   0.879E-02    0.202E-01
RMM:  18    -0.231471214938E+04   -0.97656E-03   -0.97891E-03131828   0.622E-02    0.236E-01
RMM:  19    -0.231471195114E+04    0.19824E-03   -0.16664E-03138068   0.203E-02    0.219E-01
RMM:  20    -0.231471126225E+04    0.68888E-03   -0.56315E-04113603   0.181E-02    0.136E-01
RMM:  21    -0.231471086920E+04    0.39305E-03   -0.10821E-03120567   0.236E-02    0.361E-02
RMM:  22    -0.231471084647E+04    0.22729E-04   -0.27626E-04138490   0.932E-03
   1 F= -.23147108E+04 E0= -.23147185E+04  d E =0.228586E-01
