 256 256   0   0
  0.1418917E+02  0.1588033E-08  0.1692661E-08  0.1693229E-08  0.5000000E-15
  1.000000000000000E-004
  CAR 
 Ir_Ru                                   
     14.27796610     -1.29205431  301      9.45693710      1.00000000
     -1.292  0.0000E+00  0.0000E+00
     -1.240  0.0000E+00  0.0000E+00
     -1.188  0.0000E+00  0.0000E+00
     -1.136 -0.2806E-30 -0.1456E-31
     -1.084 -0.1287E-26 -0.6681E-28
     -1.033 -0.3430E-23 -0.1781E-24
     -0.981 -0.5308E-20 -0.2756E-21
     -0.929 -0.4765E-17 -0.2476E-18
     -0.877 -0.2420E-14 -0.1258E-15
     -0.825 -0.7209E-12 -0.3754E-13
     -0.773 -0.1245E-09 -0.6498E-11
     -0.721 -0.1236E-07 -0.6482E-09
     -0.669 -0.7035E-06 -0.3716E-07
     -0.617 -0.2280E-04 -0.1221E-05
     -0.565 -0.4179E-03 -0.2291E-04
     -0.514 -0.4289E-02 -0.2455E-03
     -0.462 -0.2440E-01 -0.1512E-02
     -0.410 -0.7536E-01 -0.5423E-02
     -0.358 -0.1018E+00 -0.1071E-01
     -0.306  0.2082E+00  0.9772E-04
     -0.254  0.1648E+01  0.8562E-01
     -0.202  0.4410E+01  0.3145E+00
     -0.150  0.6358E+01  0.6445E+00
     -0.098  0.6423E+01  0.9778E+00
     -0.046  0.6970E+01  0.1340E+01
      0.005  0.8872E+01  0.1800E+01
      0.057  0.1120E+02  0.2381E+01
      0.109  0.1362E+02  0.3088E+01
      0.161  0.1434E+02  0.3832E+01
      0.213  0.1168E+02  0.4438E+01
      0.265  0.1008E+02  0.4962E+01
      0.317  0.1432E+02  0.5705E+01
      0.369  0.2038E+02  0.6763E+01
      0.421  0.2253E+02  0.7932E+01
      0.473  0.2272E+02  0.9112E+01
      0.524  0.2352E+02  0.1033E+02
      0.576  0.2251E+02  0.1150E+02
      0.628  0.2045E+02  0.1256E+02
      0.680  0.2103E+02  0.1365E+02
      0.732  0.2033E+02  0.1471E+02
      0.784  0.1450E+02  0.1546E+02
      0.836  0.8810E+01  0.1592E+02
      0.888  0.7991E+01  0.1633E+02
      0.940  0.1169E+02  0.1694E+02
      0.992  0.1893E+02  0.1792E+02
      1.043  0.2789E+02  0.1937E+02
      1.095  0.3337E+02  0.2110E+02
      1.147  0.3307E+02  0.2282E+02
      1.199  0.2882E+02  0.2431E+02
      1.251  0.2284E+02  0.2550E+02
      1.303  0.1947E+02  0.2651E+02
      1.355  0.2166E+02  0.2763E+02
      1.407  0.2718E+02  0.2904E+02
      1.459  0.3038E+02  0.3062E+02
      1.511  0.2985E+02  0.3217E+02
      1.562  0.2935E+02  0.3369E+02
      1.614  0.3042E+02  0.3527E+02
      1.666  0.3111E+02  0.3689E+02
      1.718  0.3204E+02  0.3855E+02
      1.770  0.3505E+02  0.4037E+02
      1.822  0.3913E+02  0.4240E+02
      1.874  0.4554E+02  0.4476E+02
      1.926  0.5473E+02  0.4760E+02
      1.978  0.5939E+02  0.5069E+02
      2.030  0.5476E+02  0.5353E+02
      2.081  0.5051E+02  0.5615E+02
      2.133  0.6167E+02  0.5935E+02
      2.185  0.8703E+02  0.6387E+02
      2.237  0.1089E+03  0.6952E+02
      2.289  0.1198E+03  0.7573E+02
      2.341  0.1259E+03  0.8227E+02
      2.393  0.1316E+03  0.8909E+02
      2.445  0.1375E+03  0.9623E+02
      2.497  0.1472E+03  0.1039E+03
      2.549  0.1646E+03  0.1124E+03
      2.600  0.1831E+03  0.1219E+03
      2.652  0.1950E+03  0.1320E+03
      2.704  0.2068E+03  0.1428E+03
      2.756  0.2238E+03  0.1544E+03
      2.808  0.2307E+03  0.1664E+03
      2.860  0.2244E+03  0.1780E+03
      2.912  0.2277E+03  0.1898E+03
      2.964  0.2453E+03  0.2026E+03
      3.016  0.2580E+03  0.2159E+03
      3.068  0.2601E+03  0.2294E+03
      3.119  0.2605E+03  0.2430E+03
      3.171  0.2639E+03  0.2567E+03
      3.223  0.2729E+03  0.2708E+03
      3.275  0.2881E+03  0.2858E+03
      3.327  0.3075E+03  0.3017E+03
      3.379  0.3244E+03  0.3186E+03
      3.431  0.3307E+03  0.3357E+03
      3.483  0.3278E+03  0.3527E+03
      3.535  0.3214E+03  0.3694E+03
      3.587  0.3182E+03  0.3859E+03
      3.638  0.3165E+03  0.4024E+03
      3.690  0.3110E+03  0.4185E+03
      3.742  0.3052E+03  0.4343E+03
      3.794  0.3011E+03  0.4500E+03
      3.846  0.2967E+03  0.4654E+03
      3.898  0.2932E+03  0.4806E+03
      3.950  0.2884E+03  0.4956E+03
      4.002  0.2760E+03  0.5099E+03
      4.054  0.2664E+03  0.5237E+03
      4.106  0.2757E+03  0.5380E+03
      4.157  0.2942E+03  0.5533E+03
      4.209  0.3027E+03  0.5690E+03
      4.261  0.3052E+03  0.5848E+03
      4.313  0.3124E+03  0.6010E+03
      4.365  0.3187E+03  0.6176E+03
      4.417  0.3211E+03  0.6343E+03
      4.469  0.3236E+03  0.6510E+03
      4.521  0.3210E+03  0.6677E+03
      4.573  0.3094E+03  0.6838E+03
      4.625  0.2971E+03  0.6992E+03
      4.676  0.2935E+03  0.7144E+03
      4.728  0.2983E+03  0.7299E+03
      4.780  0.3060E+03  0.7458E+03
      4.832  0.3180E+03  0.7623E+03
      4.884  0.3315E+03  0.7795E+03
      4.936  0.3378E+03  0.7970E+03
      4.988  0.3453E+03  0.8149E+03
      5.040  0.3584E+03  0.8336E+03
      5.092  0.3657E+03  0.8525E+03
      5.144  0.3642E+03  0.8714E+03
      5.195  0.3548E+03  0.8898E+03
      5.247  0.3341E+03  0.9072E+03
      5.299  0.3016E+03  0.9228E+03
      5.351  0.2606E+03  0.9364E+03
      5.403  0.2176E+03  0.9477E+03
      5.455  0.1840E+03  0.9572E+03
      5.507  0.1726E+03  0.9662E+03
      5.559  0.1898E+03  0.9760E+03
      5.611  0.2285E+03  0.9879E+03
      5.663  0.2769E+03  0.1002E+04
      5.714  0.3268E+03  0.1019E+04
      5.766  0.3685E+03  0.1038E+04
      5.818  0.3956E+03  0.1059E+04
      5.870  0.4105E+03  0.1080E+04
      5.922  0.4193E+03  0.1102E+04
      5.974  0.4259E+03  0.1124E+04
      6.026  0.4281E+03  0.1146E+04
      6.078  0.4159E+03  0.1168E+04
      6.130  0.3914E+03  0.1188E+04
      6.182  0.3714E+03  0.1207E+04
      6.233  0.3610E+03  0.1226E+04
      6.285  0.3554E+03  0.1245E+04
      6.337  0.3566E+03  0.1263E+04
      6.389  0.3695E+03  0.1282E+04
      6.441  0.3820E+03  0.1302E+04
      6.493  0.3841E+03  0.1322E+04
      6.545  0.3917E+03  0.1342E+04
      6.597  0.4102E+03  0.1364E+04
      6.649  0.4243E+03  0.1386E+04
      6.701  0.4283E+03  0.1408E+04
      6.752  0.4251E+03  0.1430E+04
      6.804  0.4127E+03  0.1451E+04
      6.856  0.3915E+03  0.1472E+04
      6.908  0.3732E+03  0.1491E+04
      6.960  0.3665E+03  0.1510E+04
      7.012  0.3637E+03  0.1529E+04
      7.064  0.3685E+03  0.1548E+04
      7.116  0.3919E+03  0.1568E+04
      7.168  0.4151E+03  0.1590E+04
      7.220  0.4222E+03  0.1612E+04
      7.271  0.4223E+03  0.1634E+04
      7.323  0.4131E+03  0.1655E+04
      7.375  0.3873E+03  0.1675E+04
      7.427  0.3582E+03  0.1694E+04
      7.479  0.3399E+03  0.1712E+04
      7.531  0.3325E+03  0.1729E+04
      7.583  0.3286E+03  0.1746E+04
      7.635  0.3166E+03  0.1762E+04
      7.687  0.2953E+03  0.1778E+04
      7.739  0.2773E+03  0.1792E+04
      7.790  0.2686E+03  0.1806E+04
      7.842  0.2635E+03  0.1820E+04
      7.894  0.2573E+03  0.1833E+04
      7.946  0.2482E+03  0.1846E+04
      7.998  0.2428E+03  0.1859E+04
      8.050  0.2432E+03  0.1871E+04
      8.102  0.2391E+03  0.1884E+04
      8.154  0.2311E+03  0.1896E+04
      8.206  0.2290E+03  0.1907E+04
      8.258  0.2336E+03  0.1920E+04
      8.309  0.2378E+03  0.1932E+04
      8.361  0.2391E+03  0.1944E+04
      8.413  0.2367E+03  0.1957E+04
      8.465  0.2285E+03  0.1968E+04
      8.517  0.2183E+03  0.1980E+04
      8.569  0.2120E+03  0.1991E+04
      8.621  0.2069E+03  0.2002E+04
      8.673  0.1996E+03  0.2012E+04
      8.725  0.1911E+03  0.2022E+04
      8.777  0.1829E+03  0.2031E+04
      8.828  0.1795E+03  0.2041E+04
      8.880  0.1887E+03  0.2050E+04
      8.932  0.2138E+03  0.2061E+04
      8.984  0.2357E+03  0.2074E+04
      9.036  0.2362E+03  0.2086E+04
      9.088  0.2231E+03  0.2098E+04
      9.140  0.2059E+03  0.2108E+04
      9.192  0.1866E+03  0.2118E+04
      9.244  0.1791E+03  0.2127E+04
      9.296  0.1983E+03  0.2138E+04
      9.347  0.2291E+03  0.2149E+04
      9.399  0.2430E+03  0.2162E+04
      9.451  0.2428E+03  0.2175E+04
      9.503  0.2450E+03  0.2187E+04
      9.555  0.2444E+03  0.2200E+04
      9.607  0.2468E+03  0.2213E+04
      9.659  0.2757E+03  0.2227E+04
      9.711  0.3185E+03  0.2244E+04
      9.763  0.3356E+03  0.2261E+04
      9.815  0.3260E+03  0.2278E+04
      9.866  0.3164E+03  0.2294E+04
      9.918  0.3154E+03  0.2311E+04
      9.970  0.3222E+03  0.2328E+04
     10.022  0.3441E+03  0.2345E+04
     10.074  0.3812E+03  0.2365E+04
     10.126  0.4138E+03  0.2387E+04
     10.178  0.4288E+03  0.2409E+04
     10.230  0.4365E+03  0.2432E+04
     10.282  0.4491E+03  0.2455E+04
     10.334  0.4673E+03  0.2479E+04
     10.385  0.4850E+03  0.2504E+04
     10.437  0.4945E+03  0.2530E+04
     10.489  0.4856E+03  0.2555E+04
     10.541  0.4476E+03  0.2578E+04
     10.593  0.3884E+03  0.2599E+04
     10.645  0.3215E+03  0.2615E+04
     10.697  0.2391E+03  0.2628E+04
     10.749  0.1386E+03  0.2635E+04
     10.801  0.4974E+02  0.2637E+04
     10.853  0.3431E+01  0.2638E+04
     10.904 -0.5646E+01  0.2637E+04
     10.956 -0.2692E+01  0.2637E+04
     11.008 -0.5975E+00  0.2637E+04
     11.060 -0.8104E-01  0.2637E+04
     11.112 -0.7681E-02  0.2637E+04
     11.164 -0.5246E-03  0.2637E+04
     11.216 -0.2410E-04  0.2637E+04
     11.268 -0.6875E-06  0.2637E+04
     11.320 -0.1166E-07  0.2637E+04
     11.372 -0.3028E-08  0.2637E+04
     11.423 -0.2151E-06  0.2637E+04
     11.475 -0.9014E-05  0.2637E+04
     11.527 -0.2113E-03  0.2637E+04
     11.579 -0.2694E-02  0.2637E+04
     11.631 -0.1749E-01  0.2637E+04
     11.683 -0.4567E-01  0.2637E+04
     11.735  0.3731E-01  0.2637E+04
     11.787  0.4336E+00  0.2637E+04
     11.839  0.8134E+00  0.2637E+04
     11.891  0.6388E+00  0.2637E+04
     11.942  0.6022E+00  0.2637E+04
     11.994  0.1421E+01  0.2637E+04
     12.046  0.2042E+01  0.2637E+04
     12.098  0.1598E+01  0.2638E+04
     12.150  0.7957E+00  0.2638E+04
     12.202  0.8011E+00  0.2638E+04
     12.254  0.1887E+01  0.2638E+04
     12.306  0.2921E+01  0.2638E+04
     12.358  0.3047E+01  0.2638E+04
     12.410  0.2571E+01  0.2638E+04
     12.461  0.2160E+01  0.2638E+04
     12.513  0.2233E+01  0.2638E+04
     12.565  0.2724E+01  0.2638E+04
     12.617  0.3160E+01  0.2639E+04
     12.669  0.3536E+01  0.2639E+04
     12.721  0.3808E+01  0.2639E+04
     12.773  0.3243E+01  0.2639E+04
     12.825  0.2378E+01  0.2639E+04
     12.877  0.2192E+01  0.2639E+04
     12.929  0.2111E+01  0.2640E+04
     12.980  0.1715E+01  0.2640E+04
     13.032  0.1309E+01  0.2640E+04
     13.084  0.9337E+00  0.2640E+04
     13.136  0.7189E+00  0.2640E+04
     13.188  0.9066E+00  0.2640E+04
     13.240  0.1148E+01  0.2640E+04
     13.292  0.1099E+01  0.2640E+04
     13.344  0.6712E+00  0.2640E+04
     13.396  0.1593E+00  0.2640E+04
     13.448 -0.4348E-01  0.2640E+04
     13.499 -0.3299E-01  0.2640E+04
     13.551 -0.7283E-02  0.2640E+04
     13.603 -0.7750E-03  0.2640E+04
     13.655 -0.4396E-04  0.2640E+04
     13.707 -0.1381E-05  0.2640E+04
     13.759 -0.2449E-07  0.2640E+04
     13.811 -0.2477E-09  0.2640E+04
     13.863 -0.1438E-11  0.2640E+04
     13.915 -0.4754E-14  0.2640E+04
     13.967  0.0000E+00  0.2640E+04
     14.018  0.0000E+00  0.2640E+04
     14.070  0.0000E+00  0.2640E+04
     14.122  0.0000E+00  0.2640E+04
     14.174  0.0000E+00  0.2640E+04
     14.226  0.0000E+00  0.2640E+04
     14.278  0.0000E+00  0.2640E+04
