  20  20   0   0
  0.1382907E+02  0.6022323E-09  0.6026534E-09  0.8082468E-09  0.5000000E-15
  1.000000000000000E-004
  CAR 
 Ir_Ru                                   
     11.50408453     -0.13822032  301      8.63067172      1.00000000
     -0.138  0.0000E+00  0.0000E+00
     -0.099  0.0000E+00  0.0000E+00
     -0.061  0.0000E+00  0.0000E+00
     -0.022  0.0000E+00  0.0000E+00
      0.017  0.0000E+00  0.0000E+00
      0.056 -0.1670E-28 -0.6481E-30
      0.095 -0.7105E-26 -0.2764E-27
      0.133 -0.2234E-23 -0.8699E-25
      0.172 -0.5183E-21 -0.2020E-22
      0.211 -0.8865E-19 -0.3461E-20
      0.250 -0.1117E-16 -0.4371E-18
      0.289 -0.1004E-14 -0.3940E-16
      0.327 -0.6838E-13 -0.2693E-14
      0.366 -0.3414E-11 -0.1352E-12
      0.405 -0.1249E-09 -0.4983E-11
      0.444 -0.3344E-08 -0.1348E-09
      0.483 -0.6531E-07 -0.2669E-08
      0.522 -0.9272E-06 -0.3865E-07
      0.560 -0.9524E-05 -0.4082E-06
      0.599 -0.7035E-04 -0.3139E-05
      0.638 -0.3711E-03 -0.1754E-04
      0.677 -0.1385E-02 -0.7127E-04
      0.716 -0.3607E-02 -0.2113E-03
      0.754 -0.6309E-02 -0.4561E-03
      0.793 -0.5623E-02 -0.6743E-03
      0.832  0.8363E-02 -0.3497E-03
      0.871  0.5553E-01  0.1805E-02
      0.910  0.1574E+00  0.7915E-02
      0.948  0.3073E+00  0.1984E-01
      0.987  0.4547E+00  0.3748E-01
      1.026  0.5372E+00  0.5833E-01
      1.065  0.5293E+00  0.7887E-01
      1.104  0.4766E+00  0.9737E-01
      1.142  0.4808E+00  0.1160E+00
      1.181  0.6127E+00  0.1398E+00
      1.220  0.8249E+00  0.1718E+00
      1.259  0.9767E+00  0.2097E+00
      1.298  0.9842E+00  0.2479E+00
      1.336  0.9204E+00  0.2836E+00
      1.375  0.9052E+00  0.3188E+00
      1.414  0.9573E+00  0.3559E+00
      1.453  0.1004E+01  0.3949E+00
      1.492  0.9781E+00  0.4328E+00
      1.531  0.9118E+00  0.4682E+00
      1.569  0.9327E+00  0.5044E+00
      1.608  0.1105E+01  0.5473E+00
      1.647  0.1322E+01  0.5986E+00
      1.686  0.1452E+01  0.6550E+00
      1.725  0.1509E+01  0.7135E+00
      1.763  0.1586E+01  0.7751E+00
      1.802  0.1672E+01  0.8400E+00
      1.841  0.1657E+01  0.9043E+00
      1.880  0.1493E+01  0.9622E+00
      1.919  0.1296E+01  0.1013E+01
      1.957  0.1234E+01  0.1060E+01
      1.996  0.1351E+01  0.1113E+01
      2.035  0.1544E+01  0.1173E+01
      2.074  0.1720E+01  0.1239E+01
      2.113  0.1886E+01  0.1313E+01
      2.151  0.2062E+01  0.1393E+01
      2.190  0.2212E+01  0.1479E+01
      2.229  0.2293E+01  0.1568E+01
      2.268  0.2297E+01  0.1657E+01
      2.307  0.2261E+01  0.1744E+01
      2.345  0.2297E+01  0.1834E+01
      2.384  0.2563E+01  0.1933E+01
      2.423  0.3169E+01  0.2056E+01
      2.462  0.4042E+01  0.2213E+01
      2.501  0.4867E+01  0.2402E+01
      2.540  0.5358E+01  0.2610E+01
      2.578  0.5643E+01  0.2829E+01
      2.617  0.6158E+01  0.3068E+01
      2.656  0.7227E+01  0.3348E+01
      2.695  0.8809E+01  0.3690E+01
      2.734  0.1056E+02  0.4100E+01
      2.772  0.1221E+02  0.4574E+01
      2.811  0.1397E+02  0.5116E+01
      2.850  0.1627E+02  0.5747E+01
      2.889  0.1903E+02  0.6486E+01
      2.928  0.2148E+02  0.7320E+01
      2.966  0.2286E+02  0.8207E+01
      3.005  0.2324E+02  0.9109E+01
      3.044  0.2337E+02  0.1002E+02
      3.083  0.2381E+02  0.1094E+02
      3.122  0.2462E+02  0.1189E+02
      3.160  0.2590E+02  0.1290E+02
      3.199  0.2768E+02  0.1397E+02
      3.238  0.2949E+02  0.1512E+02
      3.277  0.3084E+02  0.1632E+02
      3.316  0.3190E+02  0.1755E+02
      3.354  0.3303E+02  0.1883E+02
      3.393  0.3422E+02  0.2016E+02
      3.432  0.3545E+02  0.2154E+02
      3.471  0.3682E+02  0.2297E+02
      3.510  0.3794E+02  0.2444E+02
      3.549  0.3799E+02  0.2591E+02
      3.587  0.3677E+02  0.2734E+02
      3.626  0.3528E+02  0.2871E+02
      3.665  0.3446E+02  0.3005E+02
      3.704  0.3402E+02  0.3137E+02
      3.743  0.3326E+02  0.3266E+02
      3.781  0.3210E+02  0.3390E+02
      3.820  0.3105E+02  0.3511E+02
      3.859  0.3033E+02  0.3629E+02
      3.898  0.2956E+02  0.3743E+02
      3.937  0.2848E+02  0.3854E+02
      3.975  0.2741E+02  0.3960E+02
      4.014  0.2677E+02  0.4064E+02
      4.053  0.2652E+02  0.4167E+02
      4.092  0.2628E+02  0.4269E+02
      4.131  0.2572E+02  0.4369E+02
      4.169  0.2473E+02  0.4465E+02
      4.208  0.2349E+02  0.4556E+02
      4.247  0.2236E+02  0.4643E+02
      4.286  0.2158E+02  0.4727E+02
      4.325  0.2104E+02  0.4808E+02
      4.363  0.2065E+02  0.4888E+02
      4.402  0.2048E+02  0.4968E+02
      4.441  0.2058E+02  0.5048E+02
      4.480  0.2098E+02  0.5129E+02
      4.519  0.2171E+02  0.5213E+02
      4.558  0.2273E+02  0.5302E+02
      4.596  0.2369E+02  0.5393E+02
      4.635  0.2418E+02  0.5487E+02
      4.674  0.2423E+02  0.5581E+02
      4.713  0.2441E+02  0.5676E+02
      4.752  0.2482E+02  0.5772E+02
      4.790  0.2487E+02  0.5869E+02
      4.829  0.2429E+02  0.5963E+02
      4.868  0.2356E+02  0.6055E+02
      4.907  0.2320E+02  0.6145E+02
      4.946  0.2337E+02  0.6235E+02
      4.984  0.2383E+02  0.6328E+02
      5.023  0.2402E+02  0.6421E+02
      5.062  0.2364E+02  0.6513E+02
      5.101  0.2295E+02  0.6602E+02
      5.140  0.2231E+02  0.6688E+02
      5.178  0.2187E+02  0.6773E+02
      5.217  0.2172E+02  0.6858E+02
      5.256  0.2183E+02  0.6942E+02
      5.295  0.2191E+02  0.7027E+02
      5.334  0.2172E+02  0.7112E+02
      5.372  0.2167E+02  0.7196E+02
      5.411  0.2237E+02  0.7283E+02
      5.450  0.2373E+02  0.7375E+02
      5.489  0.2486E+02  0.7471E+02
      5.528  0.2518E+02  0.7569E+02
      5.567  0.2480E+02  0.7665E+02
      5.605  0.2423E+02  0.7759E+02
      5.644  0.2395E+02  0.7852E+02
      5.683  0.2423E+02  0.7946E+02
      5.722  0.2479E+02  0.8042E+02
      5.761  0.2521E+02  0.8140E+02
      5.799  0.2549E+02  0.8239E+02
      5.838  0.2594E+02  0.8340E+02
      5.877  0.2663E+02  0.8443E+02
      5.916  0.2735E+02  0.8549E+02
      5.955  0.2799E+02  0.8658E+02
      5.993  0.2857E+02  0.8769E+02
      6.032  0.2923E+02  0.8882E+02
      6.071  0.3007E+02  0.8999E+02
      6.110  0.3111E+02  0.9119E+02
      6.149  0.3227E+02  0.9245E+02
      6.187  0.3337E+02  0.9374E+02
      6.226  0.3436E+02  0.9508E+02
      6.265  0.3546E+02  0.9645E+02
      6.304  0.3676E+02  0.9788E+02
      6.343  0.3818E+02  0.9936E+02
      6.381  0.3969E+02  0.1009E+03
      6.420  0.4135E+02  0.1025E+03
      6.459  0.4282E+02  0.1042E+03
      6.498  0.4345E+02  0.1059E+03
      6.537  0.4272E+02  0.1075E+03
      6.576  0.4070E+02  0.1091E+03
      6.614  0.3790E+02  0.1106E+03
      6.653  0.3470E+02  0.1119E+03
      6.692  0.3143E+02  0.1131E+03
      6.731  0.2862E+02  0.1142E+03
      6.770  0.2678E+02  0.1153E+03
      6.808  0.2583E+02  0.1163E+03
      6.847  0.2537E+02  0.1173E+03
      6.886  0.2512E+02  0.1182E+03
      6.925  0.2496E+02  0.1192E+03
      6.964  0.2479E+02  0.1202E+03
      7.002  0.2457E+02  0.1211E+03
      7.041  0.2437E+02  0.1221E+03
      7.080  0.2439E+02  0.1230E+03
      7.119  0.2452E+02  0.1240E+03
      7.158  0.2431E+02  0.1249E+03
      7.196  0.2355E+02  0.1258E+03
      7.235  0.2259E+02  0.1267E+03
      7.274  0.2197E+02  0.1276E+03
      7.313  0.2183E+02  0.1284E+03
      7.352  0.2195E+02  0.1293E+03
      7.390  0.2192E+02  0.1301E+03
      7.429  0.2152E+02  0.1309E+03
      7.468  0.2106E+02  0.1318E+03
      7.507  0.2095E+02  0.1326E+03
      7.546  0.2100E+02  0.1334E+03
      7.585  0.2086E+02  0.1342E+03
      7.623  0.2095E+02  0.1350E+03
      7.662  0.2199E+02  0.1359E+03
      7.701  0.2365E+02  0.1368E+03
      7.740  0.2477E+02  0.1377E+03
      7.779  0.2491E+02  0.1387E+03
      7.817  0.2466E+02  0.1397E+03
      7.856  0.2463E+02  0.1406E+03
      7.895  0.2491E+02  0.1416E+03
      7.934  0.2534E+02  0.1426E+03
      7.973  0.2580E+02  0.1436E+03
      8.011  0.2611E+02  0.1446E+03
      8.050  0.2613E+02  0.1456E+03
      8.089  0.2612E+02  0.1466E+03
      8.128  0.2657E+02  0.1476E+03
      8.167  0.2750E+02  0.1487E+03
      8.205  0.2819E+02  0.1498E+03
      8.244  0.2797E+02  0.1509E+03
      8.283  0.2689E+02  0.1519E+03
      8.322  0.2547E+02  0.1529E+03
      8.361  0.2416E+02  0.1539E+03
      8.399  0.2311E+02  0.1548E+03
      8.438  0.2235E+02  0.1556E+03
      8.477  0.2203E+02  0.1565E+03
      8.516  0.2228E+02  0.1573E+03
      8.555  0.2286E+02  0.1582E+03
      8.594  0.2331E+02  0.1591E+03
      8.632  0.2331E+02  0.1600E+03
      8.671  0.2288E+02  0.1609E+03
      8.710  0.2224E+02  0.1618E+03
      8.749  0.2172E+02  0.1626E+03
      8.788  0.2143E+02  0.1635E+03
      8.826  0.2117E+02  0.1643E+03
      8.865  0.2083E+02  0.1651E+03
      8.904  0.2065E+02  0.1659E+03
      8.943  0.2072E+02  0.1667E+03
      8.982  0.2080E+02  0.1675E+03
      9.020  0.2072E+02  0.1683E+03
      9.059  0.2057E+02  0.1691E+03
      9.098  0.2046E+02  0.1699E+03
      9.137  0.2040E+02  0.1707E+03
      9.176  0.2035E+02  0.1715E+03
      9.214  0.2031E+02  0.1723E+03
      9.253  0.2041E+02  0.1731E+03
      9.292  0.2073E+02  0.1739E+03
      9.331  0.2107E+02  0.1747E+03
      9.370  0.2110E+02  0.1755E+03
      9.408  0.2086E+02  0.1763E+03
      9.447  0.2068E+02  0.1771E+03
      9.486  0.2071E+02  0.1779E+03
      9.525  0.2092E+02  0.1787E+03
      9.564  0.2129E+02  0.1796E+03
      9.603  0.2177E+02  0.1804E+03
      9.641  0.2211E+02  0.1813E+03
      9.680  0.2226E+02  0.1821E+03
      9.719  0.2244E+02  0.1830E+03
      9.758  0.2292E+02  0.1839E+03
      9.797  0.2389E+02  0.1848E+03
      9.835  0.2520E+02  0.1858E+03
      9.874  0.2644E+02  0.1868E+03
      9.913  0.2722E+02  0.1879E+03
      9.952  0.2777E+02  0.1890E+03
      9.991  0.2870E+02  0.1901E+03
     10.029  0.3036E+02  0.1912E+03
     10.068  0.3243E+02  0.1925E+03
     10.107  0.3394E+02  0.1938E+03
     10.146  0.3388E+02  0.1951E+03
     10.185  0.3190E+02  0.1964E+03
     10.223  0.2839E+02  0.1975E+03
     10.262  0.2363E+02  0.1984E+03
     10.301  0.1782E+02  0.1991E+03
     10.340  0.1181E+02  0.1995E+03
     10.379  0.6858E+01  0.1998E+03
     10.417  0.3511E+01  0.1999E+03
     10.456  0.1483E+01  0.2000E+03
     10.495  0.3770E+00  0.2000E+03
     10.534 -0.6974E-01  0.2000E+03
     10.573 -0.1378E+00  0.2000E+03
     10.612 -0.8533E-01  0.2000E+03
     10.650 -0.3698E-01  0.2000E+03
     10.689 -0.1302E-01  0.2000E+03
     10.728 -0.3795E-02  0.2000E+03
     10.767 -0.8775E-03  0.2000E+03
     10.806 -0.1541E-03  0.2000E+03
     10.844 -0.2003E-04  0.2000E+03
     10.883 -0.1908E-05  0.2000E+03
     10.922 -0.1328E-06  0.2000E+03
     10.961 -0.6755E-08  0.2000E+03
     11.000 -0.2513E-09  0.2000E+03
     11.038 -0.6852E-11  0.2000E+03
     11.077 -0.1370E-12  0.2000E+03
     11.116 -0.2066E-14  0.2000E+03
     11.155  0.0000E+00  0.2000E+03
     11.194  0.0000E+00  0.2000E+03
     11.232  0.0000E+00  0.2000E+03
     11.271  0.0000E+00  0.2000E+03
     11.310  0.0000E+00  0.2000E+03
     11.349  0.0000E+00  0.2000E+03
     11.388  0.0000E+00  0.2000E+03
     11.426  0.0000E+00  0.2000E+03
     11.465  0.0000E+00  0.2000E+03
     11.504  0.0000E+00  0.2000E+03
