 256 256   0   0
  0.1419206E+02  0.1537080E-08  0.1537218E-08  0.1537636E-08  0.5000000E-15
  1.000000000000000E-004
  CAR 
 Ir_Ru                                   
     12.68410635     -1.29529617  301      9.24213461      1.00000000
     -1.295  0.0000E+00  0.0000E+00
     -1.249  0.0000E+00  0.0000E+00
     -1.202  0.0000E+00  0.0000E+00
     -1.156  0.0000E+00  0.0000E+00
     -1.109 -0.2747E-28 -0.1280E-29
     -1.062 -0.4097E-25 -0.1910E-26
     -1.016 -0.3942E-22 -0.1839E-23
     -0.969 -0.2448E-19 -0.1142E-20
     -0.923 -0.9806E-17 -0.4581E-18
     -0.876 -0.2460E-14 -0.1151E-15
     -0.829 -0.4079E-12 -0.1912E-13
     -0.783 -0.4356E-10 -0.2049E-11
     -0.736 -0.2998E-08 -0.1417E-09
     -0.690 -0.1330E-06 -0.6341E-08
     -0.643 -0.3812E-05 -0.1840E-06
     -0.596 -0.7074E-04 -0.3480E-05
     -0.550 -0.8525E-03 -0.4320E-04
     -0.503 -0.6673E-02 -0.3542E-03
     -0.457 -0.3353E-01 -0.1917E-02
     -0.410 -0.1020E+00 -0.6670E-02
     -0.363 -0.1378E+00 -0.1309E-01
     -0.317  0.2234E+00 -0.2685E-02
     -0.270  0.1508E+01  0.6759E-01
     -0.224  0.3538E+01  0.2324E+00
     -0.177  0.5071E+01  0.4687E+00
     -0.130  0.5734E+01  0.7359E+00
     -0.084  0.7328E+01  0.1077E+01
     -0.037  0.1020E+02  0.1553E+01
      0.009  0.1102E+02  0.2066E+01
      0.056  0.9155E+01  0.2493E+01
      0.103  0.9389E+01  0.2930E+01
      0.149  0.1316E+02  0.3543E+01
      0.196  0.1592E+02  0.4285E+01
      0.242  0.1606E+02  0.5033E+01
      0.289  0.1674E+02  0.5814E+01
      0.336  0.1850E+02  0.6676E+01
      0.382  0.1835E+02  0.7531E+01
      0.429  0.1746E+02  0.8344E+01
      0.475  0.1983E+02  0.9268E+01
      0.522  0.2338E+02  0.1036E+02
      0.569  0.2406E+02  0.1148E+02
      0.615  0.2228E+02  0.1252E+02
      0.662  0.1871E+02  0.1339E+02
      0.708  0.1406E+02  0.1404E+02
      0.755  0.1112E+02  0.1456E+02
      0.802  0.1070E+02  0.1506E+02
      0.848  0.1112E+02  0.1558E+02
      0.895  0.1211E+02  0.1614E+02
      0.941  0.1457E+02  0.1682E+02
      0.988  0.1824E+02  0.1767E+02
      1.035  0.2278E+02  0.1873E+02
      1.081  0.2800E+02  0.2004E+02
      1.128  0.3125E+02  0.2149E+02
      1.174  0.2980E+02  0.2288E+02
      1.221  0.2596E+02  0.2409E+02
      1.268  0.2309E+02  0.2517E+02
      1.314  0.2098E+02  0.2615E+02
      1.361  0.2002E+02  0.2708E+02
      1.407  0.2160E+02  0.2808E+02
      1.454  0.2406E+02  0.2921E+02
      1.501  0.2565E+02  0.3040E+02
      1.547  0.2893E+02  0.3175E+02
      1.594  0.3508E+02  0.3338E+02
      1.640  0.3879E+02  0.3519E+02
      1.687  0.3793E+02  0.3696E+02
      1.734  0.3928E+02  0.3879E+02
      1.780  0.4547E+02  0.4091E+02
      1.827  0.4934E+02  0.4321E+02
      1.873  0.4787E+02  0.4544E+02
      1.920  0.4726E+02  0.4764E+02
      1.967  0.5077E+02  0.5001E+02
      2.013  0.5400E+02  0.5252E+02
      2.060  0.5548E+02  0.5511E+02
      2.106  0.6140E+02  0.5797E+02
      2.153  0.7449E+02  0.6144E+02
      2.200  0.8918E+02  0.6560E+02
      2.246  0.1028E+03  0.7039E+02
      2.293  0.1176E+03  0.7587E+02
      2.339  0.1309E+03  0.8196E+02
      2.386  0.1382E+03  0.8840E+02
      2.433  0.1431E+03  0.9507E+02
      2.479  0.1522E+03  0.1022E+03
      2.526  0.1609E+03  0.1097E+03
      2.572  0.1618E+03  0.1172E+03
      2.619  0.1614E+03  0.1247E+03
      2.666  0.1690E+03  0.1326E+03
      2.712  0.1785E+03  0.1409E+03
      2.759  0.1848E+03  0.1495E+03
      2.805  0.1976E+03  0.1587E+03
      2.852  0.2225E+03  0.1691E+03
      2.899  0.2473E+03  0.1806E+03
      2.945  0.2563E+03  0.1926E+03
      2.992  0.2499E+03  0.2042E+03
      3.038  0.2467E+03  0.2157E+03
      3.085  0.2618E+03  0.2279E+03
      3.132  0.2862E+03  0.2412E+03
      3.178  0.3010E+03  0.2553E+03
      3.225  0.3036E+03  0.2694E+03
      3.271  0.3048E+03  0.2836E+03
      3.318  0.3083E+03  0.2980E+03
      3.365  0.3111E+03  0.3125E+03
      3.411  0.3143E+03  0.3271E+03
      3.458  0.3214E+03  0.3421E+03
      3.504  0.3330E+03  0.3576E+03
      3.551  0.3439E+03  0.3736E+03
      3.597  0.3469E+03  0.3898E+03
      3.644  0.3448E+03  0.4059E+03
      3.691  0.3485E+03  0.4221E+03
      3.737  0.3575E+03  0.4388E+03
      3.784  0.3593E+03  0.4555E+03
      3.830  0.3524E+03  0.4719E+03
      3.877  0.3479E+03  0.4881E+03
      3.924  0.3497E+03  0.5044E+03
      3.970  0.3507E+03  0.5208E+03
      4.017  0.3417E+03  0.5367E+03
      4.063  0.3231E+03  0.5518E+03
      4.110  0.3070E+03  0.5661E+03
      4.157  0.2979E+03  0.5799E+03
      4.203  0.2878E+03  0.5934E+03
      4.250  0.2716E+03  0.6060E+03
      4.296  0.2538E+03  0.6178E+03
      4.343  0.2428E+03  0.6292E+03
      4.390  0.2453E+03  0.6406E+03
      4.436  0.2578E+03  0.6526E+03
      4.483  0.2618E+03  0.6648E+03
      4.529  0.2507E+03  0.6765E+03
      4.576  0.2473E+03  0.6880E+03
      4.623  0.2667E+03  0.7004E+03
      4.669  0.2916E+03  0.7140E+03
      4.716  0.3065E+03  0.7283E+03
      4.762  0.3135E+03  0.7429E+03
      4.809  0.3135E+03  0.7575E+03
      4.856  0.3052E+03  0.7717E+03
      4.902  0.2905E+03  0.7853E+03
      4.949  0.2786E+03  0.7982E+03
      4.995  0.2809E+03  0.8113E+03
      5.042  0.2949E+03  0.8251E+03
      5.089  0.3077E+03  0.8394E+03
      5.135  0.3093E+03  0.8538E+03
      5.182  0.2979E+03  0.8677E+03
      5.228  0.2858E+03  0.8810E+03
      5.275  0.2844E+03  0.8943E+03
      5.322  0.2903E+03  0.9078E+03
      5.368  0.2972E+03  0.9217E+03
      5.415  0.3018E+03  0.9357E+03
      5.461  0.2988E+03  0.9496E+03
      5.508  0.2890E+03  0.9631E+03
      5.555  0.2867E+03  0.9765E+03
      5.601  0.3023E+03  0.9906E+03
      5.648  0.3213E+03  0.1006E+04
      5.694  0.3253E+03  0.1021E+04
      5.741  0.3203E+03  0.1036E+04
      5.788  0.3200E+03  0.1051E+04
      5.834  0.3262E+03  0.1066E+04
      5.881  0.3366E+03  0.1081E+04
      5.927  0.3498E+03  0.1098E+04
      5.974  0.3650E+03  0.1115E+04
      6.021  0.3788E+03  0.1132E+04
      6.067  0.3855E+03  0.1150E+04
      6.114  0.3875E+03  0.1168E+04
      6.160  0.3915E+03  0.1187E+04
      6.207  0.3983E+03  0.1205E+04
      6.254  0.4092E+03  0.1224E+04
      6.300  0.4268E+03  0.1244E+04
      6.347  0.4462E+03  0.1265E+04
      6.393  0.4572E+03  0.1286E+04
      6.440  0.4571E+03  0.1308E+04
      6.487  0.4532E+03  0.1329E+04
      6.533  0.4502E+03  0.1350E+04
      6.580  0.4459E+03  0.1370E+04
      6.626  0.4395E+03  0.1391E+04
      6.673  0.4320E+03  0.1411E+04
      6.720  0.4248E+03  0.1431E+04
      6.766  0.4169E+03  0.1450E+04
      6.813  0.4018E+03  0.1469E+04
      6.859  0.3772E+03  0.1487E+04
      6.906  0.3547E+03  0.1503E+04
      6.953  0.3444E+03  0.1519E+04
      6.999  0.3395E+03  0.1535E+04
      7.046  0.3280E+03  0.1550E+04
      7.092  0.3150E+03  0.1565E+04
      7.139  0.3134E+03  0.1580E+04
      7.186  0.3193E+03  0.1594E+04
      7.232  0.3137E+03  0.1609E+04
      7.279  0.2880E+03  0.1622E+04
      7.325  0.2562E+03  0.1634E+04
      7.372  0.2402E+03  0.1646E+04
      7.419  0.2484E+03  0.1657E+04
      7.465  0.2708E+03  0.1670E+04
      7.512  0.2846E+03  0.1683E+04
      7.558  0.2768E+03  0.1696E+04
      7.605  0.2588E+03  0.1708E+04
      7.652  0.2483E+03  0.1720E+04
      7.698  0.2568E+03  0.1732E+04
      7.745  0.2823E+03  0.1745E+04
      7.791  0.3051E+03  0.1759E+04
      7.838  0.3120E+03  0.1773E+04
      7.885  0.3089E+03  0.1788E+04
      7.931  0.3032E+03  0.1802E+04
      7.978  0.2961E+03  0.1816E+04
      8.024  0.2909E+03  0.1829E+04
      8.071  0.2956E+03  0.1843E+04
      8.118  0.3090E+03  0.1857E+04
      8.164  0.3170E+03  0.1872E+04
      8.211  0.3177E+03  0.1887E+04
      8.257  0.3295E+03  0.1902E+04
      8.304  0.3533E+03  0.1919E+04
      8.350  0.3626E+03  0.1936E+04
      8.397  0.3406E+03  0.1952E+04
      8.444  0.3008E+03  0.1966E+04
      8.490  0.2673E+03  0.1978E+04
      8.537  0.2555E+03  0.1990E+04
      8.583  0.2704E+03  0.2003E+04
      8.630  0.2952E+03  0.2016E+04
      8.677  0.3005E+03  0.2030E+04
      8.723  0.2845E+03  0.2044E+04
      8.770  0.2679E+03  0.2056E+04
      8.816  0.2571E+03  0.2068E+04
      8.863  0.2490E+03  0.2080E+04
      8.910  0.2449E+03  0.2091E+04
      8.956  0.2452E+03  0.2103E+04
      9.003  0.2531E+03  0.2114E+04
      9.049  0.2730E+03  0.2127E+04
      9.096  0.2842E+03  0.2140E+04
      9.143  0.2667E+03  0.2153E+04
      9.189  0.2412E+03  0.2164E+04
      9.236  0.2284E+03  0.2175E+04
      9.282  0.2201E+03  0.2185E+04
      9.329  0.2138E+03  0.2195E+04
      9.376  0.2215E+03  0.2205E+04
      9.422  0.2419E+03  0.2216E+04
      9.469  0.2620E+03  0.2229E+04
      9.515  0.2735E+03  0.2241E+04
      9.562  0.2773E+03  0.2254E+04
      9.609  0.2763E+03  0.2267E+04
      9.655  0.2711E+03  0.2280E+04
      9.702  0.2613E+03  0.2292E+04
      9.748  0.2443E+03  0.2303E+04
      9.795  0.2246E+03  0.2314E+04
      9.842  0.2194E+03  0.2324E+04
      9.888  0.2361E+03  0.2335E+04
      9.935  0.2636E+03  0.2347E+04
      9.981  0.2944E+03  0.2361E+04
     10.028  0.3266E+03  0.2376E+04
     10.075  0.3489E+03  0.2393E+04
     10.121  0.3467E+03  0.2409E+04
     10.168  0.3245E+03  0.2424E+04
     10.214  0.3102E+03  0.2438E+04
     10.261  0.3283E+03  0.2454E+04
     10.308  0.3856E+03  0.2472E+04
     10.354  0.4649E+03  0.2493E+04
     10.401  0.5182E+03  0.2517E+04
     10.447  0.5100E+03  0.2541E+04
     10.494  0.4520E+03  0.2562E+04
     10.541  0.3755E+03  0.2580E+04
     10.587  0.3035E+03  0.2594E+04
     10.634  0.2491E+03  0.2605E+04
     10.680  0.2130E+03  0.2615E+04
     10.727  0.1816E+03  0.2624E+04
     10.774  0.1429E+03  0.2630E+04
     10.820  0.9818E+02  0.2635E+04
     10.867  0.5723E+02  0.2638E+04
     10.913  0.2795E+02  0.2639E+04
     10.960  0.1085E+02  0.2639E+04
     11.007  0.3109E+01  0.2640E+04
     11.053  0.1321E+01  0.2640E+04
     11.100  0.1709E+01  0.2640E+04
     11.146  0.1598E+01  0.2640E+04
     11.193  0.7019E+00  0.2640E+04
     11.240  0.2228E-01  0.2640E+04
     11.286 -0.1131E+00  0.2640E+04
     11.333 -0.5158E-01  0.2640E+04
     11.379 -0.1138E-01  0.2640E+04
     11.426 -0.3497E-02  0.2640E+04
     11.473 -0.1316E-01  0.2640E+04
     11.519 -0.4238E-01  0.2640E+04
     11.566 -0.3578E-01  0.2640E+04
     11.612  0.2000E+00  0.2640E+04
     11.659  0.7162E+00  0.2640E+04
     11.706  0.1026E+01  0.2640E+04
     11.752  0.7221E+00  0.2640E+04
     11.799  0.2046E+00  0.2640E+04
     11.845 -0.3485E-01  0.2640E+04
     11.892 -0.4274E-01  0.2640E+04
     11.939 -0.1328E-01  0.2640E+04
     11.985 -0.2152E-02  0.2640E+04
     12.032 -0.2046E-03  0.2640E+04
     12.078 -0.1192E-04  0.2640E+04
     12.125 -0.4339E-06  0.2640E+04
     12.172 -0.9987E-08  0.2640E+04
     12.218 -0.1463E-09  0.2640E+04
     12.265 -0.1370E-11  0.2640E+04
     12.311 -0.8339E-14  0.2640E+04
     12.358  0.0000E+00  0.2640E+04
     12.405  0.0000E+00  0.2640E+04
     12.451  0.0000E+00  0.2640E+04
     12.498  0.0000E+00  0.2640E+04
     12.544  0.0000E+00  0.2640E+04
     12.591  0.0000E+00  0.2640E+04
     12.638  0.0000E+00  0.2640E+04
     12.684  0.0000E+00  0.2640E+04
