       N       E                     dE             d eps       ncg     rms          rms(c)
DAV:   1     0.112830219086E+05    0.11283E+05   -0.55466E+05 95400   0.810E+02
DAV:   2    -0.143892452936E+04   -0.12722E+05   -0.12145E+05 95800   0.337E+02
DAV:   3    -0.241083293577E+04   -0.97191E+03   -0.89389E+03135260   0.780E+01
DAV:   4    -0.248224741633E+04   -0.71414E+02   -0.68984E+02131840   0.209E+01
DAV:   5    -0.248511815798E+04   -0.28707E+01   -0.28145E+01140000   0.333E+00    0.779E+01
RMM:   6    -0.241643670729E+04    0.68681E+02   -0.68064E+02105889   0.245E+01    0.623E+01
RMM:   7    -0.236999381771E+04    0.46443E+02   -0.35223E+02 97765   0.172E+01    0.455E+01
RMM:   8    -0.233986271185E+04    0.30131E+02   -0.15708E+02 97691   0.114E+01    0.321E+01
RMM:   9    -0.231562197321E+04    0.24241E+02   -0.34508E+01 98731   0.532E+00    0.616E+00
RMM:  10    -0.231540844594E+04    0.21353E+00   -0.73880E+00136435   0.154E+00    0.344E+00
RMM:  11    -0.231522018728E+04    0.18826E+00   -0.13225E+00119205   0.848E-01    0.366E+00
RMM:  12    -0.231490285515E+04    0.31733E+00   -0.47283E-01118715   0.503E-01    0.215E+00
RMM:  13    -0.231477809141E+04    0.12476E+00   -0.25213E-01112178   0.430E-01    0.133E+00
RMM:  14    -0.231475757451E+04    0.20517E-01   -0.15561E-01112191   0.325E-01    0.145E+00
RMM:  15    -0.231472987435E+04    0.27700E-01   -0.49826E-02119873   0.141E-01    0.987E-01
RMM:  16    -0.231471465065E+04    0.15224E-01   -0.20308E-02111658   0.115E-01    0.477E-01
RMM:  17    -0.231471151500E+04    0.31356E-02   -0.15490E-02120140   0.889E-02    0.204E-01
RMM:  18    -0.231471245051E+04   -0.93551E-03   -0.10230E-02131176   0.646E-02    0.234E-01
RMM:  19    -0.231471209946E+04    0.35106E-03   -0.14579E-03130556   0.213E-02    0.197E-01
RMM:  20    -0.231471161549E+04    0.48396E-03   -0.40853E-04117633   0.142E-02    0.136E-01
RMM:  21    -0.231471122356E+04    0.39193E-03   -0.80872E-04118534   0.208E-02    0.442E-02
RMM:  22    -0.231471118110E+04    0.42458E-04   -0.29490E-04135939   0.104E-02
   1 F= -.23147112E+04 E0= -.23147188E+04  d E =0.229713E-01
