<?xml version="1.0" encoding="ISO-8859-1"?>
<modeling>
 <generator>
  <i name="program" type="string">vasp </i>
  <i name="version" type="string">5.4.1  </i>
  <i name="subversion" type="string">24Jun15 (build Feb 03 2017 16:24:58) complex                          parallel </i>
  <i name="platform" type="string">IFC91_ompi </i>
  <i name="date" type="string">2018 07 01 </i>
  <i name="time" type="string">12:07:38 </i>
 </generator>
 <incar>
  <i type="string" name="SYSTEM"> Ir_Ru</i>
  <i type="int" name="ISTART">     0</i>
  <i type="string" name="PREC">accurate</i>
  <i type="string" name="ALGO"> Fast</i>
  <i type="int" name="ICHARG">     2</i>
  <i type="int" name="NELMIN">     5</i>
  <i type="int" name="IBRION">    -1</i>
  <i name="EDIFFG">      0.00001000</i>
  <i type="int" name="ISIF">     2</i>
  <i type="string" name="LREAL"> AUTO</i>
  <i type="int" name="ISMEAR">     1</i>
  <i name="SIGMA">      0.10000000</i>
  <v type="int" name="KPOINT_BSE">    -1     0     0     0</v>
 </incar>
 <kpoints>
  <generation param="Gamma">
   <v type="int" name="divisions">       4        4        4 </v>
   <v name="usershift">      0.00000000       0.00000000       0.00000000 </v>
   <v name="genvec1">      0.25000000       0.00000000      -0.00000000 </v>
   <v name="genvec2">      0.00000000       0.25000000       0.00000000 </v>
   <v name="genvec3">     -0.00000000      -0.00000000       0.25000000 </v>
   <v name="shift">      0.00000000       0.00000000       0.00000000 </v>
  </generation>
  <varray name="kpointlist" >
   <v>       0.00000000       0.00000000       0.00000000 </v>
   <v>       0.25000000      -0.00000000      -0.00000000 </v>
   <v>       0.50000000      -0.00000000      -0.00000000 </v>
   <v>      -0.00000000       0.25000000       0.00000000 </v>
   <v>       0.25000000       0.25000000      -0.00000000 </v>
   <v>       0.50000000       0.25000000      -0.00000000 </v>
   <v>      -0.25000000       0.25000000       0.00000000 </v>
   <v>      -0.00000000       0.50000000       0.00000000 </v>
   <v>       0.25000000       0.50000000      -0.00000000 </v>
   <v>       0.50000000       0.50000000      -0.00000000 </v>
   <v>      -0.00000000      -0.00000000       0.25000000 </v>
   <v>       0.25000000      -0.00000000       0.25000000 </v>
   <v>       0.50000000      -0.00000000       0.25000000 </v>
   <v>      -0.25000000       0.00000000       0.25000000 </v>
   <v>      -0.00000000       0.25000000       0.25000000 </v>
   <v>       0.25000000       0.25000000       0.25000000 </v>
   <v>       0.50000000       0.25000000       0.25000000 </v>
   <v>      -0.25000000       0.25000000       0.25000000 </v>
   <v>      -0.00000000       0.50000000       0.25000000 </v>
   <v>       0.25000000       0.50000000       0.25000000 </v>
   <v>       0.50000000       0.50000000       0.25000000 </v>
   <v>      -0.25000000       0.50000000       0.25000000 </v>
   <v>       0.00000000      -0.25000000       0.25000000 </v>
   <v>       0.25000000      -0.25000000       0.25000000 </v>
   <v>       0.50000000      -0.25000000       0.25000000 </v>
   <v>      -0.25000000      -0.25000000       0.25000000 </v>
   <v>      -0.00000000      -0.00000000       0.50000000 </v>
   <v>       0.25000000      -0.00000000       0.50000000 </v>
   <v>       0.50000000      -0.00000000       0.50000000 </v>
   <v>      -0.00000000       0.25000000       0.50000000 </v>
   <v>       0.25000000       0.25000000       0.50000000 </v>
   <v>       0.50000000       0.25000000       0.50000000 </v>
   <v>      -0.25000000       0.25000000       0.50000000 </v>
   <v>      -0.00000000       0.50000000       0.50000000 </v>
   <v>       0.25000000       0.50000000       0.50000000 </v>
   <v>       0.50000000       0.50000000       0.50000000 </v>
  </varray>
  <varray name="weights" >
   <v>       0.01562500 </v>
   <v>       0.03125000 </v>
   <v>       0.01562500 </v>
   <v>       0.03125000 </v>
   <v>       0.03125000 </v>
   <v>       0.03125000 </v>
   <v>       0.03125000 </v>
   <v>       0.01562500 </v>
   <v>       0.03125000 </v>
   <v>       0.01562500 </v>
   <v>       0.03125000 </v>
   <v>       0.03125000 </v>
   <v>       0.03125000 </v>
   <v>       0.03125000 </v>
   <v>       0.03125000 </v>
   <v>       0.03125000 </v>
   <v>       0.03125000 </v>
   <v>       0.03125000 </v>
   <v>       0.03125000 </v>
   <v>       0.03125000 </v>
   <v>       0.03125000 </v>
   <v>       0.03125000 </v>
   <v>       0.03125000 </v>
   <v>       0.03125000 </v>
   <v>       0.03125000 </v>
   <v>       0.03125000 </v>
   <v>       0.01562500 </v>
   <v>       0.03125000 </v>
   <v>       0.01562500 </v>
   <v>       0.03125000 </v>
   <v>       0.03125000 </v>
   <v>       0.03125000 </v>
   <v>       0.03125000 </v>
   <v>       0.01562500 </v>
   <v>       0.03125000 </v>
   <v>       0.01562500 </v>
  </varray>
 </kpoints>
 <parameters>
  <separator name="general" >
   <i type="string" name="SYSTEM">Ir_Ru</i>
   <i type="logical" name="LCOMPAT"> F  </i>
  </separator>
  <separator name="electronic" >
   <i type="string" name="PREC">accura</i>
   <i name="ENMAX">    213.27600000</i>
   <i name="ENAUG">    333.49400000</i>
   <i name="EDIFF">      0.00010000</i>
   <i type="int" name="IALGO">    68</i>
   <i type="int" name="IWAVPR">    10</i>
   <i type="int" name="NBANDS">  1320</i>
   <i name="NELECT">   2176.00000000</i>
   <i type="int" name="TURBO">     0</i>
   <i type="int" name="IRESTART">     0</i>
   <i type="int" name="NREBOOT">     0</i>
   <i type="int" name="NMIN">     0</i>
   <i name="EREF">      0.00000000</i>
   <separator name="electronic smearing" >
    <i type="int" name="ISMEAR">     1</i>
    <i name="SIGMA">      0.10000000</i>
    <i name="KSPACING">      0.50000000</i>
    <i type="logical" name="KGAMMA"> T  </i>
   </separator>
   <separator name="electronic projectors" >
    <i type="logical" name="LREAL"> T  </i>
    <v name="ROPT">     -0.00025000     -0.00025000</v>
    <i type="int" name="LMAXPAW">  -100</i>
    <i type="int" name="LMAXMIX">     2</i>
    <i type="logical" name="NLSPLINE"> F  </i>
   </separator>
   <separator name="electronic startup" >
    <i type="int" name="ISTART">     0</i>
    <i type="int" name="ICHARG">     2</i>
    <i type="int" name="INIWAV">     1</i>
   </separator>
   <separator name="electronic spin" >
    <i type="int" name="ISPIN">     1</i>
    <i type="logical" name="LNONCOLLINEAR"> F  </i>
    <v name="MAGMOM">      1.00000000      1.00000000      1.00000000      1.00000000      1.00000000      1.00000000      1.00000000      1.00000000      1.00000000      1.00000000      1.00000000      1.00000000      1.00000000      1.00000000      1.00000000      1.00000000      1.00000000      1.00000000      1.00000000      1.00000000
      1.00000000      1.00000000      1.00000000      1.00000000      1.00000000      1.00000000      1.00000000      1.00000000      1.00000000      1.00000000      1.00000000      1.00000000      1.00000000      1.00000000      1.00000000      1.00000000      1.00000000      1.00000000      1.00000000      1.00000000
      1.00000000      1.00000000      1.00000000      1.00000000      1.00000000      1.00000000      1.00000000      1.00000000      1.00000000      1.00000000      1.00000000      1.00000000      1.00000000      1.00000000      1.00000000      1.00000000      1.00000000      1.00000000      1.00000000      1.00000000
      1.00000000      1.00000000      1.00000000      1.00000000      1.00000000      1.00000000      1.00000000      1.00000000      1.00000000      1.00000000      1.00000000      1.00000000      1.00000000      1.00000000      1.00000000      1.00000000      1.00000000      1.00000000      1.00000000      1.00000000
      1.00000000      1.00000000      1.00000000      1.00000000      1.00000000      1.00000000      1.00000000      1.00000000      1.00000000      1.00000000      1.00000000      1.00000000      1.00000000      1.00000000      1.00000000      1.00000000      1.00000000      1.00000000      1.00000000      1.00000000
      1.00000000      1.00000000      1.00000000      1.00000000      1.00000000      1.00000000      1.00000000      1.00000000      1.00000000      1.00000000      1.00000000      1.00000000      1.00000000      1.00000000      1.00000000      1.00000000      1.00000000      1.00000000      1.00000000      1.00000000
      1.00000000      1.00000000      1.00000000      1.00000000      1.00000000      1.00000000      1.00000000      1.00000000      1.00000000      1.00000000      1.00000000      1.00000000      1.00000000      1.00000000      1.00000000      1.00000000      1.00000000      1.00000000      1.00000000      1.00000000
      1.00000000      1.00000000      1.00000000      1.00000000      1.00000000      1.00000000      1.00000000      1.00000000      1.00000000      1.00000000      1.00000000      1.00000000      1.00000000      1.00000000      1.00000000      1.00000000      1.00000000      1.00000000      1.00000000      1.00000000
      1.00000000      1.00000000      1.00000000      1.00000000      1.00000000      1.00000000      1.00000000      1.00000000      1.00000000      1.00000000      1.00000000      1.00000000      1.00000000      1.00000000      1.00000000      1.00000000      1.00000000      1.00000000      1.00000000      1.00000000
      1.00000000      1.00000000      1.00000000      1.00000000      1.00000000      1.00000000      1.00000000      1.00000000      1.00000000      1.00000000      1.00000000      1.00000000      1.00000000      1.00000000      1.00000000      1.00000000      1.00000000      1.00000000      1.00000000      1.00000000
      1.00000000      1.00000000      1.00000000      1.00000000      1.00000000      1.00000000      1.00000000      1.00000000      1.00000000      1.00000000      1.00000000      1.00000000      1.00000000      1.00000000      1.00000000      1.00000000      1.00000000      1.00000000      1.00000000      1.00000000
      1.00000000      1.00000000      1.00000000      1.00000000      1.00000000      1.00000000      1.00000000      1.00000000      1.00000000      1.00000000      1.00000000      1.00000000      1.00000000      1.00000000      1.00000000      1.00000000      1.00000000      1.00000000      1.00000000      1.00000000
      1.00000000      1.00000000      1.00000000      1.00000000      1.00000000      1.00000000      1.00000000      1.00000000      1.00000000      1.00000000      1.00000000      1.00000000      1.00000000      1.00000000      1.00000000      1.00000000</v>
    <i name="NUPDOWN">     -1.00000000</i>
    <i type="logical" name="LSORBIT"> F  </i>
    <v name="SAXIS">      0.00000000      0.00000000      1.00000000</v>
    <i type="logical" name="LSPIRAL"> F  </i>
    <v name="QSPIRAL">      0.00000000      0.00000000      0.00000000</v>
    <i type="logical" name="LZEROZ"> F  </i>
   </separator>
   <separator name="electronic exchange-correlation" >
    <i type="logical" name="LASPH"> F  </i>
    <i type="logical" name="LMETAGGA"> F  </i>
   </separator>
   <separator name="electronic convergence" >
    <i type="int" name="NELM">    60</i>
    <i type="int" name="NELMDL">    -5</i>
    <i type="int" name="NELMIN">     5</i>
    <i name="ENINI">    213.27600000</i>
    <separator name="electronic convergence detail" >
     <i type="logical" name="LDIAG"> T  </i>
     <i type="logical" name="LSUBROT"> F  </i>
     <i name="WEIMIN">      0.00000000</i>
     <i name="EBREAK">      0.00000000</i>
     <i name="DEPER">      0.30000000</i>
     <i type="int" name="NRMM">     4</i>
     <i name="TIME">      0.40000000</i>
    </separator>
   </separator>
   <separator name="electronic mixer" >
    <i name="AMIX">      0.40000000</i>
    <i name="BMIX">      1.00000000</i>
    <i name="AMIN">      0.10000000</i>
    <i name="AMIX_MAG">      1.60000000</i>
    <i name="BMIX_MAG">      1.00000000</i>
    <separator name="electronic mixer details" >
     <i type="int" name="IMIX">     4</i>
     <i type="logical" name="MIXFIRST"> F  </i>
     <i type="int" name="MAXMIX">   -45</i>
     <i name="WC">    100.00000000</i>
     <i type="int" name="INIMIX">     1</i>
     <i type="int" name="MIXPRE">     1</i>
     <i type="int" name="MREMOVE">     5</i>
    </separator>
   </separator>
   <separator name="electronic dipolcorrection" >
    <i type="logical" name="LDIPOL"> F  </i>
    <i type="logical" name="LMONO"> F  </i>
    <i type="int" name="IDIPOL">     0</i>
    <i name="EPSILON">      1.00000000</i>
    <v name="DIPOL">   -100.00000000   -100.00000000   -100.00000000</v>
    <i name="EFIELD">      0.00000000</i>
   </separator>
  </separator>
  <separator name="grids" >
   <i type="int" name="NGX">    80</i>
   <i type="int" name="NGY">    80</i>
   <i type="int" name="NGZ">    80</i>
   <i type="int" name="NGXF">   160</i>
   <i type="int" name="NGYF">   160</i>
   <i type="int" name="NGZF">   160</i>
   <i type="logical" name="ADDGRID"> F  </i>
  </separator>
  <separator name="ionic" >
   <i type="int" name="NSW">     0</i>
   <i type="int" name="IBRION">    -1</i>
   <i type="int" name="ISIF">     2</i>
   <i name="PSTRESS">      0.00000000</i>
   <i name="EDIFFG">      0.00001000</i>
   <i type="int" name="NFREE">     0</i>
   <i name="POTIM">      0.50000000</i>
   <i name="SMASS">     -3.00000000</i>
   <i name="SCALEE">      1.00000000</i>
  </separator>
  <separator name="ionic md" >
   <i name="TEBEG">      0.00010000</i>
   <i name="TEEND">      0.00010000</i>
   <i type="int" name="NBLOCK">     1</i>
   <i type="int" name="KBLOCK">     1</i>
   <i type="int" name="NPACO">   256</i>
   <i name="APACO">     16.00000000</i>
  </separator>
  <separator name="symmetry" >
   <i type="int" name="ISYM">     2</i>
   <i name="SYMPREC">      0.00001000</i>
  </separator>
  <separator name="dos" >
   <i type="logical" name="LORBIT"> F  </i>
   <v name="RWIGS">     -1.00000000     -1.00000000</v>
   <i type="int" name="NEDOS">   301</i>
   <i name="EMIN">     10.00000000</i>
   <i name="EMAX">    -10.00000000</i>
   <i name="EFERMI">      0.00000000</i>
  </separator>
  <separator name="writing" >
   <i type="int" name="NWRITE">     2</i>
   <i type="logical" name="LWAVE"> T  </i>
   <i type="logical" name="LCHARG"> T  </i>
   <i type="logical" name="LPARD"> F  </i>
   <i type="logical" name="LVTOT"> F  </i>
   <i type="logical" name="LVHAR"> F  </i>
   <i type="logical" name="LELF"> F  </i>
   <i type="logical" name="LOPTICS"> F  </i>
   <v name="STM">      0.00000000      0.00000000      0.00000000      0.00000000      0.00000000      0.00000000      0.00000000</v>
  </separator>
  <separator name="performance" >
   <i type="int" name="NPAR">    20</i>
   <i type="int" name="NSIM">     4</i>
   <i type="int" name="NBLK">    -1</i>
   <i type="logical" name="LPLANE"> T  </i>
   <i type="logical" name="LSCALAPACK"> T  </i>
   <i type="logical" name="LSCAAWARE"> F  </i>
   <i type="logical" name="LSCALU"> F  </i>
   <i type="logical" name="LASYNC"> F  </i>
   <i type="logical" name="LORBITALREAL"> F  </i>
  </separator>
  <separator name="miscellaneous" >
   <i type="int" name="IDIOT">     3</i>
   <i type="logical" name="LMUSIC"> F  </i>
   <v name="POMASS">    192.22000000    101.07000000</v>
   <v name="DARWINR">      0.00000000      0.00000000</v>
   <v name="DARWINV">      1.00000000      1.00000000</v>
   <i type="logical" name="LCORR"> T  </i>
  </separator>
  <i type="logical" name="GGA_COMPAT"> T  </i>
  <i type="logical" name="LBERRY"> F  </i>
  <i type="int" name="ICORELEVEL">     0</i>
  <i type="logical" name="LDAU"> F  </i>
  <i type="int" name="I_CONSTRAINED_M">     0</i>
  <separator name="electronic exchange-correlation" >
   <i type="string" name="GGA">--</i>
   <i type="int" name="VOSKOWN">     0</i>
   <i type="logical" name="LHFCALC"> F  </i>
   <i type="string" name="PRECFOCK"></i>
   <i type="logical" name="LSYMGRAD"> F  </i>
   <i type="logical" name="LHFONE"> F  </i>
   <i type="logical" name="LRHFCALC"> F  </i>
   <i type="logical" name="LTHOMAS"> F  </i>
   <i type="logical" name="LMODELHF"> F  </i>
   <i name="ENCUT4O">     -1.00000000</i>
   <i type="int" name="EXXOEP">     0</i>
   <i type="int" name="FOURORBIT">     0</i>
   <i name="AEXX">      0.00000000</i>
   <i name="HFALPHA">      0.00000000</i>
   <i name="MCALPHA">      0.00000000</i>
   <i name="ALDAX">      1.00000000</i>
   <i name="AGGAX">      1.00000000</i>
   <i name="ALDAC">      1.00000000</i>
   <i name="AGGAC">      1.00000000</i>
   <i type="int" name="NKREDX">     1</i>
   <i type="int" name="NKREDY">     1</i>
   <i type="int" name="NKREDZ">     1</i>
   <i type="logical" name="SHIFTRED"> F  </i>
   <i type="logical" name="ODDONLY"> F  </i>
   <i type="logical" name="EVENONLY"> F  </i>
   <i type="int" name="LMAXFOCK">     0</i>
   <i type="int" name="NMAXFOCKAE">     0</i>
   <i type="logical" name="LFOCKAEDFT"> F  </i>
   <i name="HFSCREEN">      0.00000000</i>
   <i name="HFSCREENC">      0.00000000</i>
   <i type="int" name="NBANDSGWLOW">     0</i>
  </separator>
  <separator name="vdW DFT" >
   <i type="logical" name="LUSE_VDW"> F  </i>
   <i name="Zab_VDW">     -0.84910000</i>
   <i name="PARAM1">      0.12340000</i>
   <i name="PARAM2">      1.00000000</i>
   <i name="PARAM3">      0.00000000</i>
  </separator>
  <separator name="model GW" >
   <i type="int" name="MODEL_GW">     0</i>
   <i name="MODEL_EPS0">      8.51523704</i>
   <i name="MODEL_ALPHA">      1.00000000</i>
  </separator>
  <separator name="linear response parameters" >
   <i type="logical" name="LEPSILON"> F  </i>
   <i type="logical" name="LRPA"> F  </i>
   <i type="logical" name="LNABLA"> F  </i>
   <i type="logical" name="LVEL"> F  </i>
   <i type="int" name="KINTER">     0</i>
   <i name="CSHIFT">      0.10000000</i>
   <i name="OMEGAMAX">     -1.00000000</i>
   <i name="DEG_THRESHOLD">      0.00200000</i>
  </separator>
  <separator name="orbital magnetization" >
   <i type="logical" name="NUCIND"> F  </i>
   <v name="MAGPOS">      0.00000000      0.00000000      0.00000000</v>
   <i type="logical" name="LNICSALL"> T  </i>
   <i type="logical" name="ORBITALMAG"> F  </i>
   <i type="logical" name="LMAGBLOCH"> F  </i>
   <i type="logical" name="LCHIMAG"> F  </i>
   <i type="logical" name="LGAUGE"> T  </i>
   <i type="int" name="MAGATOM">     0</i>
   <v name="MAGDIPOL">      0.00000000      0.00000000      0.00000000</v>
   <v name="AVECCONST">      0.00000000      0.00000000      0.00000000</v>
  </separator>
  <separator name="response functions" >
   <i type="logical" name="LADDER"> F  </i>
   <i type="logical" name="LFXC"> F  </i>
   <i type="logical" name="LHARTREE"> T  </i>
   <i type="int" name="IBSE">     0</i>
   <v type="int" name="KPOINT">    -1     0     0     0</v>
   <i type="logical" name="LTCTE"> F  </i>
   <i type="logical" name="LTETE"> F  </i>
   <i type="logical" name="LTRIPLET"> F  </i>
   <i type="logical" name="LFXCEPS"> F  </i>
   <i type="logical" name="LFXHEG"> F  </i>
   <i type="int" name="NATURALO">     0</i>
   <i type="logical" name="L2ORDER"> F  </i>
   <i type="logical" name="LUSEW"> F  </i>
   <i name="ENCUTGW">     -2.00000000</i>
   <i name="ENCUTGWSOFT">     -2.00000000</i>
   <i name="ENCUTLF">     -1.00000000</i>
   <i type="int" name="LMAXMP2">    -1</i>
   <i name="SCISSOR">      0.00000000</i>
   <i type="int" name="NOMEGA">     0</i>
   <i type="int" name="NOMEGAR">     0</i>
   <i type="int" name="NBANDSGW">    -1</i>
   <i type="int" name="NBANDSO">    -1</i>
   <i type="int" name="NBANDSV">    -1</i>
   <i type="int" name="NELM">     1</i>
   <i type="int" name="NELMHF">     1</i>
   <i type="int" name="DIM">     3</i>
   <i type="int" name="ANTIRES">     0</i>
   <i name="OMEGAMAX">    -30.00000000</i>
   <i name="OMEGAMIN">    -30.00000000</i>
   <i name="OMEGATL">   -200.00000000</i>
   <i type="int" name="OMEGAGRID">     0</i>
   <i name="CSHIFT">     -0.10000000</i>
   <i type="logical" name="SELFENERGY"> F  </i>
   <i type="logical" name="LSPECTRAL"> F  </i>
   <i type="logical" name="LSPECTRALGW"> F  </i>
   <i type="logical" name="LSINGLES"> F  </i>
   <i type="logical" name="LFERMIGW"> F  </i>
   <i type="logical" name="ODDONLYGW"> F  </i>
   <i type="logical" name="EVENONLYGW"> F  </i>
   <i type="int" name="NKREDLFX">     1</i>
   <i type="int" name="NKREDLFY">     1</i>
   <i type="int" name="NKREDLFZ">     1</i>
   <i type="int" name="MAXMEM">  1800</i>
   <i type="int" name="TELESCOPE">     0</i>
   <i type="int" name="TAUPAR">     1</i>
   <i type="int" name="OMEGAPAR">    -1</i>
   <i name="LAMBDA">      1.00000000</i>
  </separator>
  <separator name="External order field" >
   <i name="OFIELD_KAPPA">      0.00000000</i>
   <v name="OFIELD_K">      0.00000000      0.00000000      0.00000000</v>
   <i name="OFIELD_Q6_NEAR">      0.00000000</i>
   <i name="OFIELD_Q6_FAR">      0.00000000</i>
   <i name="OFIELD_A">      0.00000000</i>
  </separator>
 </parameters>
 <atominfo>
  <atoms>     256 </atoms>
  <types>       2 </types>
  <array name="atoms" >
   <dimension dim="1">ion</dimension>
   <field type="string">element</field>
   <field type="int">atomtype</field>
   <set>
    <rc><c>Ir</c><c>   1</c></rc>
    <rc><c>Ir</c><c>   1</c></rc>
    <rc><c>Ir</c><c>   1</c></rc>
    <rc><c>Ir</c><c>   1</c></rc>
    <rc><c>Ir</c><c>   1</c></rc>
    <rc><c>Ir</c><c>   1</c></rc>
    <rc><c>Ir</c><c>   1</c></rc>
    <rc><c>Ir</c><c>   1</c></rc>
    <rc><c>Ir</c><c>   1</c></rc>
    <rc><c>Ir</c><c>   1</c></rc>
    <rc><c>Ir</c><c>   1</c></rc>
    <rc><c>Ir</c><c>   1</c></rc>
    <rc><c>Ir</c><c>   1</c></rc>
    <rc><c>Ir</c><c>   1</c></rc>
    <rc><c>Ir</c><c>   1</c></rc>
    <rc><c>Ir</c><c>   1</c></rc>
    <rc><c>Ir</c><c>   1</c></rc>
    <rc><c>Ir</c><c>   1</c></rc>
    <rc><c>Ir</c><c>   1</c></rc>
    <rc><c>Ir</c><c>   1</c></rc>
    <rc><c>Ir</c><c>   1</c></rc>
    <rc><c>Ir</c><c>   1</c></rc>
    <rc><c>Ir</c><c>   1</c></rc>
    <rc><c>Ir</c><c>   1</c></rc>
    <rc><c>Ir</c><c>   1</c></rc>
    <rc><c>Ir</c><c>   1</c></rc>
    <rc><c>Ir</c><c>   1</c></rc>
    <rc><c>Ir</c><c>   1</c></rc>
    <rc><c>Ir</c><c>   1</c></rc>
    <rc><c>Ir</c><c>   1</c></rc>
    <rc><c>Ir</c><c>   1</c></rc>
    <rc><c>Ir</c><c>   1</c></rc>
    <rc><c>Ir</c><c>   1</c></rc>
    <rc><c>Ir</c><c>   1</c></rc>
    <rc><c>Ir</c><c>   1</c></rc>
    <rc><c>Ir</c><c>   1</c></rc>
    <rc><c>Ir</c><c>   1</c></rc>
    <rc><c>Ir</c><c>   1</c></rc>
    <rc><c>Ir</c><c>   1</c></rc>
    <rc><c>Ir</c><c>   1</c></rc>
    <rc><c>Ir</c><c>   1</c></rc>
    <rc><c>Ir</c><c>   1</c></rc>
    <rc><c>Ir</c><c>   1</c></rc>
    <rc><c>Ir</c><c>   1</c></rc>
    <rc><c>Ir</c><c>   1</c></rc>
    <rc><c>Ir</c><c>   1</c></rc>
    <rc><c>Ir</c><c>   1</c></rc>
    <rc><c>Ir</c><c>   1</c></rc>
    <rc><c>Ir</c><c>   1</c></rc>
    <rc><c>Ir</c><c>   1</c></rc>
    <rc><c>Ir</c><c>   1</c></rc>
    <rc><c>Ir</c><c>   1</c></rc>
    <rc><c>Ir</c><c>   1</c></rc>
    <rc><c>Ir</c><c>   1</c></rc>
    <rc><c>Ir</c><c>   1</c></rc>
    <rc><c>Ir</c><c>   1</c></rc>
    <rc><c>Ir</c><c>   1</c></rc>
    <rc><c>Ir</c><c>   1</c></rc>
    <rc><c>Ir</c><c>   1</c></rc>
    <rc><c>Ir</c><c>   1</c></rc>
    <rc><c>Ir</c><c>   1</c></rc>
    <rc><c>Ir</c><c>   1</c></rc>
    <rc><c>Ir</c><c>   1</c></rc>
    <rc><c>Ir</c><c>   1</c></rc>
    <rc><c>Ir</c><c>   1</c></rc>
    <rc><c>Ir</c><c>   1</c></rc>
    <rc><c>Ir</c><c>   1</c></rc>
    <rc><c>Ir</c><c>   1</c></rc>
    <rc><c>Ir</c><c>   1</c></rc>
    <rc><c>Ir</c><c>   1</c></rc>
    <rc><c>Ir</c><c>   1</c></rc>
    <rc><c>Ir</c><c>   1</c></rc>
    <rc><c>Ir</c><c>   1</c></rc>
    <rc><c>Ir</c><c>   1</c></rc>
    <rc><c>Ir</c><c>   1</c></rc>
    <rc><c>Ir</c><c>   1</c></rc>
    <rc><c>Ir</c><c>   1</c></rc>
    <rc><c>Ir</c><c>   1</c></rc>
    <rc><c>Ir</c><c>   1</c></rc>
    <rc><c>Ir</c><c>   1</c></rc>
    <rc><c>Ir</c><c>   1</c></rc>
    <rc><c>Ir</c><c>   1</c></rc>
    <rc><c>Ir</c><c>   1</c></rc>
    <rc><c>Ir</c><c>   1</c></rc>
    <rc><c>Ir</c><c>   1</c></rc>
    <rc><c>Ir</c><c>   1</c></rc>
    <rc><c>Ir</c><c>   1</c></rc>
    <rc><c>Ir</c><c>   1</c></rc>
    <rc><c>Ir</c><c>   1</c></rc>
    <rc><c>Ir</c><c>   1</c></rc>
    <rc><c>Ir</c><c>   1</c></rc>
    <rc><c>Ir</c><c>   1</c></rc>
    <rc><c>Ir</c><c>   1</c></rc>
    <rc><c>Ir</c><c>   1</c></rc>
    <rc><c>Ir</c><c>   1</c></rc>
    <rc><c>Ir</c><c>   1</c></rc>
    <rc><c>Ir</c><c>   1</c></rc>
    <rc><c>Ir</c><c>   1</c></rc>
    <rc><c>Ir</c><c>   1</c></rc>
    <rc><c>Ir</c><c>   1</c></rc>
    <rc><c>Ir</c><c>   1</c></rc>
    <rc><c>Ir</c><c>   1</c></rc>
    <rc><c>Ir</c><c>   1</c></rc>
    <rc><c>Ir</c><c>   1</c></rc>
    <rc><c>Ir</c><c>   1</c></rc>
    <rc><c>Ir</c><c>   1</c></rc>
    <rc><c>Ir</c><c>   1</c></rc>
    <rc><c>Ir</c><c>   1</c></rc>
    <rc><c>Ir</c><c>   1</c></rc>
    <rc><c>Ir</c><c>   1</c></rc>
    <rc><c>Ir</c><c>   1</c></rc>
    <rc><c>Ir</c><c>   1</c></rc>
    <rc><c>Ir</c><c>   1</c></rc>
    <rc><c>Ir</c><c>   1</c></rc>
    <rc><c>Ir</c><c>   1</c></rc>
    <rc><c>Ir</c><c>   1</c></rc>
    <rc><c>Ir</c><c>   1</c></rc>
    <rc><c>Ir</c><c>   1</c></rc>
    <rc><c>Ir</c><c>   1</c></rc>
    <rc><c>Ir</c><c>   1</c></rc>
    <rc><c>Ir</c><c>   1</c></rc>
    <rc><c>Ir</c><c>   1</c></rc>
    <rc><c>Ir</c><c>   1</c></rc>
    <rc><c>Ir</c><c>   1</c></rc>
    <rc><c>Ir</c><c>   1</c></rc>
    <rc><c>Ir</c><c>   1</c></rc>
    <rc><c>Ir</c><c>   1</c></rc>
    <rc><c>Ir</c><c>   1</c></rc>
    <rc><c>Ru</c><c>   2</c></rc>
    <rc><c>Ru</c><c>   2</c></rc>
    <rc><c>Ru</c><c>   2</c></rc>
    <rc><c>Ru</c><c>   2</c></rc>
    <rc><c>Ru</c><c>   2</c></rc>
    <rc><c>Ru</c><c>   2</c></rc>
    <rc><c>Ru</c><c>   2</c></rc>
    <rc><c>Ru</c><c>   2</c></rc>
    <rc><c>Ru</c><c>   2</c></rc>
    <rc><c>Ru</c><c>   2</c></rc>
    <rc><c>Ru</c><c>   2</c></rc>
    <rc><c>Ru</c><c>   2</c></rc>
    <rc><c>Ru</c><c>   2</c></rc>
    <rc><c>Ru</c><c>   2</c></rc>
    <rc><c>Ru</c><c>   2</c></rc>
    <rc><c>Ru</c><c>   2</c></rc>
    <rc><c>Ru</c><c>   2</c></rc>
    <rc><c>Ru</c><c>   2</c></rc>
    <rc><c>Ru</c><c>   2</c></rc>
    <rc><c>Ru</c><c>   2</c></rc>
    <rc><c>Ru</c><c>   2</c></rc>
    <rc><c>Ru</c><c>   2</c></rc>
    <rc><c>Ru</c><c>   2</c></rc>
    <rc><c>Ru</c><c>   2</c></rc>
    <rc><c>Ru</c><c>   2</c></rc>
    <rc><c>Ru</c><c>   2</c></rc>
    <rc><c>Ru</c><c>   2</c></rc>
    <rc><c>Ru</c><c>   2</c></rc>
    <rc><c>Ru</c><c>   2</c></rc>
    <rc><c>Ru</c><c>   2</c></rc>
    <rc><c>Ru</c><c>   2</c></rc>
    <rc><c>Ru</c><c>   2</c></rc>
    <rc><c>Ru</c><c>   2</c></rc>
    <rc><c>Ru</c><c>   2</c></rc>
    <rc><c>Ru</c><c>   2</c></rc>
    <rc><c>Ru</c><c>   2</c></rc>
    <rc><c>Ru</c><c>   2</c></rc>
    <rc><c>Ru</c><c>   2</c></rc>
    <rc><c>Ru</c><c>   2</c></rc>
    <rc><c>Ru</c><c>   2</c></rc>
    <rc><c>Ru</c><c>   2</c></rc>
    <rc><c>Ru</c><c>   2</c></rc>
    <rc><c>Ru</c><c>   2</c></rc>
    <rc><c>Ru</c><c>   2</c></rc>
    <rc><c>Ru</c><c>   2</c></rc>
    <rc><c>Ru</c><c>   2</c></rc>
    <rc><c>Ru</c><c>   2</c></rc>
    <rc><c>Ru</c><c>   2</c></rc>
    <rc><c>Ru</c><c>   2</c></rc>
    <rc><c>Ru</c><c>   2</c></rc>
    <rc><c>Ru</c><c>   2</c></rc>
    <rc><c>Ru</c><c>   2</c></rc>
    <rc><c>Ru</c><c>   2</c></rc>
    <rc><c>Ru</c><c>   2</c></rc>
    <rc><c>Ru</c><c>   2</c></rc>
    <rc><c>Ru</c><c>   2</c></rc>
    <rc><c>Ru</c><c>   2</c></rc>
    <rc><c>Ru</c><c>   2</c></rc>
    <rc><c>Ru</c><c>   2</c></rc>
    <rc><c>Ru</c><c>   2</c></rc>
    <rc><c>Ru</c><c>   2</c></rc>
    <rc><c>Ru</c><c>   2</c></rc>
    <rc><c>Ru</c><c>   2</c></rc>
    <rc><c>Ru</c><c>   2</c></rc>
    <rc><c>Ru</c><c>   2</c></rc>
    <rc><c>Ru</c><c>   2</c></rc>
    <rc><c>Ru</c><c>   2</c></rc>
    <rc><c>Ru</c><c>   2</c></rc>
    <rc><c>Ru</c><c>   2</c></rc>
    <rc><c>Ru</c><c>   2</c></rc>
    <rc><c>Ru</c><c>   2</c></rc>
    <rc><c>Ru</c><c>   2</c></rc>
    <rc><c>Ru</c><c>   2</c></rc>
    <rc><c>Ru</c><c>   2</c></rc>
    <rc><c>Ru</c><c>   2</c></rc>
    <rc><c>Ru</c><c>   2</c></rc>
    <rc><c>Ru</c><c>   2</c></rc>
    <rc><c>Ru</c><c>   2</c></rc>
    <rc><c>Ru</c><c>   2</c></rc>
    <rc><c>Ru</c><c>   2</c></rc>
    <rc><c>Ru</c><c>   2</c></rc>
    <rc><c>Ru</c><c>   2</c></rc>
    <rc><c>Ru</c><c>   2</c></rc>
    <rc><c>Ru</c><c>   2</c></rc>
    <rc><c>Ru</c><c>   2</c></rc>
    <rc><c>Ru</c><c>   2</c></rc>
    <rc><c>Ru</c><c>   2</c></rc>
    <rc><c>Ru</c><c>   2</c></rc>
    <rc><c>Ru</c><c>   2</c></rc>
    <rc><c>Ru</c><c>   2</c></rc>
    <rc><c>Ru</c><c>   2</c></rc>
    <rc><c>Ru</c><c>   2</c></rc>
    <rc><c>Ru</c><c>   2</c></rc>
    <rc><c>Ru</c><c>   2</c></rc>
    <rc><c>Ru</c><c>   2</c></rc>
    <rc><c>Ru</c><c>   2</c></rc>
    <rc><c>Ru</c><c>   2</c></rc>
    <rc><c>Ru</c><c>   2</c></rc>
    <rc><c>Ru</c><c>   2</c></rc>
    <rc><c>Ru</c><c>   2</c></rc>
    <rc><c>Ru</c><c>   2</c></rc>
    <rc><c>Ru</c><c>   2</c></rc>
    <rc><c>Ru</c><c>   2</c></rc>
    <rc><c>Ru</c><c>   2</c></rc>
    <rc><c>Ru</c><c>   2</c></rc>
    <rc><c>Ru</c><c>   2</c></rc>
    <rc><c>Ru</c><c>   2</c></rc>
    <rc><c>Ru</c><c>   2</c></rc>
    <rc><c>Ru</c><c>   2</c></rc>
    <rc><c>Ru</c><c>   2</c></rc>
    <rc><c>Ru</c><c>   2</c></rc>
    <rc><c>Ru</c><c>   2</c></rc>
    <rc><c>Ru</c><c>   2</c></rc>
    <rc><c>Ru</c><c>   2</c></rc>
    <rc><c>Ru</c><c>   2</c></rc>
    <rc><c>Ru</c><c>   2</c></rc>
    <rc><c>Ru</c><c>   2</c></rc>
    <rc><c>Ru</c><c>   2</c></rc>
    <rc><c>Ru</c><c>   2</c></rc>
    <rc><c>Ru</c><c>   2</c></rc>
    <rc><c>Ru</c><c>   2</c></rc>
    <rc><c>Ru</c><c>   2</c></rc>
    <rc><c>Ru</c><c>   2</c></rc>
    <rc><c>Ru</c><c>   2</c></rc>
    <rc><c>Ru</c><c>   2</c></rc>
    <rc><c>Ru</c><c>   2</c></rc>
    <rc><c>Ru</c><c>   2</c></rc>
    <rc><c>Ru</c><c>   2</c></rc>
   </set>
  </array>
  <array name="atomtypes" >
   <dimension dim="1">type</dimension>
   <field type="int">atomspertype</field>
   <field type="string">element</field>
   <field>mass</field>
   <field>valence</field>
   <field type="string">pseudopotential</field>
   <set>
    <rc><c> 128</c><c>Ir</c><c>    192.22000000</c><c>      9.00000000</c><c> PAW_PBE Ir 06Sep2000                   </c></rc>
    <rc><c> 128</c><c>Ru</c><c>    101.07000000</c><c>      8.00000000</c><c> PAW_PBE Ru 06Sep2000                   </c></rc>
   </set>
  </array>
 </atominfo>
 <structure name="initialpos" >
  <crystal>
   <varray name="basis" >
    <v>       0.00188000      15.37080000       0.00140000 </v>
    <v>       0.00152000      -0.00140000     -15.37218000 </v>
    <v>     -15.37636000      -0.00188000       0.00151000 </v>
   </varray>
   <i name="volume">   3633.16780401 </i>
   <varray name="rec_basis" >
    <v>      -0.00000795       0.06505842      -0.00000593 </v>
    <v>      -0.00000639       0.00000593      -0.06505258 </v>
    <v>      -0.06503490       0.00000795      -0.00000643 </v>
   </varray>
  </crystal>
  <varray name="positions" >
   <v>       0.12544250       0.12495750       0.00137500 </v>
   <v>       0.25023500       0.87425500       0.37476000 </v>
   <v>       0.50095250       0.12407750       0.62474500 </v>
   <v>       0.37553250       0.12507750       0.50016500 </v>
   <v>       0.24973750       0.12571750       0.37459500 </v>
   <v>       0.37600500       0.00007500       0.37466000 </v>
   <v>       0.25039000       0.00088000       0.24854000 </v>
   <v>       0.37534750       0.24987750       0.37305500 </v>
   <v>       0.49970000       0.00076500       0.24985000 </v>
   <v>       0.25027250       0.00022250       0.00012500 </v>
   <v>       0.62466750       0.24912250       0.37463500 </v>
   <v>       0.37446000       0.12498500       0.00162000 </v>
   <v>       0.49907250       0.37499750       0.12491500 </v>
   <v>       0.49965250       0.24988250       0.00137500 </v>
   <v>       0.37398000       0.25085000       0.87599000 </v>
   <v>       0.62457250       0.37420750       0.24977500 </v>
   <v>       0.37544250       0.37495750       0.50137500 </v>
   <v>       0.50023500       0.12425500       0.87476000 </v>
   <v>       0.75095250       0.37407750       0.12474500 </v>
   <v>       0.62553250       0.37507750       0.00016500 </v>
   <v>       0.49973750       0.37571750       0.87459500 </v>
   <v>       0.62600500       0.25007500       0.87466000 </v>
   <v>       0.50039000       0.25088000       0.74854000 </v>
   <v>       0.62534750       0.49987750       0.87305500 </v>
   <v>       0.74970000       0.25076500       0.74985000 </v>
   <v>       0.50027250       0.25022250       0.50012500 </v>
   <v>       0.87466750       0.49912250       0.87463500 </v>
   <v>       0.62446000       0.37498500       0.50162000 </v>
   <v>       0.74907250       0.62499750       0.62491500 </v>
   <v>       0.74965250       0.49988250       0.50137500 </v>
   <v>       0.62398000       0.50085000       0.37599000 </v>
   <v>       0.87457250       0.62420750       0.74977500 </v>
   <v>       0.62544250       0.12495750       0.00137500 </v>
   <v>       0.75023500       0.87425500       0.37476000 </v>
   <v>       0.00095250       0.12407750       0.62474500 </v>
   <v>       0.87553250       0.12507750       0.50016500 </v>
   <v>       0.74973750       0.12571750       0.37459500 </v>
   <v>       0.87600500       0.00007500       0.37466000 </v>
   <v>       0.75039000       0.00088000       0.24854000 </v>
   <v>       0.87534750       0.24987750       0.37305500 </v>
   <v>       0.99970000       0.00076500       0.24985000 </v>
   <v>       0.75027250       0.00022250       0.00012500 </v>
   <v>       0.12726750       0.24912250       0.37463500 </v>
   <v>       0.87445750       0.12498750       0.00161500 </v>
   <v>       0.99907250       0.37499750       0.12491500 </v>
   <v>       0.99965250       0.24988250       0.00137500 </v>
   <v>       0.87398000       0.25085000       0.87599000 </v>
   <v>       0.12457250       0.37420750       0.24977500 </v>
   <v>       0.12544250       0.62495750       0.00137500 </v>
   <v>       0.25023500       0.37425500       0.37476000 </v>
   <v>       0.50095250       0.62407750       0.62474500 </v>
   <v>       0.37553250       0.62507750       0.50016500 </v>
   <v>       0.24973750       0.62571750       0.37459500 </v>
   <v>       0.37600500       0.50007500       0.37466000 </v>
   <v>       0.25039000       0.50088000       0.24854000 </v>
   <v>       0.37534750       0.74987750       0.37305500 </v>
   <v>       0.49970000       0.50076500       0.24985000 </v>
   <v>       0.25027250       0.50022250       0.00012500 </v>
   <v>       0.62466750       0.74912250       0.37463500 </v>
   <v>       0.37446000       0.62498500       0.00162000 </v>
   <v>       0.49907250       0.87499750       0.12491500 </v>
   <v>       0.49965250       0.74988250       0.00137500 </v>
   <v>       0.37397750       0.75084750       0.87598500 </v>
   <v>       0.62457250       0.87420750       0.24977500 </v>
   <v>       0.87544250       0.37495750       0.50137500 </v>
   <v>       0.00023500       0.12425500       0.87476000 </v>
   <v>       0.25095250       0.37407750       0.12474500 </v>
   <v>       0.12553250       0.37507750       0.00016500 </v>
   <v>       0.99973750       0.37571750       0.87459500 </v>
   <v>       0.12600500       0.25007500       0.87466000 </v>
   <v>       0.00039000       0.25088000       0.74854000 </v>
   <v>       0.12534750       0.49987750       0.87305500 </v>
   <v>       0.24970000       0.25076500       0.74985000 </v>
   <v>       0.00027250       0.25022250       0.50012500 </v>
   <v>       0.37466750       0.49912250       0.87463500 </v>
   <v>       0.12446000       0.37498500       0.50162000 </v>
   <v>       0.24907250       0.62499750       0.62491500 </v>
   <v>       0.24965250       0.49988250       0.50137500 </v>
   <v>       0.12397750       0.50084750       0.37598500 </v>
   <v>       0.37457250       0.62420750       0.74977500 </v>
   <v>       0.37544250       0.87495750       0.50137500 </v>
   <v>       0.50023500       0.62425500       0.87476000 </v>
   <v>       0.75095250       0.87407750       0.12474500 </v>
   <v>       0.62553250       0.87507750       0.00016500 </v>
   <v>       0.49973750       0.87571750       0.87459500 </v>
   <v>       0.62600250       0.75007250       0.87465500 </v>
   <v>       0.50039000       0.75088000       0.74854000 </v>
   <v>       0.62534750       0.99987750       0.87305500 </v>
   <v>       0.74970000       0.75076500       0.74985000 </v>
   <v>       0.50027250       0.75022250       0.50012500 </v>
   <v>       0.87466750       0.99912250       0.87463500 </v>
   <v>       0.62446000       0.87498500       0.50162000 </v>
   <v>       0.74907250       0.12499750       0.62491500 </v>
   <v>       0.74965250       0.99988250       0.50137500 </v>
   <v>       0.62397750       0.00084750       0.37598500 </v>
   <v>       0.87457250       0.12420750       0.74977500 </v>
   <v>       0.62544250       0.62495750       0.00137500 </v>
   <v>       0.75023500       0.37425500       0.37476000 </v>
   <v>       0.00095250       0.62407750       0.62474500 </v>
   <v>       0.87553250       0.62507750       0.50016500 </v>
   <v>       0.74973750       0.62571750       0.37459500 </v>
   <v>       0.87600500       0.50007500       0.37466000 </v>
   <v>       0.75039000       0.50088000       0.24854000 </v>
   <v>       0.87534750       0.74987750       0.37305500 </v>
   <v>       0.99970000       0.50076500       0.24985000 </v>
   <v>       0.75027250       0.50022250       0.00012500 </v>
   <v>       0.12466750       0.74912250       0.37463500 </v>
   <v>       0.87445750       0.62498750       0.00161500 </v>
   <v>       0.99907250       0.87499750       0.12491500 </v>
   <v>       0.99965250       0.74988250       0.00137500 </v>
   <v>       0.87398000       0.75085000       0.87599000 </v>
   <v>       0.12457250       0.87420750       0.24977500 </v>
   <v>       0.87544250       0.87495750       0.50137500 </v>
   <v>       0.00023500       0.62425500       0.87476000 </v>
   <v>       0.25095000       0.87407500       0.12474000 </v>
   <v>       0.12553250       0.87507750       0.00016500 </v>
   <v>       0.99973750       0.87571750       0.87459500 </v>
   <v>       0.12600250       0.75007250       0.87465500 </v>
   <v>       0.00039000       0.75088000       0.74854000 </v>
   <v>       0.12534750       0.99987750       0.87305500 </v>
   <v>       0.24970000       0.75076500       0.74985000 </v>
   <v>       0.00027250       0.75022250       0.50012500 </v>
   <v>       0.37466750       0.99912250       0.87463500 </v>
   <v>       0.12446000       0.87498500       0.50162000 </v>
   <v>       0.24907250       0.12499750       0.62491500 </v>
   <v>       0.24965250       0.99988250       0.50137500 </v>
   <v>       0.12397750       0.00084750       0.37598500 </v>
   <v>       0.37457250       0.12420750       0.74977500 </v>
   <v>       0.25026250       0.24934750       0.24886500 </v>
   <v>       0.37540000       0.99901500       0.62581000 </v>
   <v>       0.25026250       0.24988250       0.99990500 </v>
   <v>       0.37536500       0.37434000       0.25012000 </v>
   <v>       0.12452500       0.00102500       0.12470000 </v>
   <v>       0.62450750       0.12506750       0.49982500 </v>
   <v>       0.50015250       0.12515750       0.37466500 </v>
   <v>       0.37555250       0.12560250       0.24861500 </v>
   <v>       0.24996250       0.12589750       0.12593500 </v>
   <v>       0.37545500       0.00032500       0.12460000 </v>
   <v>       0.49970750       0.24909250       0.24996500 </v>
   <v>       0.37461750       0.87555250       0.74886500 </v>
   <v>       0.37463500       0.24969000       0.12600000 </v>
   <v>       0.50001500       0.12515000       0.12596000 </v>
   <v>       0.49971750       0.00013750       0.00129500 </v>
   <v>       0.24985750       0.12477250       0.87470500 </v>
   <v>       0.50026250       0.49934750       0.74886500 </v>
   <v>       0.62540000       0.24901500       0.12581000 </v>
   <v>       0.50026250       0.49988250       0.49990500 </v>
   <v>       0.62536500       0.62434000       0.75012000 </v>
   <v>       0.37452500       0.25102500       0.62470000 </v>
   <v>       0.87450750       0.37506750       0.99982500 </v>
   <v>       0.75015250       0.37515750       0.87466500 </v>
   <v>       0.62555250       0.37560250       0.74861500 </v>
   <v>       0.49996250       0.37589750       0.62593500 </v>
   <v>       0.62545500       0.25032500       0.62460000 </v>
   <v>       0.74970750       0.49909250       0.74996500 </v>
   <v>       0.62461750       0.12555250       0.24886500 </v>
   <v>       0.62463250       0.49969250       0.62599500 </v>
   <v>       0.75001500       0.37515000       0.62596000 </v>
   <v>       0.74971750       0.25013750       0.50129500 </v>
   <v>       0.49985750       0.37477250       0.37470500 </v>
   <v>       0.75026250       0.24934750       0.24886500 </v>
   <v>       0.87540000       0.99901500       0.62581000 </v>
   <v>       0.75026250       0.24988250       0.99990500 </v>
   <v>       0.87536500       0.37434000       0.25012000 </v>
   <v>       0.62452500       0.00102500       0.12470000 </v>
   <v>       0.12450750       0.12506750       0.49982500 </v>
   <v>       0.00015250       0.12515750       0.37466500 </v>
   <v>       0.87555250       0.12560250       0.24861500 </v>
   <v>       0.74996250       0.12589750       0.12593500 </v>
   <v>       0.87545500       0.00032500       0.12460000 </v>
   <v>       0.99970750       0.24909250       0.24996500 </v>
   <v>       0.87461750       0.87555250       0.74886500 </v>
   <v>       0.87463250       0.24969250       0.12599500 </v>
   <v>       0.00001500       0.12515000       0.12596000 </v>
   <v>       0.99971750       0.00013750       0.00129500 </v>
   <v>       0.74985750       0.12477250       0.87470500 </v>
   <v>       0.25026250       0.74934750       0.24886500 </v>
   <v>       0.37540000       0.49901500       0.62581000 </v>
   <v>       0.25026250       0.74988250       0.99990500 </v>
   <v>       0.37536500       0.87434000       0.25012000 </v>
   <v>       0.12452500       0.50102500       0.12470000 </v>
   <v>       0.62450750       0.62506750       0.49982500 </v>
   <v>       0.50015250       0.62515750       0.37466500 </v>
   <v>       0.37555250       0.62560250       0.24861500 </v>
   <v>       0.24996250       0.62589750       0.12593500 </v>
   <v>       0.37545500       0.50032500       0.12460000 </v>
   <v>       0.49970750       0.74909250       0.24996500 </v>
   <v>       0.37461750       0.37555250       0.74886500 </v>
   <v>       0.37463500       0.74969000       0.12600000 </v>
   <v>       0.50001500       0.62515000       0.12596000 </v>
   <v>       0.49971750       0.50013750       0.00129500 </v>
   <v>       0.24985750       0.62477250       0.87470500 </v>
   <v>       0.00026250       0.49934750       0.74886500 </v>
   <v>       0.12540000       0.24901500       0.12581000 </v>
   <v>       0.00026250       0.49988250       0.49990500 </v>
   <v>       0.12536500       0.62434000       0.75012000 </v>
   <v>       0.87452500       0.25102500       0.62470000 </v>
   <v>       0.37450750       0.37506750       0.99982500 </v>
   <v>       0.25015250       0.37515750       0.87466500 </v>
   <v>       0.12555250       0.37560250       0.74861500 </v>
   <v>       0.99996250       0.37589750       0.62593500 </v>
   <v>       0.12545500       0.25032500       0.62460000 </v>
   <v>       0.24970750       0.49909250       0.74996500 </v>
   <v>       0.12461750       0.12555250       0.24886500 </v>
   <v>       0.12463250       0.49969250       0.62599500 </v>
   <v>       0.25001500       0.37515000       0.62596000 </v>
   <v>       0.24971750       0.25013750       0.50129500 </v>
   <v>       0.99985750       0.37477250       0.37470500 </v>
   <v>       0.50026250       0.99934750       0.74886500 </v>
   <v>       0.62540000       0.74901500       0.12581000 </v>
   <v>       0.50026250       0.99988250       0.49990500 </v>
   <v>       0.62536500       0.12434000       0.75012000 </v>
   <v>       0.37452500       0.75102500       0.62470000 </v>
   <v>       0.87450750       0.87506750       0.99982500 </v>
   <v>       0.75015250       0.87515750       0.87466500 </v>
   <v>       0.62555250       0.87560250       0.74861500 </v>
   <v>       0.49996250       0.87589750       0.62593500 </v>
   <v>       0.62545500       0.75032500       0.62460000 </v>
   <v>       0.74970750       0.99909250       0.74996500 </v>
   <v>       0.62461750       0.62555250       0.24886500 </v>
   <v>       0.62463250       0.99969250       0.62599500 </v>
   <v>       0.75001500       0.87515000       0.62596000 </v>
   <v>       0.74971750       0.75013750       0.50129500 </v>
   <v>       0.49985750       0.87477250       0.37470500 </v>
   <v>       0.75026250       0.74934750       0.24886500 </v>
   <v>       0.87540000       0.49901500       0.62581000 </v>
   <v>       0.75026250       0.74988250       0.99990500 </v>
   <v>       0.87536500       0.87434000       0.25012000 </v>
   <v>       0.62452500       0.50102500       0.12470000 </v>
   <v>       0.12450750       0.62506750       0.49982500 </v>
   <v>       0.00015250       0.62515750       0.37466500 </v>
   <v>       0.87555250       0.62560250       0.24861500 </v>
   <v>       0.74996250       0.62589750       0.12593500 </v>
   <v>       0.87545500       0.50032500       0.12460000 </v>
   <v>       0.99970750       0.74909250       0.24996500 </v>
   <v>       0.87461750       0.37555250       0.74886500 </v>
   <v>       0.87463250       0.74969250       0.12599500 </v>
   <v>       0.00001500       0.62515000       0.12596000 </v>
   <v>       0.99971750       0.50013750       0.00129500 </v>
   <v>       0.74985750       0.62477250       0.87470500 </v>
   <v>       0.00026250       0.99934750       0.74886500 </v>
   <v>       0.12540000       0.74901500       0.12581000 </v>
   <v>       0.00026250       0.99988250       0.49990500 </v>
   <v>       0.12536500       0.12434000       0.75012000 </v>
   <v>       0.87452500       0.75102500       0.62470000 </v>
   <v>       0.37450750       0.87506750       0.99982500 </v>
   <v>       0.25015250       0.87515750       0.87466500 </v>
   <v>       0.12555250       0.87560250       0.74861500 </v>
   <v>       0.99996250       0.87589750       0.62593500 </v>
   <v>       0.12545500       0.75032500       0.62460000 </v>
   <v>       0.24970750       0.99909250       0.74996500 </v>
   <v>       0.12461750       0.62555250       0.24886500 </v>
   <v>       0.12463500       0.99969000       0.62600000 </v>
   <v>       0.25001250       0.87514750       0.62596500 </v>
   <v>       0.24971750       0.75013750       0.50129500 </v>
   <v>       0.99985750       0.87477250       0.37470500 </v>
  </varray>
 </structure>
 <calculation>
  <scstep>
   <time name="dav"> 1447.67 1449.81</time>
   <time name="total"> 1448.08 1450.23</time>
   <energy>
    <i name="alphaZ">  17816.49363791 </i>
    <i name="ewald">-159090.57150688 </i>
    <i name="hartreedc"> -10357.98988646 </i>
    <i name="XCdc">  -6288.28696857 </i>
    <i name="pawpsdc"> 107387.23103886 </i>
    <i name="pawaedc"> -95870.62587529 </i>
    <i name="eentropy">      0.00141144 </i>
    <i name="bandstr">  27752.63119278 </i>
    <i name="atom"> 129934.13886476 </i>
    <i name="e_fr_energy">  11283.02190855 </i>
    <i name="e_wo_entrp">  11283.02049711 </i>
    <i name="e_0_energy">  11283.02143807 </i>
   </energy>
  </scstep>
  <scstep>
   <time name="dav"> 1452.62 1454.81</time>
   <time name="total"> 1452.66 1454.85</time>
   <energy>
    <i name="e_fr_energy">  -1438.92452936 </i>
    <i name="e_wo_entrp">  -1438.92417128 </i>
    <i name="e_0_energy">  -1438.92441000 </i>
   </energy>
  </scstep>
  <scstep>
   <time name="dav"> 1918.62 1921.50</time>
   <time name="total"> 1918.65 1921.54</time>
   <energy>
    <i name="e_fr_energy">  -2410.83293577 </i>
    <i name="e_wo_entrp">  -2410.82016195 </i>
    <i name="e_0_energy">  -2410.82867783 </i>
   </energy>
  </scstep>
  <scstep>
   <time name="dav"> 1876.95 1879.73</time>
   <time name="total"> 1876.98 1879.76</time>
   <energy>
    <i name="e_fr_energy">  -2482.24741633 </i>
    <i name="e_wo_entrp">  -2482.24735828 </i>
    <i name="e_0_energy">  -2482.24739698 </i>
   </energy>
  </scstep>
  <scstep>
   <time name="dav"> 1969.47 1972.53</time>
   <time name="total"> 2009.57 2012.70</time>
   <energy>
    <i name="e_fr_energy">  -2485.11815798 </i>
    <i name="e_wo_entrp">  -2485.11842034 </i>
    <i name="e_0_energy">  -2485.11824544 </i>
   </energy>
  </scstep>
  <scstep>
   <time name="diag">  187.64  187.92</time>
   <time name="diis">  714.82  715.85</time>
   <time name="orth">   72.77   72.87</time>
   <time name="total"> 1015.74 1017.21</time>
   <energy>
    <i name="e_fr_energy">  -2416.43670729 </i>
    <i name="e_wo_entrp">  -2416.43539979 </i>
    <i name="e_0_energy">  -2416.43627146 </i>
   </energy>
  </scstep>
  <scstep>
   <time name="diag">  188.12  188.39</time>
   <time name="diis">  658.88  659.82</time>
   <time name="orth">   72.79   72.90</time>
   <time name="total">  960.37  961.75</time>
   <energy>
    <i name="e_fr_energy">  -2369.99381771 </i>
    <i name="e_wo_entrp">  -2369.97409342 </i>
    <i name="e_0_energy">  -2369.98724295 </i>
   </energy>
  </scstep>
  <scstep>
   <time name="diag">  187.96  188.23</time>
   <time name="diis">  662.87  663.82</time>
   <time name="orth">   72.79   72.90</time>
   <time name="total">  964.18  965.56</time>
   <energy>
    <i name="e_fr_energy">  -2339.86271185 </i>
    <i name="e_wo_entrp">  -2339.85871873 </i>
    <i name="e_0_energy">  -2339.86138081 </i>
   </energy>
  </scstep>
  <scstep>
   <time name="diag">  187.96  188.24</time>
   <time name="diis">  672.81  673.82</time>
   <time name="orth">   72.79   72.89</time>
   <time name="total">  974.10  975.55</time>
   <energy>
    <i name="e_fr_energy">  -2315.62197321 </i>
    <i name="e_wo_entrp">  -2315.65589978 </i>
    <i name="e_0_energy">  -2315.63328206 </i>
   </energy>
  </scstep>
  <scstep>
   <time name="diag">  187.91  188.18</time>
   <time name="diis">  909.94  911.27</time>
   <time name="orth">   72.78   72.89</time>
   <time name="total"> 1211.21 1212.97</time>
   <energy>
    <i name="e_fr_energy">  -2315.40844594 </i>
    <i name="e_wo_entrp">  -2315.42970638 </i>
    <i name="e_0_energy">  -2315.41553275 </i>
   </energy>
  </scstep>
  <scstep>
   <time name="diag">  187.99  188.27</time>
   <time name="diis">  802.78  803.96</time>
   <time name="orth">   72.77   72.87</time>
   <time name="total"> 1103.96 1105.59</time>
   <energy>
    <i name="e_fr_energy">  -2315.22018728 </i>
    <i name="e_wo_entrp">  -2315.23871498 </i>
    <i name="e_0_energy">  -2315.22636318 </i>
   </energy>
  </scstep>
  <scstep>
   <time name="diag">  187.83  188.10</time>
   <time name="diis">  799.42  800.59</time>
   <time name="orth">   72.80   72.91</time>
   <time name="total"> 1100.20 1101.81</time>
   <energy>
    <i name="e_fr_energy">  -2314.90285515 </i>
    <i name="e_wo_entrp">  -2314.92237399 </i>
    <i name="e_0_energy">  -2314.90936143 </i>
   </energy>
  </scstep>
  <scstep>
   <time name="diag">  187.85  188.13</time>
   <time name="diis">  756.52  757.62</time>
   <time name="orth">   72.79   72.90</time>
   <time name="total"> 1057.33 1058.88</time>
   <energy>
    <i name="e_fr_energy">  -2314.77809141 </i>
    <i name="e_wo_entrp">  -2314.79928759 </i>
    <i name="e_0_energy">  -2314.78515680 </i>
   </energy>
  </scstep>
  <scstep>
   <time name="diag">  187.74  188.02</time>
   <time name="diis">  757.67  758.78</time>
   <time name="orth">   72.79   72.90</time>
   <time name="total"> 1058.49 1060.03</time>
   <energy>
    <i name="e_fr_energy">  -2314.75757451 </i>
    <i name="e_wo_entrp">  -2314.78230369 </i>
    <i name="e_0_energy">  -2314.76581757 </i>
   </energy>
  </scstep>
  <scstep>
   <time name="diag">  187.80  188.08</time>
   <time name="diis">  806.22  807.40</time>
   <time name="orth">   72.83   72.94</time>
   <time name="total"> 1107.16 1108.86</time>
   <energy>
    <i name="e_fr_energy">  -2314.72987435 </i>
    <i name="e_wo_entrp">  -2314.75487634 </i>
    <i name="e_0_energy">  -2314.73820835 </i>
   </energy>
  </scstep>
  <scstep>
   <time name="diag">  187.76  188.05</time>
   <time name="diis">  757.80  758.91</time>
   <time name="orth">   72.84   72.95</time>
   <time name="total"> 1058.95 1060.51</time>
   <energy>
    <i name="e_fr_energy">  -2314.71465065 </i>
    <i name="e_wo_entrp">  -2314.73891312 </i>
    <i name="e_0_energy">  -2314.72273814 </i>
   </energy>
  </scstep>
  <scstep>
   <time name="diag">  187.84  188.12</time>
   <time name="diis">  808.79  810.00</time>
   <time name="orth">   72.79   72.90</time>
   <time name="total"> 1110.03 1111.69</time>
   <energy>
    <i name="e_fr_energy">  -2314.71151500 </i>
    <i name="e_wo_entrp">  -2314.73460797 </i>
    <i name="e_0_energy">  -2314.71921266 </i>
   </energy>
  </scstep>
  <scstep>
   <time name="diag">  187.70  187.98</time>
   <time name="diis">  879.36  880.63</time>
   <time name="orth">   72.79   72.89</time>
   <time name="total"> 1180.48 1182.20</time>
   <energy>
    <i name="e_fr_energy">  -2314.71245051 </i>
    <i name="e_wo_entrp">  -2314.73470802 </i>
    <i name="e_0_energy">  -2314.71986968 </i>
   </energy>
  </scstep>
  <scstep>
   <time name="diag">  187.88  188.16</time>
   <time name="diis">  875.71  876.97</time>
   <time name="orth">   72.79   72.89</time>
   <time name="total"> 1176.89 1178.60</time>
   <energy>
    <i name="e_fr_energy">  -2314.71209946 </i>
    <i name="e_wo_entrp">  -2314.73437225 </i>
    <i name="e_0_energy">  -2314.71952372 </i>
   </energy>
  </scstep>
  <scstep>
   <time name="diag">  187.72  188.00</time>
   <time name="diis">  790.93  792.08</time>
   <time name="orth">   72.83   72.93</time>
   <time name="total"> 1092.35 1093.94</time>
   <energy>
    <i name="e_fr_energy">  -2314.71161549 </i>
    <i name="e_wo_entrp">  -2314.73408730 </i>
    <i name="e_0_energy">  -2314.71910610 </i>
   </energy>
  </scstep>
  <scstep>
   <time name="diag">  187.77  188.05</time>
   <time name="diis">  798.33  799.49</time>
   <time name="orth">   72.80   72.90</time>
   <time name="total"> 1099.36 1100.95</time>
   <energy>
    <i name="e_fr_energy">  -2314.71122356 </i>
    <i name="e_wo_entrp">  -2314.73409430 </i>
    <i name="e_0_energy">  -2314.71884714 </i>
   </energy>
  </scstep>
  <scstep>
   <time name="diag">  187.62  187.90</time>
   <time name="diis">  906.99  908.30</time>
   <time name="orth">   72.77   72.88</time>
   <time name="total"> 1167.77 1169.46</time>
   <energy>
    <i name="alphaZ">  17816.49363791 </i>
    <i name="ewald">-159090.57150688 </i>
    <i name="hartreedc">  -7947.45262385 </i>
    <i name="XCdc">  -6308.14025877 </i>
    <i name="pawpsdc"> 121857.36120712 </i>
    <i name="pawaedc">-111029.62294763 </i>
    <i name="eentropy">      0.02297126 </i>
    <i name="bandstr">  12453.05947498 </i>
    <i name="atom"> 129934.13886476 </i>
    <i name="e_fr_energy">  -2314.71118110 </i>
    <i name="e_wo_entrp">  -2314.73415236 </i>
    <i name="e_0_energy">  -2314.71883819 </i>
   </energy>
  </scstep>
  <structure>
   <crystal>
    <varray name="basis" >
     <v>       0.00188000      15.37080000       0.00140000 </v>
     <v>       0.00152000      -0.00140000     -15.37218000 </v>
     <v>     -15.37636000      -0.00188000       0.00151000 </v>
    </varray>
    <i name="volume">   3633.16780401 </i>
    <varray name="rec_basis" >
     <v>      -0.00000795       0.06505842      -0.00000593 </v>
     <v>      -0.00000639       0.00000593      -0.06505258 </v>
     <v>      -0.06503490       0.00000795      -0.00000643 </v>
    </varray>
   </crystal>
   <varray name="positions" >
    <v>       0.12544250       0.12495750       0.00137500 </v>
    <v>       0.25023500       0.87425500       0.37476000 </v>
    <v>       0.50095250       0.12407750       0.62474500 </v>
    <v>       0.37553250       0.12507750       0.50016500 </v>
    <v>       0.24973750       0.12571750       0.37459500 </v>
    <v>       0.37600500       0.00007500       0.37466000 </v>
    <v>       0.25039000       0.00088000       0.24854000 </v>
    <v>       0.37534750       0.24987750       0.37305500 </v>
    <v>       0.49970000       0.00076500       0.24985000 </v>
    <v>       0.25027250       0.00022250       0.00012500 </v>
    <v>       0.62466750       0.24912250       0.37463500 </v>
    <v>       0.37446000       0.12498500       0.00162000 </v>
    <v>       0.49907250       0.37499750       0.12491500 </v>
    <v>       0.49965250       0.24988250       0.00137500 </v>
    <v>       0.37398000       0.25085000       0.87599000 </v>
    <v>       0.62457250       0.37420750       0.24977500 </v>
    <v>       0.37544250       0.37495750       0.50137500 </v>
    <v>       0.50023500       0.12425500       0.87476000 </v>
    <v>       0.75095250       0.37407750       0.12474500 </v>
    <v>       0.62553250       0.37507750       0.00016500 </v>
    <v>       0.49973750       0.37571750       0.87459500 </v>
    <v>       0.62600500       0.25007500       0.87466000 </v>
    <v>       0.50039000       0.25088000       0.74854000 </v>
    <v>       0.62534750       0.49987750       0.87305500 </v>
    <v>       0.74970000       0.25076500       0.74985000 </v>
    <v>       0.50027250       0.25022250       0.50012500 </v>
    <v>       0.87466750       0.49912250       0.87463500 </v>
    <v>       0.62446000       0.37498500       0.50162000 </v>
    <v>       0.74907250       0.62499750       0.62491500 </v>
    <v>       0.74965250       0.49988250       0.50137500 </v>
    <v>       0.62398000       0.50085000       0.37599000 </v>
    <v>       0.87457250       0.62420750       0.74977500 </v>
    <v>       0.62544250       0.12495750       0.00137500 </v>
    <v>       0.75023500       0.87425500       0.37476000 </v>
    <v>       0.00095250       0.12407750       0.62474500 </v>
    <v>       0.87553250       0.12507750       0.50016500 </v>
    <v>       0.74973750       0.12571750       0.37459500 </v>
    <v>       0.87600500       0.00007500       0.37466000 </v>
    <v>       0.75039000       0.00088000       0.24854000 </v>
    <v>       0.87534750       0.24987750       0.37305500 </v>
    <v>       0.99970000       0.00076500       0.24985000 </v>
    <v>       0.75027250       0.00022250       0.00012500 </v>
    <v>       0.12726750       0.24912250       0.37463500 </v>
    <v>       0.87445750       0.12498750       0.00161500 </v>
    <v>       0.99907250       0.37499750       0.12491500 </v>
    <v>       0.99965250       0.24988250       0.00137500 </v>
    <v>       0.87398000       0.25085000       0.87599000 </v>
    <v>       0.12457250       0.37420750       0.24977500 </v>
    <v>       0.12544250       0.62495750       0.00137500 </v>
    <v>       0.25023500       0.37425500       0.37476000 </v>
    <v>       0.50095250       0.62407750       0.62474500 </v>
    <v>       0.37553250       0.62507750       0.50016500 </v>
    <v>       0.24973750       0.62571750       0.37459500 </v>
    <v>       0.37600500       0.50007500       0.37466000 </v>
    <v>       0.25039000       0.50088000       0.24854000 </v>
    <v>       0.37534750       0.74987750       0.37305500 </v>
    <v>       0.49970000       0.50076500       0.24985000 </v>
    <v>       0.25027250       0.50022250       0.00012500 </v>
    <v>       0.62466750       0.74912250       0.37463500 </v>
    <v>       0.37446000       0.62498500       0.00162000 </v>
    <v>       0.49907250       0.87499750       0.12491500 </v>
    <v>       0.49965250       0.74988250       0.00137500 </v>
    <v>       0.37397750       0.75084750       0.87598500 </v>
    <v>       0.62457250       0.87420750       0.24977500 </v>
    <v>       0.87544250       0.37495750       0.50137500 </v>
    <v>       0.00023500       0.12425500       0.87476000 </v>
    <v>       0.25095250       0.37407750       0.12474500 </v>
    <v>       0.12553250       0.37507750       0.00016500 </v>
    <v>       0.99973750       0.37571750       0.87459500 </v>
    <v>       0.12600500       0.25007500       0.87466000 </v>
    <v>       0.00039000       0.25088000       0.74854000 </v>
    <v>       0.12534750       0.49987750       0.87305500 </v>
    <v>       0.24970000       0.25076500       0.74985000 </v>
    <v>       0.00027250       0.25022250       0.50012500 </v>
    <v>       0.37466750       0.49912250       0.87463500 </v>
    <v>       0.12446000       0.37498500       0.50162000 </v>
    <v>       0.24907250       0.62499750       0.62491500 </v>
    <v>       0.24965250       0.49988250       0.50137500 </v>
    <v>       0.12397750       0.50084750       0.37598500 </v>
    <v>       0.37457250       0.62420750       0.74977500 </v>
    <v>       0.37544250       0.87495750       0.50137500 </v>
    <v>       0.50023500       0.62425500       0.87476000 </v>
    <v>       0.75095250       0.87407750       0.12474500 </v>
    <v>       0.62553250       0.87507750       0.00016500 </v>
    <v>       0.49973750       0.87571750       0.87459500 </v>
    <v>       0.62600250       0.75007250       0.87465500 </v>
    <v>       0.50039000       0.75088000       0.74854000 </v>
    <v>       0.62534750       0.99987750       0.87305500 </v>
    <v>       0.74970000       0.75076500       0.74985000 </v>
    <v>       0.50027250       0.75022250       0.50012500 </v>
    <v>       0.87466750       0.99912250       0.87463500 </v>
    <v>       0.62446000       0.87498500       0.50162000 </v>
    <v>       0.74907250       0.12499750       0.62491500 </v>
    <v>       0.74965250       0.99988250       0.50137500 </v>
    <v>       0.62397750       0.00084750       0.37598500 </v>
    <v>       0.87457250       0.12420750       0.74977500 </v>
    <v>       0.62544250       0.62495750       0.00137500 </v>
    <v>       0.75023500       0.37425500       0.37476000 </v>
    <v>       0.00095250       0.62407750       0.62474500 </v>
    <v>       0.87553250       0.62507750       0.50016500 </v>
    <v>       0.74973750       0.62571750       0.37459500 </v>
    <v>       0.87600500       0.50007500       0.37466000 </v>
    <v>       0.75039000       0.50088000       0.24854000 </v>
    <v>       0.87534750       0.74987750       0.37305500 </v>
    <v>       0.99970000       0.50076500       0.24985000 </v>
    <v>       0.75027250       0.50022250       0.00012500 </v>
    <v>       0.12466750       0.74912250       0.37463500 </v>
    <v>       0.87445750       0.62498750       0.00161500 </v>
    <v>       0.99907250       0.87499750       0.12491500 </v>
    <v>       0.99965250       0.74988250       0.00137500 </v>
    <v>       0.87398000       0.75085000       0.87599000 </v>
    <v>       0.12457250       0.87420750       0.24977500 </v>
    <v>       0.87544250       0.87495750       0.50137500 </v>
    <v>       0.00023500       0.62425500       0.87476000 </v>
    <v>       0.25095000       0.87407500       0.12474000 </v>
    <v>       0.12553250       0.87507750       0.00016500 </v>
    <v>       0.99973750       0.87571750       0.87459500 </v>
    <v>       0.12600250       0.75007250       0.87465500 </v>
    <v>       0.00039000       0.75088000       0.74854000 </v>
    <v>       0.12534750       0.99987750       0.87305500 </v>
    <v>       0.24970000       0.75076500       0.74985000 </v>
    <v>       0.00027250       0.75022250       0.50012500 </v>
    <v>       0.37466750       0.99912250       0.87463500 </v>
    <v>       0.12446000       0.87498500       0.50162000 </v>
    <v>       0.24907250       0.12499750       0.62491500 </v>
    <v>       0.24965250       0.99988250       0.50137500 </v>
    <v>       0.12397750       0.00084750       0.37598500 </v>
    <v>       0.37457250       0.12420750       0.74977500 </v>
    <v>       0.25026250       0.24934750       0.24886500 </v>
    <v>       0.37540000       0.99901500       0.62581000 </v>
    <v>       0.25026250       0.24988250       0.99990500 </v>
    <v>       0.37536500       0.37434000       0.25012000 </v>
    <v>       0.12452500       0.00102500       0.12470000 </v>
    <v>       0.62450750       0.12506750       0.49982500 </v>
    <v>       0.50015250       0.12515750       0.37466500 </v>
    <v>       0.37555250       0.12560250       0.24861500 </v>
    <v>       0.24996250       0.12589750       0.12593500 </v>
    <v>       0.37545500       0.00032500       0.12460000 </v>
    <v>       0.49970750       0.24909250       0.24996500 </v>
    <v>       0.37461750       0.87555250       0.74886500 </v>
    <v>       0.37463500       0.24969000       0.12600000 </v>
    <v>       0.50001500       0.12515000       0.12596000 </v>
    <v>       0.49971750       0.00013750       0.00129500 </v>
    <v>       0.24985750       0.12477250       0.87470500 </v>
    <v>       0.50026250       0.49934750       0.74886500 </v>
    <v>       0.62540000       0.24901500       0.12581000 </v>
    <v>       0.50026250       0.49988250       0.49990500 </v>
    <v>       0.62536500       0.62434000       0.75012000 </v>
    <v>       0.37452500       0.25102500       0.62470000 </v>
    <v>       0.87450750       0.37506750       0.99982500 </v>
    <v>       0.75015250       0.37515750       0.87466500 </v>
    <v>       0.62555250       0.37560250       0.74861500 </v>
    <v>       0.49996250       0.37589750       0.62593500 </v>
    <v>       0.62545500       0.25032500       0.62460000 </v>
    <v>       0.74970750       0.49909250       0.74996500 </v>
    <v>       0.62461750       0.12555250       0.24886500 </v>
    <v>       0.62463250       0.49969250       0.62599500 </v>
    <v>       0.75001500       0.37515000       0.62596000 </v>
    <v>       0.74971750       0.25013750       0.50129500 </v>
    <v>       0.49985750       0.37477250       0.37470500 </v>
    <v>       0.75026250       0.24934750       0.24886500 </v>
    <v>       0.87540000       0.99901500       0.62581000 </v>
    <v>       0.75026250       0.24988250       0.99990500 </v>
    <v>       0.87536500       0.37434000       0.25012000 </v>
    <v>       0.62452500       0.00102500       0.12470000 </v>
    <v>       0.12450750       0.12506750       0.49982500 </v>
    <v>       0.00015250       0.12515750       0.37466500 </v>
    <v>       0.87555250       0.12560250       0.24861500 </v>
    <v>       0.74996250       0.12589750       0.12593500 </v>
    <v>       0.87545500       0.00032500       0.12460000 </v>
    <v>       0.99970750       0.24909250       0.24996500 </v>
    <v>       0.87461750       0.87555250       0.74886500 </v>
    <v>       0.87463250       0.24969250       0.12599500 </v>
    <v>       0.00001500       0.12515000       0.12596000 </v>
    <v>       0.99971750       0.00013750       0.00129500 </v>
    <v>       0.74985750       0.12477250       0.87470500 </v>
    <v>       0.25026250       0.74934750       0.24886500 </v>
    <v>       0.37540000       0.49901500       0.62581000 </v>
    <v>       0.25026250       0.74988250       0.99990500 </v>
    <v>       0.37536500       0.87434000       0.25012000 </v>
    <v>       0.12452500       0.50102500       0.12470000 </v>
    <v>       0.62450750       0.62506750       0.49982500 </v>
    <v>       0.50015250       0.62515750       0.37466500 </v>
    <v>       0.37555250       0.62560250       0.24861500 </v>
    <v>       0.24996250       0.62589750       0.12593500 </v>
    <v>       0.37545500       0.50032500       0.12460000 </v>
    <v>       0.49970750       0.74909250       0.24996500 </v>
    <v>       0.37461750       0.37555250       0.74886500 </v>
    <v>       0.37463500       0.74969000       0.12600000 </v>
    <v>       0.50001500       0.62515000       0.12596000 </v>
    <v>       0.49971750       0.50013750       0.00129500 </v>
    <v>       0.24985750       0.62477250       0.87470500 </v>
    <v>       0.00026250       0.49934750       0.74886500 </v>
    <v>       0.12540000       0.24901500       0.12581000 </v>
    <v>       0.00026250       0.49988250       0.49990500 </v>
    <v>       0.12536500       0.62434000       0.75012000 </v>
    <v>       0.87452500       0.25102500       0.62470000 </v>
    <v>       0.37450750       0.37506750       0.99982500 </v>
    <v>       0.25015250       0.37515750       0.87466500 </v>
    <v>       0.12555250       0.37560250       0.74861500 </v>
    <v>       0.99996250       0.37589750       0.62593500 </v>
    <v>       0.12545500       0.25032500       0.62460000 </v>
    <v>       0.24970750       0.49909250       0.74996500 </v>
    <v>       0.12461750       0.12555250       0.24886500 </v>
    <v>       0.12463250       0.49969250       0.62599500 </v>
    <v>       0.25001500       0.37515000       0.62596000 </v>
    <v>       0.24971750       0.25013750       0.50129500 </v>
    <v>       0.99985750       0.37477250       0.37470500 </v>
    <v>       0.50026250       0.99934750       0.74886500 </v>
    <v>       0.62540000       0.74901500       0.12581000 </v>
    <v>       0.50026250       0.99988250       0.49990500 </v>
    <v>       0.62536500       0.12434000       0.75012000 </v>
    <v>       0.37452500       0.75102500       0.62470000 </v>
    <v>       0.87450750       0.87506750       0.99982500 </v>
    <v>       0.75015250       0.87515750       0.87466500 </v>
    <v>       0.62555250       0.87560250       0.74861500 </v>
    <v>       0.49996250       0.87589750       0.62593500 </v>
    <v>       0.62545500       0.75032500       0.62460000 </v>
    <v>       0.74970750       0.99909250       0.74996500 </v>
    <v>       0.62461750       0.62555250       0.24886500 </v>
    <v>       0.62463250       0.99969250       0.62599500 </v>
    <v>       0.75001500       0.87515000       0.62596000 </v>
    <v>       0.74971750       0.75013750       0.50129500 </v>
    <v>       0.49985750       0.87477250       0.37470500 </v>
    <v>       0.75026250       0.74934750       0.24886500 </v>
    <v>       0.87540000       0.49901500       0.62581000 </v>
    <v>       0.75026250       0.74988250       0.99990500 </v>
    <v>       0.87536500       0.87434000       0.25012000 </v>
    <v>       0.62452500       0.50102500       0.12470000 </v>
    <v>       0.12450750       0.62506750       0.49982500 </v>
    <v>       0.00015250       0.62515750       0.37466500 </v>
    <v>       0.87555250       0.62560250       0.24861500 </v>
    <v>       0.74996250       0.62589750       0.12593500 </v>
    <v>       0.87545500       0.50032500       0.12460000 </v>
    <v>       0.99970750       0.74909250       0.24996500 </v>
    <v>       0.87461750       0.37555250       0.74886500 </v>
    <v>       0.87463250       0.74969250       0.12599500 </v>
    <v>       0.00001500       0.62515000       0.12596000 </v>
    <v>       0.99971750       0.50013750       0.00129500 </v>
    <v>       0.74985750       0.62477250       0.87470500 </v>
    <v>       0.00026250       0.99934750       0.74886500 </v>
    <v>       0.12540000       0.74901500       0.12581000 </v>
    <v>       0.00026250       0.99988250       0.49990500 </v>
    <v>       0.12536500       0.12434000       0.75012000 </v>
    <v>       0.87452500       0.75102500       0.62470000 </v>
    <v>       0.37450750       0.87506750       0.99982500 </v>
    <v>       0.25015250       0.87515750       0.87466500 </v>
    <v>       0.12555250       0.87560250       0.74861500 </v>
    <v>       0.99996250       0.87589750       0.62593500 </v>
    <v>       0.12545500       0.75032500       0.62460000 </v>
    <v>       0.24970750       0.99909250       0.74996500 </v>
    <v>       0.12461750       0.62555250       0.24886500 </v>
    <v>       0.12463500       0.99969000       0.62600000 </v>
    <v>       0.25001250       0.87514750       0.62596500 </v>
    <v>       0.24971750       0.75013750       0.50129500 </v>
    <v>       0.99985750       0.87477250       0.37470500 </v>
   </varray>
  </structure>
  <varray name="forces" >
   <v>       0.01095424       0.00121469       0.00133351 </v>
   <v>      -0.00526894      -0.00195579       0.00099407 </v>
   <v>       0.01196019       0.00193550      -0.00050087 </v>
   <v>      -0.00238800       0.01111760       0.00086927 </v>
   <v>       0.00770595       0.06185618       0.06695196 </v>
   <v>      -0.00075590       0.00938990       0.01166611 </v>
   <v>      -0.00786280       0.00321684       0.00038727 </v>
   <v>      -0.00637201       0.03964974      -0.00012241 </v>
   <v>      -0.00990909      -0.00171166      -0.00903841 </v>
   <v>       0.00461903      -0.00182060      -0.00276498 </v>
   <v>      -0.00316652       0.00119240       0.00445111 </v>
   <v>      -0.00739378      -0.00303696       0.00252658 </v>
   <v>      -0.00304801      -0.00725890       0.01040722 </v>
   <v>      -0.00490765       0.00181088      -0.00046714 </v>
   <v>       0.00503732       0.00180221      -0.00486697 </v>
   <v>       0.00242795      -0.00147346       0.00086104 </v>
   <v>       0.00640396       0.01201178      -0.00293100 </v>
   <v>      -0.00544483      -0.00124488       0.00240993 </v>
   <v>       0.01169669       0.00301293      -0.00054668 </v>
   <v>       0.00221963       0.00141613      -0.00342566 </v>
   <v>       0.00877904       0.00274140      -0.00405116 </v>
   <v>      -0.00234165      -0.01221376      -0.00036584 </v>
   <v>      -0.00585786       0.00018052      -0.00542606 </v>
   <v>      -0.00494267       0.00467855       0.00031214 </v>
   <v>      -0.00505325       0.00461680      -0.00727738 </v>
   <v>       0.00550435      -0.00381554      -0.00268549 </v>
   <v>      -0.00366976      -0.00179127       0.00484095 </v>
   <v>      -0.00591508      -0.00213077       0.00206541 </v>
   <v>      -0.00162041      -0.00526834       0.00943052 </v>
   <v>      -0.00708436      -0.00237575      -0.00197549 </v>
   <v>       0.00533089      -0.00336605      -0.00479011 </v>
   <v>       0.00257920      -0.00146061       0.00083784 </v>
   <v>       0.01099461       0.00326803       0.00127709 </v>
   <v>      -0.00576389       0.00277290      -0.00222692 </v>
   <v>       0.01521272       0.00915441       0.00297219 </v>
   <v>       0.00676356       0.01058779      -0.00717412 </v>
   <v>       0.00822581       0.00042135      -0.00231292 </v>
   <v>      -0.00052730       0.01500039      -0.01794673 </v>
   <v>      -0.00332089      -0.00344609      -0.00404574 </v>
   <v>      -0.00485367       0.03467373       0.00052846 </v>
   <v>      -0.00583333       0.00544610      -0.01314347 </v>
   <v>       0.00504440      -0.00090513      -0.00243827 </v>
   <v>      -0.01518360      -0.56249471      -0.00069435 </v>
   <v>      -0.00653187      -0.00268631       0.00268338 </v>
   <v>      -0.00596320      -0.00093874       0.00760540 </v>
   <v>      -0.00480512       0.00037059      -0.00046283 </v>
   <v>       0.00464465       0.00173439      -0.00518672 </v>
   <v>       0.00145712      -0.00125634       0.00213138 </v>
   <v>       0.01096991       0.00316115       0.00070044 </v>
   <v>      -0.00448206       0.04846875      -0.05692137 </v>
   <v>       0.01084244       0.00415210      -0.00044950 </v>
   <v>       0.00268727      -0.00018010      -0.00188936 </v>
   <v>       0.00870889       0.00215878      -0.00269647 </v>
   <v>      -0.00096563       0.00877822      -0.01157803 </v>
   <v>      -0.00749846       0.00259201      -0.00835197 </v>
   <v>      -0.00495641       0.00727117       0.00038461 </v>
   <v>      -0.01016549      -0.00130748      -0.00649378 </v>
   <v>       0.00394625      -0.00200230      -0.00159953 </v>
   <v>      -0.00359014      -0.01398951       0.00442918 </v>
   <v>      -0.00590278      -0.00188762       0.00205485 </v>
   <v>      -0.00134989      -0.00515877       0.00954126 </v>
   <v>      -0.00636468      -0.00054428      -0.00026659 </v>
   <v>       0.00416581       0.00182574      -0.00544582 </v>
   <v>       0.00241181      -0.00092854       0.00116657 </v>
   <v>       0.01540072       0.01169325       0.00505880 </v>
   <v>      -0.00554288      -0.00108844       0.00194960 </v>
   <v>       0.01534518       0.00908528       0.00240527 </v>
   <v>       0.00230934      -0.00055894      -0.00348546 </v>
   <v>       0.00826874       0.00265541      -0.00350692 </v>
   <v>      -0.00060999      -0.00289224      -0.00041568 </v>
   <v>      -0.00473848      -0.00226625      -0.00457730 </v>
   <v>      -0.00509199       0.00632230       0.00067728 </v>
   <v>      -0.00869823       0.00080437      -0.00808923 </v>
   <v>       0.05246376       0.03803512      -0.00200166 </v>
   <v>      -0.00322192      -0.00197312       0.00412142 </v>
   <v>      -0.00449650      -0.00262795       0.00526393 </v>
   <v>      -0.00134061      -0.00626869       0.01053116 </v>
   <v>      -0.00173614       0.00666488      -0.00484187 </v>
   <v>       0.00405153      -0.00505395      -0.00660073 </v>
   <v>       0.00240761      -0.00128580       0.00115632 </v>
   <v>       0.01138124       0.00173145      -0.00058449 </v>
   <v>      -0.00563647      -0.00216231       0.00168378 </v>
   <v>       0.01045610       0.00408844      -0.00056399 </v>
   <v>       0.00234569       0.00121448      -0.00309149 </v>
   <v>       0.00846923       0.00182362      -0.00317419 </v>
   <v>      -0.00192972      -0.00238212      -0.00097476 </v>
   <v>      -0.00370703      -0.00309231      -0.00493232 </v>
   <v>      -0.00496078       0.00497465       0.00025099 </v>
   <v>      -0.00934692       0.00021021      -0.00793692 </v>
   <v>       0.00448580      -0.00071631      -0.00273121 </v>
   <v>      -0.00336432      -0.00192177       0.00398456 </v>
   <v>      -0.00599448      -0.00148788       0.00206610 </v>
   <v>      -0.00332429      -0.00721584       0.01023972 </v>
   <v>      -0.00667178      -0.00230181       0.00061549 </v>
   <v>       0.00419703      -0.00162887      -0.00547117 </v>
   <v>       0.00128302      -0.00257664       0.00121479 </v>
   <v>       0.01085029       0.00295552       0.00103658 </v>
   <v>      -0.00566296      -0.00319769       0.00092927 </v>
   <v>       0.01069604       0.00327749       0.00010144 </v>
   <v>       0.00159741       0.00010583      -0.00446574 </v>
   <v>       0.00818268       0.00751768       0.00078799 </v>
   <v>      -0.00016586       0.01495444       0.01656067 </v>
   <v>      -0.00315661      -0.00333844      -0.00586750 </v>
   <v>      -0.00521414       0.00765799       0.00009376 </v>
   <v>      -0.00614021       0.00495239      -0.00390808 </v>
   <v>       0.00508201      -0.00110813      -0.00225201 </v>
   <v>      -0.00344296      -0.00151553       0.00451027 </v>
   <v>      -0.00717366      -0.00154690       0.00277047 </v>
   <v>      -0.00133220      -0.00631865       0.01036169 </v>
   <v>      -0.00637729      -0.00013117      -0.00065442 </v>
   <v>       0.00533132       0.00115242      -0.00501500 </v>
   <v>       0.00286439      -0.00274699       0.00094397 </v>
   <v>       0.00995596       0.00228480       0.00243712 </v>
[...]
       <r>     9.7484   244.3074  2303.3426 </r>
       <r>     9.7950   224.6426  2313.8105 </r>
       <r>     9.8416   219.4280  2324.0354 </r>
       <r>     9.8882   236.1331  2335.0387 </r>
       <r>     9.9348   263.5592  2347.3201 </r>
       <r>     9.9814   294.3887  2361.0380 </r>
       <r>    10.0280   326.6088  2376.2573 </r>
       <r>    10.0746   348.8805  2392.5145 </r>
       <r>    10.1212   346.7385  2408.6718 </r>
       <r>    10.1678   324.4686  2423.7914 </r>
       <r>    10.2144   310.1776  2438.2450 </r>
       <r>    10.2610   328.2838  2453.5424 </r>
       <r>    10.3076   385.5857  2471.5099 </r>
       <r>    10.3542   464.8896  2493.1729 </r>
       <r>    10.4008   518.1547  2517.3178 </r>
       <r>    10.4474   509.9772  2541.0818 </r>
       <r>    10.4940   451.9736  2562.1428 </r>
       <r>    10.5406   375.5178  2579.6412 </r>
       <r>    10.5872   303.4589  2593.7818 </r>
       <r>    10.6338   249.1484  2605.3916 </r>
       <r>    10.6804   213.0290  2615.3183 </r>
       <r>    10.7270   181.5603  2623.7787 </r>
       <r>    10.7736   142.9394  2630.4394 </r>
       <r>    10.8202    98.1831  2635.0145 </r>
       <r>    10.8668    57.2310  2637.6814 </r>
       <r>    10.9134    27.9473  2638.9837 </r>
       <r>    10.9600    10.8453  2639.4890 </r>
       <r>    11.0066     3.1086  2639.6339 </r>
       <r>    11.0532     1.3209  2639.6954 </r>
       <r>    11.0998     1.7086  2639.7750 </r>
       <r>    11.1464     1.5982  2639.8495 </r>
       <r>    11.1930     0.7019  2639.8822 </r>
       <r>    11.2396     0.0223  2639.8833 </r>
       <r>    11.2862    -0.1131  2639.8780 </r>
       <r>    11.3328    -0.0516  2639.8756 </r>
       <r>    11.3794    -0.0114  2639.8751 </r>
       <r>    11.4260    -0.0035  2639.8749 </r>
       <r>    11.4726    -0.0132  2639.8743 </r>
       <r>    11.5192    -0.0424  2639.8723 </r>
       <r>    11.5658    -0.0358  2639.8706 </r>
       <r>    11.6124     0.2000  2639.8800 </r>
       <r>    11.6590     0.7162  2639.9133 </r>
       <r>    11.7055     1.0262  2639.9612 </r>
       <r>    11.7521     0.7221  2639.9948 </r>
       <r>    11.7987     0.2046  2640.0043 </r>
       <r>    11.8453    -0.0349  2640.0027 </r>
       <r>    11.8919    -0.0427  2640.0007 </r>
       <r>    11.9385    -0.0133  2640.0001 </r>
       <r>    11.9851    -0.0022  2640.0000 </r>
       <r>    12.0317    -0.0002  2640.0000 </r>
       <r>    12.0783    -0.0000  2640.0000 </r>
       <r>    12.1249    -0.0000  2640.0000 </r>
       <r>    12.1715    -0.0000  2640.0000 </r>
       <r>    12.2181    -0.0000  2640.0000 </r>
       <r>    12.2647    -0.0000  2640.0000 </r>
       <r>    12.3113    -0.0000  2640.0000 </r>
       <r>    12.3579     0.0000  2640.0000 </r>
       <r>    12.4045     0.0000  2640.0000 </r>
       <r>    12.4511     0.0000  2640.0000 </r>
       <r>    12.4977     0.0000  2640.0000 </r>
       <r>    12.5443     0.0000  2640.0000 </r>
       <r>    12.5909     0.0000  2640.0000 </r>
       <r>    12.6375     0.0000  2640.0000 </r>
       <r>    12.6841     0.0000  2640.0000 </r>
      </set>
     </set>
    </array>
   </total>
  </dos>
 </calculation>
 <structure name="finalpos" >
  <crystal>
   <varray name="basis" >
    <v>       0.00188000      15.37080000       0.00140000 </v>
    <v>       0.00152000      -0.00140000     -15.37218000 </v>
    <v>     -15.37636000      -0.00188000       0.00151000 </v>
   </varray>
   <i name="volume">   3633.16780401 </i>
   <varray name="rec_basis" >
    <v>      -0.00000795       0.06505842      -0.00000593 </v>
    <v>      -0.00000639       0.00000593      -0.06505258 </v>
    <v>      -0.06503490       0.00000795      -0.00000643 </v>
   </varray>
  </crystal>
  <varray name="positions" >
   <v>       0.12544250       0.12495750       0.00137500 </v>
   <v>       0.25023500       0.87425500       0.37476000 </v>
   <v>       0.50095250       0.12407750       0.62474500 </v>
   <v>       0.37553250       0.12507750       0.50016500 </v>
   <v>       0.24973750       0.12571750       0.37459500 </v>
   <v>       0.37600500       0.00007500       0.37466000 </v>
   <v>       0.25039000       0.00088000       0.24854000 </v>
   <v>       0.37534750       0.24987750       0.37305500 </v>
   <v>       0.49970000       0.00076500       0.24985000 </v>
   <v>       0.25027250       0.00022250       0.00012500 </v>
   <v>       0.62466750       0.24912250       0.37463500 </v>
   <v>       0.37446000       0.12498500       0.00162000 </v>
   <v>       0.49907250       0.37499750       0.12491500 </v>
   <v>       0.49965250       0.24988250       0.00137500 </v>
   <v>       0.37398000       0.25085000       0.87599000 </v>
   <v>       0.62457250       0.37420750       0.24977500 </v>
   <v>       0.37544250       0.37495750       0.50137500 </v>
   <v>       0.50023500       0.12425500       0.87476000 </v>
   <v>       0.75095250       0.37407750       0.12474500 </v>
   <v>       0.62553250       0.37507750       0.00016500 </v>
   <v>       0.49973750       0.37571750       0.87459500 </v>
   <v>       0.62600500       0.25007500       0.87466000 </v>
   <v>       0.50039000       0.25088000       0.74854000 </v>
   <v>       0.62534750       0.49987750       0.87305500 </v>
   <v>       0.74970000       0.25076500       0.74985000 </v>
   <v>       0.50027250       0.25022250       0.50012500 </v>
   <v>       0.87466750       0.49912250       0.87463500 </v>
   <v>       0.62446000       0.37498500       0.50162000 </v>
   <v>       0.74907250       0.62499750       0.62491500 </v>
   <v>       0.74965250       0.49988250       0.50137500 </v>
   <v>       0.62398000       0.50085000       0.37599000 </v>
   <v>       0.87457250       0.62420750       0.74977500 </v>
   <v>       0.62544250       0.12495750       0.00137500 </v>
   <v>       0.75023500       0.87425500       0.37476000 </v>
   <v>       0.00095250       0.12407750       0.62474500 </v>
   <v>       0.87553250       0.12507750       0.50016500 </v>
   <v>       0.74973750       0.12571750       0.37459500 </v>
   <v>       0.87600500       0.00007500       0.37466000 </v>
   <v>       0.75039000       0.00088000       0.24854000 </v>
   <v>       0.87534750       0.24987750       0.37305500 </v>
   <v>       0.99970000       0.00076500       0.24985000 </v>
   <v>       0.75027250       0.00022250       0.00012500 </v>
   <v>       0.12726750       0.24912250       0.37463500 </v>
   <v>       0.87445750       0.12498750       0.00161500 </v>
   <v>       0.99907250       0.37499750       0.12491500 </v>
   <v>       0.99965250       0.24988250       0.00137500 </v>
   <v>       0.87398000       0.25085000       0.87599000 </v>
   <v>       0.12457250       0.37420750       0.24977500 </v>
   <v>       0.12544250       0.62495750       0.00137500 </v>
   <v>       0.25023500       0.37425500       0.37476000 </v>
   <v>       0.50095250       0.62407750       0.62474500 </v>
   <v>       0.37553250       0.62507750       0.50016500 </v>
   <v>       0.24973750       0.62571750       0.37459500 </v>
   <v>       0.37600500       0.50007500       0.37466000 </v>
   <v>       0.25039000       0.50088000       0.24854000 </v>
   <v>       0.37534750       0.74987750       0.37305500 </v>
   <v>       0.49970000       0.50076500       0.24985000 </v>
   <v>       0.25027250       0.50022250       0.00012500 </v>
   <v>       0.62466750       0.74912250       0.37463500 </v>
   <v>       0.37446000       0.62498500       0.00162000 </v>
   <v>       0.49907250       0.87499750       0.12491500 </v>
   <v>       0.49965250       0.74988250       0.00137500 </v>
   <v>       0.37397750       0.75084750       0.87598500 </v>
   <v>       0.62457250       0.87420750       0.24977500 </v>
   <v>       0.87544250       0.37495750       0.50137500 </v>
   <v>       0.00023500       0.12425500       0.87476000 </v>
   <v>       0.25095250       0.37407750       0.12474500 </v>
   <v>       0.12553250       0.37507750       0.00016500 </v>
   <v>       0.99973750       0.37571750       0.87459500 </v>
   <v>       0.12600500       0.25007500       0.87466000 </v>
   <v>       0.00039000       0.25088000       0.74854000 </v>
   <v>       0.12534750       0.49987750       0.87305500 </v>
   <v>       0.24970000       0.25076500       0.74985000 </v>
   <v>       0.00027250       0.25022250       0.50012500 </v>
   <v>       0.37466750       0.49912250       0.87463500 </v>
   <v>       0.12446000       0.37498500       0.50162000 </v>
   <v>       0.24907250       0.62499750       0.62491500 </v>
   <v>       0.24965250       0.49988250       0.50137500 </v>
   <v>       0.12397750       0.50084750       0.37598500 </v>
   <v>       0.37457250       0.62420750       0.74977500 </v>
   <v>       0.37544250       0.87495750       0.50137500 </v>
   <v>       0.50023500       0.62425500       0.87476000 </v>
   <v>       0.75095250       0.87407750       0.12474500 </v>
   <v>       0.62553250       0.87507750       0.00016500 </v>
   <v>       0.49973750       0.87571750       0.87459500 </v>
   <v>       0.62600250       0.75007250       0.87465500 </v>
   <v>       0.50039000       0.75088000       0.74854000 </v>
   <v>       0.62534750       0.99987750       0.87305500 </v>
   <v>       0.74970000       0.75076500       0.74985000 </v>
   <v>       0.50027250       0.75022250       0.50012500 </v>
   <v>       0.87466750       0.99912250       0.87463500 </v>
   <v>       0.62446000       0.87498500       0.50162000 </v>
   <v>       0.74907250       0.12499750       0.62491500 </v>
   <v>       0.74965250       0.99988250       0.50137500 </v>
   <v>       0.62397750       0.00084750       0.37598500 </v>
   <v>       0.87457250       0.12420750       0.74977500 </v>
   <v>       0.62544250       0.62495750       0.00137500 </v>
   <v>       0.75023500       0.37425500       0.37476000 </v>
   <v>       0.00095250       0.62407750       0.62474500 </v>
   <v>       0.87553250       0.62507750       0.50016500 </v>
   <v>       0.74973750       0.62571750       0.37459500 </v>
   <v>       0.87600500       0.50007500       0.37466000 </v>
   <v>       0.75039000       0.50088000       0.24854000 </v>
   <v>       0.87534750       0.74987750       0.37305500 </v>
   <v>       0.99970000       0.50076500       0.24985000 </v>
   <v>       0.75027250       0.50022250       0.00012500 </v>
   <v>       0.12466750       0.74912250       0.37463500 </v>
   <v>       0.87445750       0.62498750       0.00161500 </v>
   <v>       0.99907250       0.87499750       0.12491500 </v>
   <v>       0.99965250       0.74988250       0.00137500 </v>
   <v>       0.87398000       0.75085000       0.87599000 </v>
   <v>       0.12457250       0.87420750       0.24977500 </v>
   <v>       0.87544250       0.87495750       0.50137500 </v>
   <v>       0.00023500       0.62425500       0.87476000 </v>
   <v>       0.25095000       0.87407500       0.12474000 </v>
   <v>       0.12553250       0.87507750       0.00016500 </v>
   <v>       0.99973750       0.87571750       0.87459500 </v>
   <v>       0.12600250       0.75007250       0.87465500 </v>
   <v>       0.00039000       0.75088000       0.74854000 </v>
   <v>       0.12534750       0.99987750       0.87305500 </v>
   <v>       0.24970000       0.75076500       0.74985000 </v>
   <v>       0.00027250       0.75022250       0.50012500 </v>
   <v>       0.37466750       0.99912250       0.87463500 </v>
   <v>       0.12446000       0.87498500       0.50162000 </v>
   <v>       0.24907250       0.12499750       0.62491500 </v>
   <v>       0.24965250       0.99988250       0.50137500 </v>
   <v>       0.12397750       0.00084750       0.37598500 </v>
   <v>       0.37457250       0.12420750       0.74977500 </v>
   <v>       0.25026250       0.24934750       0.24886500 </v>
   <v>       0.37540000       0.99901500       0.62581000 </v>
   <v>       0.25026250       0.24988250       0.99990500 </v>
   <v>       0.37536500       0.37434000       0.25012000 </v>
   <v>       0.12452500       0.00102500       0.12470000 </v>
   <v>       0.62450750       0.12506750       0.49982500 </v>
   <v>       0.50015250       0.12515750       0.37466500 </v>
   <v>       0.37555250       0.12560250       0.24861500 </v>
   <v>       0.24996250       0.12589750       0.12593500 </v>
   <v>       0.37545500       0.00032500       0.12460000 </v>
   <v>       0.49970750       0.24909250       0.24996500 </v>
   <v>       0.37461750       0.87555250       0.74886500 </v>
   <v>       0.37463500       0.24969000       0.12600000 </v>
   <v>       0.50001500       0.12515000       0.12596000 </v>
   <v>       0.49971750       0.00013750       0.00129500 </v>
   <v>       0.24985750       0.12477250       0.87470500 </v>
   <v>       0.50026250       0.49934750       0.74886500 </v>
   <v>       0.62540000       0.24901500       0.12581000 </v>
   <v>       0.50026250       0.49988250       0.49990500 </v>
   <v>       0.62536500       0.62434000       0.75012000 </v>
   <v>       0.37452500       0.25102500       0.62470000 </v>
   <v>       0.87450750       0.37506750       0.99982500 </v>
   <v>       0.75015250       0.37515750       0.87466500 </v>
   <v>       0.62555250       0.37560250       0.74861500 </v>
   <v>       0.49996250       0.37589750       0.62593500 </v>
   <v>       0.62545500       0.25032500       0.62460000 </v>
   <v>       0.74970750       0.49909250       0.74996500 </v>
   <v>       0.62461750       0.12555250       0.24886500 </v>
   <v>       0.62463250       0.49969250       0.62599500 </v>
   <v>       0.75001500       0.37515000       0.62596000 </v>
   <v>       0.74971750       0.25013750       0.50129500 </v>
   <v>       0.49985750       0.37477250       0.37470500 </v>
   <v>       0.75026250       0.24934750       0.24886500 </v>
   <v>       0.87540000       0.99901500       0.62581000 </v>
   <v>       0.75026250       0.24988250       0.99990500 </v>
   <v>       0.87536500       0.37434000       0.25012000 </v>
   <v>       0.62452500       0.00102500       0.12470000 </v>
   <v>       0.12450750       0.12506750       0.49982500 </v>
   <v>       0.00015250       0.12515750       0.37466500 </v>
   <v>       0.87555250       0.12560250       0.24861500 </v>
   <v>       0.74996250       0.12589750       0.12593500 </v>
   <v>       0.87545500       0.00032500       0.12460000 </v>
   <v>       0.99970750       0.24909250       0.24996500 </v>
   <v>       0.87461750       0.87555250       0.74886500 </v>
   <v>       0.87463250       0.24969250       0.12599500 </v>
   <v>       0.00001500       0.12515000       0.12596000 </v>
   <v>       0.99971750       0.00013750       0.00129500 </v>
   <v>       0.74985750       0.12477250       0.87470500 </v>
   <v>       0.25026250       0.74934750       0.24886500 </v>
   <v>       0.37540000       0.49901500       0.62581000 </v>
   <v>       0.25026250       0.74988250       0.99990500 </v>
   <v>       0.37536500       0.87434000       0.25012000 </v>
   <v>       0.12452500       0.50102500       0.12470000 </v>
   <v>       0.62450750       0.62506750       0.49982500 </v>
   <v>       0.50015250       0.62515750       0.37466500 </v>
   <v>       0.37555250       0.62560250       0.24861500 </v>
   <v>       0.24996250       0.62589750       0.12593500 </v>
   <v>       0.37545500       0.50032500       0.12460000 </v>
   <v>       0.49970750       0.74909250       0.24996500 </v>
   <v>       0.37461750       0.37555250       0.74886500 </v>
   <v>       0.37463500       0.74969000       0.12600000 </v>
   <v>       0.50001500       0.62515000       0.12596000 </v>
   <v>       0.49971750       0.50013750       0.00129500 </v>
   <v>       0.24985750       0.62477250       0.87470500 </v>
   <v>       0.00026250       0.49934750       0.74886500 </v>
   <v>       0.12540000       0.24901500       0.12581000 </v>
   <v>       0.00026250       0.49988250       0.49990500 </v>
   <v>       0.12536500       0.62434000       0.75012000 </v>
   <v>       0.87452500       0.25102500       0.62470000 </v>
   <v>       0.37450750       0.37506750       0.99982500 </v>
   <v>       0.25015250       0.37515750       0.87466500 </v>
   <v>       0.12555250       0.37560250       0.74861500 </v>
   <v>       0.99996250       0.37589750       0.62593500 </v>
   <v>       0.12545500       0.25032500       0.62460000 </v>
   <v>       0.24970750       0.49909250       0.74996500 </v>
   <v>       0.12461750       0.12555250       0.24886500 </v>
   <v>       0.12463250       0.49969250       0.62599500 </v>
   <v>       0.25001500       0.37515000       0.62596000 </v>
   <v>       0.24971750       0.25013750       0.50129500 </v>
   <v>       0.99985750       0.37477250       0.37470500 </v>
   <v>       0.50026250       0.99934750       0.74886500 </v>
   <v>       0.62540000       0.74901500       0.12581000 </v>
   <v>       0.50026250       0.99988250       0.49990500 </v>
   <v>       0.62536500       0.12434000       0.75012000 </v>
   <v>       0.37452500       0.75102500       0.62470000 </v>
   <v>       0.87450750       0.87506750       0.99982500 </v>
   <v>       0.75015250       0.87515750       0.87466500 </v>
   <v>       0.62555250       0.87560250       0.74861500 </v>
   <v>       0.49996250       0.87589750       0.62593500 </v>
   <v>       0.62545500       0.75032500       0.62460000 </v>
   <v>       0.74970750       0.99909250       0.74996500 </v>
   <v>       0.62461750       0.62555250       0.24886500 </v>
   <v>       0.62463250       0.99969250       0.62599500 </v>
   <v>       0.75001500       0.87515000       0.62596000 </v>
   <v>       0.74971750       0.75013750       0.50129500 </v>
   <v>       0.49985750       0.87477250       0.37470500 </v>
   <v>       0.75026250       0.74934750       0.24886500 </v>
   <v>       0.87540000       0.49901500       0.62581000 </v>
   <v>       0.75026250       0.74988250       0.99990500 </v>
   <v>       0.87536500       0.87434000       0.25012000 </v>
   <v>       0.62452500       0.50102500       0.12470000 </v>
   <v>       0.12450750       0.62506750       0.49982500 </v>
   <v>       0.00015250       0.62515750       0.37466500 </v>
   <v>       0.87555250       0.62560250       0.24861500 </v>
   <v>       0.74996250       0.62589750       0.12593500 </v>
   <v>       0.87545500       0.50032500       0.12460000 </v>
   <v>       0.99970750       0.74909250       0.24996500 </v>
   <v>       0.87461750       0.37555250       0.74886500 </v>
   <v>       0.87463250       0.74969250       0.12599500 </v>
   <v>       0.00001500       0.62515000       0.12596000 </v>
   <v>       0.99971750       0.50013750       0.00129500 </v>
   <v>       0.74985750       0.62477250       0.87470500 </v>
   <v>       0.00026250       0.99934750       0.74886500 </v>
   <v>       0.12540000       0.74901500       0.12581000 </v>
   <v>       0.00026250       0.99988250       0.49990500 </v>
   <v>       0.12536500       0.12434000       0.75012000 </v>
   <v>       0.87452500       0.75102500       0.62470000 </v>
   <v>       0.37450750       0.87506750       0.99982500 </v>
   <v>       0.25015250       0.87515750       0.87466500 </v>
   <v>       0.12555250       0.87560250       0.74861500 </v>
   <v>       0.99996250       0.87589750       0.62593500 </v>
   <v>       0.12545500       0.75032500       0.62460000 </v>
   <v>       0.24970750       0.99909250       0.74996500 </v>
   <v>       0.12461750       0.62555250       0.24886500 </v>
   <v>       0.12463500       0.99969000       0.62600000 </v>
   <v>       0.25001250       0.87514750       0.62596500 </v>
   <v>       0.24971750       0.75013750       0.50129500 </v>
   <v>       0.99985750       0.87477250       0.37470500 </v>
  </varray>
 </structure>
</modeling>
