   8   8   0   0
  0.1398160E+02  0.5465420E-09  0.5465421E-09  0.4323860E-09  0.5000000E-15
  1.000000000000000E-004
  CAR 
 Ir_Ru                                   
     30.57393320     -1.12806737  301      9.11831204      1.00000000
     -1.128  0.0000E+00  0.0000E+00
     -1.022  0.0000E+00  0.0000E+00
     -0.917  0.0000E+00  0.0000E+00
     -0.811  0.0000E+00  0.0000E+00
     -0.705  0.0000E+00  0.0000E+00
     -0.600  0.0000E+00  0.0000E+00
     -0.494  0.0000E+00  0.0000E+00
     -0.388  0.0000E+00  0.0000E+00
     -0.283  0.0000E+00  0.0000E+00
     -0.177  0.0000E+00  0.0000E+00
     -0.071  0.0000E+00  0.0000E+00
      0.034  0.0000E+00  0.0000E+00
      0.140  0.0000E+00  0.0000E+00
      0.246  0.0000E+00  0.0000E+00
      0.351  0.2414E-01  0.3092E-03
      0.457  0.1680E+00  0.1231E-01
      0.563  0.2352E+00  0.3284E-01
      0.668  0.2992E+00  0.6176E-01
      0.774  0.3443E+00  0.9543E-01
      0.880  0.4004E+00  0.1348E+00
      0.985  0.4535E+00  0.1801E+00
      1.091  0.4997E+00  0.2304E+00
      1.197  0.5508E+00  0.2858E+00
      1.302  0.6105E+00  0.3471E+00
      1.408  0.6699E+00  0.4148E+00
      1.514  0.7357E+00  0.4890E+00
      1.619  0.8154E+00  0.5708E+00
      1.725  0.9142E+00  0.6621E+00
      1.831  0.1033E+01  0.7646E+00
      1.936  0.1353E+01  0.8937E+00
      2.042  0.1300E+01  0.1030E+01
      2.148  0.1345E+01  0.1167E+01
      2.253  0.1892E+01  0.1337E+01
      2.359  0.2170E+01  0.1555E+01
      2.465  0.2759E+01  0.1812E+01
      2.570  0.5147E+01  0.2209E+01
      2.676  0.7712E+01  0.2907E+01
      2.782  0.8676E+01  0.3797E+01
      2.888  0.6788E+01  0.4584E+01
      2.993  0.7658E+01  0.5351E+01
      3.099  0.7929E+01  0.6183E+01
      3.205  0.9126E+01  0.7077E+01
      3.310  0.1253E+02  0.8198E+01
      3.416  0.1348E+02  0.9557E+01
      3.522  0.1233E+02  0.1088E+02
      3.627  0.1084E+02  0.1201E+02
      3.733  0.9963E+01  0.1312E+02
      3.839  0.1011E+02  0.1421E+02
      3.944  0.8522E+01  0.1522E+02
      4.050  0.7756E+01  0.1604E+02
      4.156  0.7135E+01  0.1680E+02
      4.261  0.1236E+02  0.1788E+02
      4.367  0.1318E+02  0.1931E+02
      4.473  0.1193E+02  0.2054E+02
      4.578  0.7289E+01  0.2156E+02
      4.684  0.7727E+01  0.2233E+02
      4.790  0.1008E+02  0.2322E+02
      4.895  0.1191E+02  0.2449E+02
      5.001  0.1061E+02  0.2561E+02
      5.107  0.1104E+02  0.2683E+02
      5.212  0.1035E+02  0.2794E+02
      5.318  0.7842E+01  0.2890E+02
      5.424  0.7312E+01  0.2968E+02
      5.529  0.5280E+01  0.3034E+02
      5.635  0.5867E+01  0.3096E+02
      5.741  0.1008E+02  0.3187E+02
      5.846  0.1428E+02  0.3306E+02
      5.952  0.1227E+02  0.3454E+02
      6.058  0.1300E+02  0.3591E+02
      6.163  0.1389E+02  0.3738E+02
      6.269  0.1117E+02  0.3860E+02
      6.375  0.1234E+02  0.3989E+02
      6.480  0.1461E+02  0.4125E+02
      6.586  0.1176E+02  0.4269E+02
      6.692  0.1443E+02  0.4405E+02
      6.797  0.1340E+02  0.4546E+02
      6.903  0.1170E+02  0.4670E+02
      7.009  0.1187E+02  0.4792E+02
      7.114  0.1467E+02  0.4925E+02
      7.220  0.1099E+02  0.5059E+02
      7.326  0.1236E+02  0.5176E+02
      7.431  0.1269E+02  0.5303E+02
      7.537  0.1118E+02  0.5426E+02
      7.643  0.9597E+01  0.5540E+02
      7.748  0.8686E+01  0.5631E+02
      7.854  0.9001E+01  0.5724E+02
      7.960  0.7413E+01  0.5809E+02
      8.066  0.7312E+01  0.5887E+02
      8.171  0.7814E+01  0.5968E+02
      8.277  0.7606E+01  0.6050E+02
      8.383  0.7611E+01  0.6128E+02
      8.488  0.5479E+01  0.6197E+02
      8.594  0.5363E+01  0.6261E+02
      8.700  0.5701E+01  0.6321E+02
      8.805  0.5271E+01  0.6379E+02
      8.911  0.7063E+01  0.6443E+02
      9.017  0.7648E+01  0.6524E+02
      9.122  0.6844E+01  0.6603E+02
      9.228  0.7126E+01  0.6675E+02
      9.334  0.6677E+01  0.6757E+02
      9.439  0.6862E+01  0.6824E+02
      9.545  0.1034E+02  0.6911E+02
      9.651  0.1154E+02  0.7026E+02
      9.756  0.9754E+01  0.7142E+02
      9.862  0.9899E+01  0.7245E+02
      9.968  0.1451E+02  0.7364E+02
     10.073  0.1419E+02  0.7516E+02
     10.179  0.1478E+02  0.7661E+02
     10.285  0.1465E+02  0.7837E+02
     10.390  0.1666E+02  0.8003E+02
     10.496  0.1482E+02  0.8182E+02
     10.602  0.9975E+01  0.8315E+02
     10.707  0.4211E+01  0.8398E+02
     10.813  0.2663E+01  0.8428E+02
     10.919  0.3030E+01  0.8458E+02
     11.024  0.2254E+01  0.8485E+02
     11.130  0.1922E+01  0.8507E+02
     11.236  0.1916E+01  0.8527E+02
     11.341  0.2071E+01  0.8548E+02
     11.447  0.2724E+01  0.8573E+02
     11.553  0.2261E+01  0.8598E+02
     11.658  0.2212E+01  0.8622E+02
     11.764  0.2176E+01  0.8645E+02
     11.870  0.2045E+01  0.8667E+02
     11.975  0.1929E+01  0.8688E+02
     12.081  0.1953E+01  0.8709E+02
     12.187  0.2086E+01  0.8730E+02
     12.292  0.2174E+01  0.8753E+02
     12.398  0.2084E+01  0.8775E+02
     12.504  0.2197E+01  0.8797E+02
     12.609  0.2158E+01  0.8821E+02
     12.715  0.2109E+01  0.8843E+02
     12.821  0.2124E+01  0.8865E+02
     12.926  0.2020E+01  0.8887E+02
     13.032  0.1996E+01  0.8908E+02
     13.138  0.2028E+01  0.8930E+02
     13.244  0.1896E+01  0.8951E+02
     13.349  0.1739E+01  0.8970E+02
     13.455  0.1653E+01  0.8988E+02
     13.561  0.1631E+01  0.9006E+02
     13.666  0.1649E+01  0.9023E+02
     13.772  0.1686E+01  0.9041E+02
     13.878  0.1735E+01  0.9059E+02
     13.983  0.1702E+01  0.9077E+02
     14.089  0.1694E+01  0.9095E+02
     14.195  0.1764E+01  0.9113E+02
     14.300  0.1838E+01  0.9132E+02
     14.406  0.1811E+01  0.9151E+02
     14.512  0.1816E+01  0.9170E+02
     14.617  0.1830E+01  0.9190E+02
     14.723  0.1843E+01  0.9210E+02
     14.829  0.1861E+01  0.9229E+02
     14.934  0.1893E+01  0.9249E+02
     15.040  0.1916E+01  0.9269E+02
     15.146  0.2009E+01  0.9292E+02
     15.251  0.1989E+01  0.9313E+02
     15.357  0.1861E+01  0.9333E+02
     15.463  0.1780E+01  0.9352E+02
     15.568  0.1705E+01  0.9371E+02
     15.674  0.1627E+01  0.9389E+02
     15.780  0.1606E+01  0.9406E+02
     15.885  0.1601E+01  0.9423E+02
     15.991  0.1617E+01  0.9440E+02
     16.097  0.1527E+01  0.9456E+02
     16.202  0.1492E+01  0.9472E+02
     16.308  0.1401E+01  0.9488E+02
     16.414  0.1299E+01  0.9502E+02
     16.519  0.1154E+01  0.9515E+02
     16.625  0.1063E+01  0.9527E+02
     16.731  0.9307E+00  0.9537E+02
     16.836  0.8433E+00  0.9546E+02
     16.942  0.7875E+00  0.9555E+02
     17.048  0.7336E+00  0.9563E+02
     17.153  0.6955E+00  0.9571E+02
     17.259  0.6543E+00  0.9578E+02
     17.365  0.6899E+00  0.9585E+02
     17.470  0.7791E+00  0.9593E+02
     17.576  0.6867E+00  0.9601E+02
     17.682  0.5442E+00  0.9607E+02
     17.787  0.5723E+00  0.9613E+02
     17.893  0.6787E+00  0.9619E+02
     17.999  0.9728E+00  0.9628E+02
     18.104  0.1677E+01  0.9642E+02
     18.210  0.3287E+01  0.9671E+02
     18.316  0.2257E+01  0.9698E+02
     18.421  0.1996E+01  0.9720E+02
     18.527  0.2112E+01  0.9742E+02
     18.633  0.2337E+01  0.9765E+02
     18.739  0.2297E+01  0.9790E+02
     18.844  0.2469E+01  0.9815E+02
     18.950  0.2771E+01  0.9843E+02
     19.056  0.2827E+01  0.9873E+02
     19.161  0.2399E+01  0.9900E+02
     19.267  0.2335E+01  0.9925E+02
     19.373  0.3435E+01  0.9954E+02
     19.478  0.4634E+01  0.9997E+02
     19.584  0.4796E+01  0.1005E+03
     19.690  0.3807E+01  0.1009E+03
     19.795  0.4058E+01  0.1014E+03
     19.901  0.3725E+01  0.1018E+03
     20.007  0.3860E+01  0.1022E+03
     20.112  0.3855E+01  0.1026E+03
     20.218  0.3980E+01  0.1030E+03
     20.324  0.3761E+01  0.1034E+03
     20.429  0.3649E+01  0.1038E+03
     20.535  0.3758E+01  0.1042E+03
     20.641  0.3734E+01  0.1046E+03
     20.746  0.3792E+01  0.1050E+03
     20.852  0.3337E+01  0.1053E+03
     20.958  0.3242E+01  0.1057E+03
     21.063  0.3459E+01  0.1060E+03
     21.169  0.3742E+01  0.1064E+03
     21.275  0.4263E+01  0.1068E+03
     21.380  0.3784E+01  0.1073E+03
     21.486  0.2958E+01  0.1076E+03
     21.592  0.2897E+01  0.1080E+03
     21.697  0.2999E+01  0.1083E+03
     21.803  0.3123E+01  0.1086E+03
     21.909  0.3122E+01  0.1089E+03
     22.014  0.2975E+01  0.1092E+03
     22.120  0.3230E+01  0.1096E+03
     22.226  0.3578E+01  0.1099E+03
     22.331  0.3232E+01  0.1103E+03
     22.437  0.2933E+01  0.1106E+03
     22.543  0.2904E+01  0.1109E+03
     22.648  0.3121E+01  0.1112E+03
     22.754  0.2972E+01  0.1116E+03
     22.860  0.3068E+01  0.1119E+03
     22.965  0.2912E+01  0.1122E+03
     23.071  0.2519E+01  0.1125E+03
     23.177  0.2515E+01  0.1128E+03
     23.282  0.2477E+01  0.1130E+03
     23.388  0.2636E+01  0.1133E+03
     23.494  0.2828E+01  0.1136E+03
     23.599  0.2881E+01  0.1139E+03
     23.705  0.3199E+01  0.1142E+03
     23.811  0.3567E+01  0.1146E+03
     23.917  0.4173E+01  0.1150E+03
     24.022  0.4562E+01  0.1154E+03
     24.128  0.4828E+01  0.1159E+03
     24.234  0.5385E+01  0.1165E+03
     24.339  0.6072E+01  0.1171E+03
     24.445  0.6058E+01  0.1177E+03
     24.551  0.5970E+01  0.1184E+03
     24.656  0.7310E+01  0.1191E+03
     24.762  0.7289E+01  0.1198E+03
     24.868  0.6977E+01  0.1206E+03
     24.973  0.6657E+01  0.1214E+03
     25.079  0.4886E+01  0.1220E+03
     25.185  0.5504E+01  0.1225E+03
     25.290  0.4831E+01  0.1231E+03
     25.396  0.4257E+01  0.1235E+03
     25.502  0.3706E+01  0.1240E+03
     25.607  0.3760E+01  0.1244E+03
     25.713  0.3708E+01  0.1248E+03
     25.819  0.3228E+01  0.1251E+03
     25.924  0.2884E+01  0.1255E+03
     26.030  0.2718E+01  0.1257E+03
     26.136  0.2895E+01  0.1260E+03
     26.241  0.3273E+01  0.1264E+03
     26.347  0.3470E+01  0.1267E+03
     26.453  0.3455E+01  0.1271E+03
     26.558  0.2339E+01  0.1274E+03
     26.664  0.1501E+01  0.1276E+03
     26.770  0.1002E+01  0.1277E+03
     26.875  0.6467E+00  0.1278E+03
     26.981  0.3574E+00  0.1279E+03
     27.087  0.2545E+00  0.1279E+03
     27.192  0.1889E+00  0.1279E+03
     27.298  0.1471E+00  0.1279E+03
     27.404  0.1174E+00  0.1280E+03
     27.509  0.9526E-01  0.1280E+03
     27.615  0.7703E-01  0.1280E+03
     27.721  0.6177E-01  0.1280E+03
     27.826  0.4710E-01  0.1280E+03
     27.932  0.3280E-01  0.1280E+03
     28.038  0.1920E-01  0.1280E+03
     28.143  0.9624E-02  0.1280E+03
     28.249  0.5982E-02  0.1280E+03
     28.355  0.4420E-02  0.1280E+03
     28.460  0.3231E-02  0.1280E+03
     28.566  0.2410E-02  0.1280E+03
     28.672  0.1697E-02  0.1280E+03
     28.777  0.1008E-02  0.1280E+03
     28.883  0.4980E-03  0.1280E+03
     28.989  0.1657E-03  0.1280E+03
     29.095  0.1179E-04  0.1280E+03
     29.200  0.0000E+00  0.1280E+03
     29.306  0.0000E+00  0.1280E+03
     29.412  0.0000E+00  0.1280E+03
     29.517  0.0000E+00  0.1280E+03
     29.623  0.0000E+00  0.1280E+03
     29.729  0.0000E+00  0.1280E+03
     29.834  0.0000E+00  0.1280E+03
     29.940  0.0000E+00  0.1280E+03
     30.046  0.0000E+00  0.1280E+03
     30.151  0.0000E+00  0.1280E+03
     30.257  0.0000E+00  0.1280E+03
     30.363  0.0000E+00  0.1280E+03
     30.468  0.0000E+00  0.1280E+03
     30.574  0.0000E+00  0.1280E+03
