       N       E                     dE             d eps       ncg     rms          rms(c)
RMM:   1     0.260083990628E+03    0.26008E+03   -0.11119E+04 13888   0.401E+02
RMM:   2    -0.138089401872E+02   -0.27389E+03   -0.24918E+03 13888   0.140E+02
RMM:   3    -0.637747779231E+02   -0.49966E+02   -0.25381E+02 13888   0.544E+01
RMM:   4    -0.762675554685E+02   -0.12493E+02   -0.46349E+01 13888   0.276E+01
RMM:   5    -0.774192698505E+02   -0.11517E+01   -0.84793E+00 13888   0.110E+01
RMM:   6    -0.776260731801E+02   -0.20680E+00   -0.17583E+00 13888   0.547E+00
RMM:   7    -0.776713147679E+02   -0.45242E-01   -0.43608E-01 13888   0.266E+00
RMM:   8    -0.776835769260E+02   -0.12262E-01   -0.11945E-01 13888   0.148E+00
RMM:   9    -0.776881590535E+02   -0.45821E-02   -0.45312E-02 27781   0.777E-01
RMM:  10    -0.776886579825E+02   -0.49893E-03   -0.49834E-03 29782   0.199E-01
RMM:  11    -0.776886789745E+02   -0.20992E-04   -0.21038E-04 25873   0.600E-02
RMM:  12    -0.776886815726E+02   -0.25981E-05   -0.25777E-05 25632   0.115E-02    0.138E+01
RMM:  13    -0.728419447576E+02    0.48467E+01   -0.75605E+00 27776   0.124E+01    0.473E+00
RMM:  14    -0.731859582183E+02   -0.34401E+00   -0.16019E+00 27776   0.497E+00    0.736E+00
RMM:  15    -0.722438274237E+02    0.94213E+00   -0.45566E-01 27776   0.254E+00    0.740E-01
RMM:  16    -0.722023180168E+02    0.41509E-01   -0.21060E-02 27776   0.664E-01    0.408E-01
RMM:  17    -0.721989352765E+02    0.33827E-02   -0.17355E-03 27776   0.138E-01    0.174E-01
RMM:  18    -0.721985205955E+02    0.41468E-03   -0.27369E-04 27776   0.565E-02    0.404E-02
RMM:  19    -0.721985542131E+02   -0.33618E-04   -0.60915E-05 27776   0.268E-02
   1 F= -.72198554E+02 E0= -.72199338E+02  d E =-.721986E+02
       N       E                     dE             d eps       ncg     rms          rms(c)
RMM:   1    -0.108248257373E+03   -0.36050E+02   -0.13051E+03 27776   0.168E+02    0.377E+01
RMM:   2    -0.668986162625E+02    0.41350E+02   -0.10603E+01 27776   0.129E+01    0.180E+01
RMM:   3    -0.584300320320E+02    0.84686E+01   -0.13983E+01 27776   0.191E+01    0.878E+00
RMM:   4    -0.562275901472E+02    0.22024E+01   -0.27610E+00 27776   0.768E+00    0.232E+00
RMM:   5    -0.563492748289E+02   -0.12168E+00   -0.32406E-01 27776   0.305E+00    0.837E-01
RMM:   6    -0.563760273825E+02   -0.26753E-01   -0.59254E-02 27776   0.684E-01    0.190E-01
RMM:   7    -0.563767650818E+02   -0.73770E-03   -0.46175E-03 28113   0.272E-01    0.123E-01
RMM:   8    -0.563773163332E+02   -0.55125E-03   -0.10295E-03 28083   0.115E-01    0.627E-02
RMM:   9    -0.563772627241E+02    0.53609E-04   -0.16062E-04 28127   0.405E-02
   2 F= -.56377263E+02 E0= -.56377350E+02  d E =0.158213E+02
       N       E                     dE             d eps       ncg     rms          rms(c)
RMM:   1    -0.105749593268E+03   -0.49372E+02   -0.10974E+03 27776   0.183E+02    0.308E+01
RMM:   2    -0.779971331504E+02    0.27752E+02   -0.50800E+01 27776   0.412E+01    0.120E+01
RMM:   3    -0.783017889629E+02   -0.30466E+00   -0.72908E+00 27776   0.111E+01    0.124E+01
RMM:   4    -0.736562584437E+02    0.46455E+01   -0.20961E+00 27776   0.587E+00    0.189E+00
RMM:   5    -0.734604467600E+02    0.19581E+00   -0.20533E-01 27776   0.175E+00    0.938E-01
RMM:   6    -0.734334161721E+02    0.27031E-01   -0.22597E-02 27776   0.591E-01    0.602E-01
RMM:   7    -0.734271384967E+02    0.62777E-02   -0.10823E-02 27776   0.404E-01    0.184E-01
RMM:   8    -0.734279644715E+02   -0.82597E-03   -0.18219E-03 27776   0.155E-01    0.555E-02
RMM:   9    -0.734282552821E+02   -0.29081E-03   -0.24627E-04 27973   0.391E-02    0.193E-02
RMM:  10    -0.734282655006E+02   -0.10219E-04   -0.51029E-05 27776   0.293E-02
   3 F= -.73428266E+02 E0= -.73428720E+02  d E =-.122971E+01
       N       E                     dE             d eps       ncg     rms          rms(c)
RMM:   1    -0.734663106703E+02   -0.38055E-01   -0.56975E-01 27776   0.392E+00    0.812E-01
RMM:   2    -0.734471098371E+02    0.19201E-01   -0.19604E-02 27776   0.742E-01    0.280E-01
RMM:   3    -0.734474013886E+02   -0.29155E-03   -0.44745E-03 27776   0.276E-01    0.344E-01
RMM:   4    -0.734448130619E+02    0.25883E-02   -0.13614E-03 27776   0.148E-01    0.384E-02
RMM:   5    -0.734448162294E+02   -0.31675E-05   -0.79250E-05 27776   0.372E-02
   4 F= -.73444816E+02 E0= -.73445250E+02  d E =-.124626E+01
       N       E                     dE             d eps       ncg     rms          rms(c)
RMM:   1    -0.734567359052E+02   -0.11923E-01   -0.23848E-01 27776   0.255E+00    0.523E-01
RMM:   2    -0.734488342729E+02    0.79016E-02   -0.80986E-03 27776   0.479E-01    0.187E-01
RMM:   3    -0.734489739879E+02   -0.13972E-03   -0.18959E-03 27776   0.179E-01    0.227E-01
RMM:   4    -0.734478629199E+02    0.11111E-02   -0.59779E-04 27776   0.987E-02    0.337E-02
RMM:   5    -0.734478548461E+02    0.80738E-05   -0.14350E-05 27773   0.134E-02
   5 F= -.73447855E+02 E0= -.73448277E+02  d E =-.124930E+01
       N       E                     dE             d eps       ncg     rms          rms(c)
RMM:   1    -0.734589532358E+02   -0.11090E-01   -0.11202E+00 27776   0.336E+00    0.475E-01
RMM:   2    -0.734536190998E+02    0.53341E-02   -0.20348E-02 27776   0.603E-01    0.233E-01
RMM:   3    -0.734521109503E+02    0.15081E-02   -0.36863E-03 27776   0.192E-01    0.166E-01
RMM:   4    -0.734515028245E+02    0.60813E-03   -0.44552E-04 27776   0.679E-02    0.402E-02
RMM:   5    -0.734514521768E+02    0.50648E-04   -0.30620E-05 27776   0.218E-02
   6 F= -.73451452E+02 E0= -.73451630E+02  d E =-.359733E-02
       N       E                     dE             d eps       ncg     rms          rms(c)
RMM:   1    -0.734520946140E+02   -0.59179E-03   -0.49819E-02 27776   0.709E-01    0.998E-02
RMM:   2    -0.734518747876E+02    0.21983E-03   -0.93388E-04 27776   0.129E-01    0.504E-02
RMM:   3    -0.734518751458E+02   -0.35822E-06   -0.17915E-04 27776   0.442E-02    0.703E-02
RMM:   4    -0.734517894355E+02    0.85710E-04   -0.45195E-05 27776   0.229E-02    0.167E-02
RMM:   5    -0.734517847165E+02    0.47190E-05   -0.45268E-06 26590   0.784E-03
   7 F= -.73451785E+02 E0= -.73452016E+02  d E =-.392987E-02
       N       E                     dE             d eps       ncg     rms          rms(c)
RMM:   1    -0.734522308435E+02   -0.44141E-03   -0.20617E-01 27776   0.125E+00    0.797E-02
RMM:   2    -0.734524839055E+02   -0.25306E-03   -0.46255E-03 27884   0.257E-01    0.539E-02
RMM:   3    -0.734524760409E+02    0.78646E-05   -0.52406E-04 28431   0.666E-02    0.444E-02
RMM:   4    -0.734524346855E+02    0.41355E-04   -0.49128E-05 27776   0.308E-02    0.232E-02
RMM:   5    -0.734524248597E+02    0.98258E-05   -0.11618E-05 27776   0.113E-02
   8 F= -.73452425E+02 E0= -.73452568E+02  d E =-.640143E-03
       N       E                     dE             d eps       ncg     rms          rms(c)
RMM:   1    -0.734524215563E+02    0.13129E-04   -0.35377E-05 27773   0.164E-02    0.993E-03
RMM:   2    -0.734524279244E+02   -0.63681E-05   -0.58396E-06 26971   0.806E-03    0.228E-02
RMM:   3    -0.734524199510E+02    0.79734E-05   -0.29510E-06 24020   0.667E-03    0.310E-03
RMM:   4    -0.734524197746E+02    0.17646E-06   -0.34580E-07 15479   0.234E-03    0.266E-03
RMM:   5    -0.734524196346E+02    0.13997E-06   -0.18012E-07 15359   0.189E-03
   9 F= -.73452420E+02 E0= -.73452564E+02  d E =-.634918E-03
       N       E                     dE             d eps       ncg     rms          rms(c)
RMM:   1    -0.734531456535E+02   -0.72588E-03   -0.26357E-02 27776   0.803E-01    0.162E-01
RMM:   2    -0.734524025586E+02    0.74309E-03   -0.98523E-04 27776   0.153E-01    0.585E-02
RMM:   3    -0.734524183276E+02   -0.15769E-04   -0.21883E-04 27776   0.590E-02    0.697E-02
RMM:   4    -0.734523140774E+02    0.10425E-03   -0.65257E-05 27776   0.313E-02    0.879E-03
RMM:   5    -0.734523172718E+02   -0.31945E-05   -0.41729E-06 27310   0.819E-03
  10 F= -.73452317E+02 E0= -.73452450E+02  d E =0.102363E-03
       N       E                     dE             d eps       ncg     rms          rms(c)
RMM:   1    -0.734528846290E+02   -0.57055E-03   -0.12942E-02 27776   0.563E-01    0.114E-01
RMM:   2    -0.734525102387E+02    0.37439E-03   -0.48772E-04 27776   0.108E-01    0.402E-02
RMM:   3    -0.734525144675E+02   -0.42288E-05   -0.10722E-04 27776   0.413E-02    0.501E-02
RMM:   4    -0.734524589740E+02    0.55493E-04   -0.32026E-05 27776   0.220E-02    0.102E-02
RMM:   5    -0.734524569049E+02    0.20692E-05   -0.14905E-06 20329   0.444E-03
  11 F= -.73452457E+02 E0= -.73452597E+02  d E =-.372703E-04
