<?xml version="1.0" encoding="ISO-8859-1"?>
<modeling>
 <generator>
  <i name="program" type="string">vasp </i>
  <i name="version" type="string">5.4.1  </i>
  <i name="subversion" type="string">24Jun15 (build Dec 12 2017 15:24:27) complex                          parallel </i>
  <i name="platform" type="string">IFC91_ompi </i>
  <i name="date" type="string">2020 04 03 </i>
  <i name="time" type="string">15:50:34 </i>
 </generator>
 <incar>
  <i type="string" name="SYSTEM"> Ir_Ru</i>
  <i type="int" name="ISTART">     0</i>
  <i type="string" name="PREC">accurate</i>
  <i type="string" name="ALGO"> Very_Fast</i>
  <i type="int" name="ICHARG">     2</i>
  <i type="int" name="NELMIN">     5</i>
  <i type="int" name="IBRION">    -1</i>
  <i name="EDIFFG">      0.00001000</i>
  <i type="int" name="ISIF">     2</i>
  <i type="int" name="ISMEAR">    -5</i>
  <i name="SIGMA">      0.10000000</i>
  <v type="int" name="KPOINT_BSE">    -1     0     0     0</v>
 </incar>
 <kpoints>
  <generation param="Gamma">
   <v type="int" name="divisions">      10       10       12 </v>
   <v name="usershift">      0.00000000       0.00000000       0.00000000 </v>
   <v name="genvec1">      0.10000000      -0.00000000       0.00000000 </v>
   <v name="genvec2">      0.00000000       0.10000000       0.00000000 </v>
   <v name="genvec3">      0.00000000       0.00000000       0.08333333 </v>
   <v name="shift">      0.00000000       0.00000000       0.00000000 </v>
  </generation>
  <varray name="kpointlist" >
   <v>       0.00000000       0.00000000       0.00000000 </v>
   <v>       0.10000000       0.00000000       0.00000000 </v>
   <v>       0.20000000       0.00000000       0.00000000 </v>
   <v>       0.30000000       0.00000000       0.00000000 </v>
   <v>       0.40000000       0.00000000       0.00000000 </v>
   <v>       0.50000000       0.00000000       0.00000000 </v>
   <v>       0.10000000       0.10000000       0.00000000 </v>
   <v>       0.20000000       0.10000000       0.00000000 </v>
   <v>       0.30000000       0.10000000       0.00000000 </v>
   <v>       0.40000000       0.10000000       0.00000000 </v>
   <v>       0.50000000       0.10000000       0.00000000 </v>
   <v>      -0.40000000       0.10000000       0.00000000 </v>
   <v>      -0.30000000       0.10000000       0.00000000 </v>
   <v>      -0.20000000       0.10000000       0.00000000 </v>
   <v>      -0.10000000       0.10000000       0.00000000 </v>
   <v>       0.20000000       0.20000000       0.00000000 </v>
   <v>       0.30000000       0.20000000       0.00000000 </v>
   <v>       0.40000000       0.20000000       0.00000000 </v>
   <v>       0.50000000       0.20000000       0.00000000 </v>
   <v>      -0.40000000       0.20000000       0.00000000 </v>
   <v>      -0.30000000       0.20000000       0.00000000 </v>
   <v>      -0.20000000       0.20000000       0.00000000 </v>
   <v>       0.30000000       0.30000000       0.00000000 </v>
   <v>       0.40000000       0.30000000       0.00000000 </v>
   <v>       0.50000000       0.30000000       0.00000000 </v>
   <v>      -0.40000000       0.30000000       0.00000000 </v>
   <v>      -0.30000000       0.30000000       0.00000000 </v>
   <v>       0.40000000       0.40000000       0.00000000 </v>
   <v>       0.50000000       0.40000000       0.00000000 </v>
   <v>      -0.40000000       0.40000000       0.00000000 </v>
   <v>       0.50000000       0.50000000       0.00000000 </v>
   <v>       0.00000000       0.00000000       0.08333333 </v>
   <v>       0.10000000       0.00000000       0.08333333 </v>
   <v>       0.20000000       0.00000000       0.08333333 </v>
   <v>       0.30000000       0.00000000       0.08333333 </v>
   <v>       0.40000000       0.00000000       0.08333333 </v>
   <v>       0.50000000       0.00000000       0.08333333 </v>
   <v>       0.10000000       0.10000000       0.08333333 </v>
   <v>       0.20000000       0.10000000       0.08333333 </v>
   <v>       0.30000000       0.10000000       0.08333333 </v>
   <v>       0.40000000       0.10000000       0.08333333 </v>
   <v>       0.50000000       0.10000000       0.08333333 </v>
   <v>      -0.40000000       0.10000000       0.08333333 </v>
   <v>      -0.30000000       0.10000000       0.08333333 </v>
   <v>      -0.20000000       0.10000000       0.08333333 </v>
   <v>      -0.10000000       0.10000000       0.08333333 </v>
   <v>       0.20000000       0.20000000       0.08333333 </v>
   <v>       0.30000000       0.20000000       0.08333333 </v>
   <v>       0.40000000       0.20000000       0.08333333 </v>
   <v>       0.50000000       0.20000000       0.08333333 </v>
   <v>      -0.40000000       0.20000000       0.08333333 </v>
   <v>      -0.30000000       0.20000000       0.08333333 </v>
   <v>      -0.20000000       0.20000000       0.08333333 </v>
   <v>       0.30000000       0.30000000       0.08333333 </v>
   <v>       0.40000000       0.30000000       0.08333333 </v>
   <v>       0.50000000       0.30000000       0.08333333 </v>
   <v>      -0.40000000       0.30000000       0.08333333 </v>
   <v>      -0.30000000       0.30000000       0.08333333 </v>
   <v>       0.40000000       0.40000000       0.08333333 </v>
   <v>       0.50000000       0.40000000       0.08333333 </v>
   <v>      -0.40000000       0.40000000       0.08333333 </v>
   <v>       0.50000000       0.50000000       0.08333333 </v>
   <v>       0.00000000       0.00000000       0.16666667 </v>
   <v>       0.10000000       0.00000000       0.16666667 </v>
   <v>       0.20000000       0.00000000       0.16666667 </v>
   <v>       0.30000000       0.00000000       0.16666667 </v>
   <v>       0.40000000       0.00000000       0.16666667 </v>
   <v>       0.50000000       0.00000000       0.16666667 </v>
   <v>       0.10000000       0.10000000       0.16666667 </v>
   <v>       0.20000000       0.10000000       0.16666667 </v>
   <v>       0.30000000       0.10000000       0.16666667 </v>
   <v>       0.40000000       0.10000000       0.16666667 </v>
   <v>       0.50000000       0.10000000       0.16666667 </v>
   <v>      -0.40000000       0.10000000       0.16666667 </v>
   <v>      -0.30000000       0.10000000       0.16666667 </v>
   <v>      -0.20000000       0.10000000       0.16666667 </v>
   <v>      -0.10000000       0.10000000       0.16666667 </v>
   <v>       0.20000000       0.20000000       0.16666667 </v>
   <v>       0.30000000       0.20000000       0.16666667 </v>
   <v>       0.40000000       0.20000000       0.16666667 </v>
   <v>       0.50000000       0.20000000       0.16666667 </v>
   <v>      -0.40000000       0.20000000       0.16666667 </v>
   <v>      -0.30000000       0.20000000       0.16666667 </v>
   <v>      -0.20000000       0.20000000       0.16666667 </v>
   <v>       0.30000000       0.30000000       0.16666667 </v>
   <v>       0.40000000       0.30000000       0.16666667 </v>
   <v>       0.50000000       0.30000000       0.16666667 </v>
   <v>      -0.40000000       0.30000000       0.16666667 </v>
   <v>      -0.30000000       0.30000000       0.16666667 </v>
   <v>       0.40000000       0.40000000       0.16666667 </v>
   <v>       0.50000000       0.40000000       0.16666667 </v>
   <v>      -0.40000000       0.40000000       0.16666667 </v>
   <v>       0.50000000       0.50000000       0.16666667 </v>
   <v>       0.00000000       0.00000000       0.25000000 </v>
   <v>       0.10000000       0.00000000       0.25000000 </v>
   <v>       0.20000000       0.00000000       0.25000000 </v>
   <v>       0.30000000       0.00000000       0.25000000 </v>
   <v>       0.40000000       0.00000000       0.25000000 </v>
   <v>       0.50000000       0.00000000       0.25000000 </v>
   <v>       0.10000000       0.10000000       0.25000000 </v>
   <v>       0.20000000       0.10000000       0.25000000 </v>
   <v>       0.30000000       0.10000000       0.25000000 </v>
   <v>       0.40000000       0.10000000       0.25000000 </v>
   <v>       0.50000000       0.10000000       0.25000000 </v>
   <v>      -0.40000000       0.10000000       0.25000000 </v>
   <v>      -0.30000000       0.10000000       0.25000000 </v>
   <v>      -0.20000000       0.10000000       0.25000000 </v>
   <v>      -0.10000000       0.10000000       0.25000000 </v>
   <v>       0.20000000       0.20000000       0.25000000 </v>
   <v>       0.30000000       0.20000000       0.25000000 </v>
   <v>       0.40000000       0.20000000       0.25000000 </v>
   <v>       0.50000000       0.20000000       0.25000000 </v>
   <v>      -0.40000000       0.20000000       0.25000000 </v>
   <v>      -0.30000000       0.20000000       0.25000000 </v>
   <v>      -0.20000000       0.20000000       0.25000000 </v>
   <v>       0.30000000       0.30000000       0.25000000 </v>
   <v>       0.40000000       0.30000000       0.25000000 </v>
   <v>       0.50000000       0.30000000       0.25000000 </v>
   <v>      -0.40000000       0.30000000       0.25000000 </v>
   <v>      -0.30000000       0.30000000       0.25000000 </v>
   <v>       0.40000000       0.40000000       0.25000000 </v>
   <v>       0.50000000       0.40000000       0.25000000 </v>
   <v>      -0.40000000       0.40000000       0.25000000 </v>
   <v>       0.50000000       0.50000000       0.25000000 </v>
   <v>       0.00000000       0.00000000       0.33333333 </v>
   <v>       0.10000000       0.00000000       0.33333333 </v>
   <v>       0.20000000       0.00000000       0.33333333 </v>
   <v>       0.30000000       0.00000000       0.33333333 </v>
   <v>       0.40000000       0.00000000       0.33333333 </v>
   <v>       0.50000000       0.00000000       0.33333333 </v>
   <v>       0.10000000       0.10000000       0.33333333 </v>
   <v>       0.20000000       0.10000000       0.33333333 </v>
   <v>       0.30000000       0.10000000       0.33333333 </v>
   <v>       0.40000000       0.10000000       0.33333333 </v>
   <v>       0.50000000       0.10000000       0.33333333 </v>
   <v>      -0.40000000       0.10000000       0.33333333 </v>
   <v>      -0.30000000       0.10000000       0.33333333 </v>
   <v>      -0.20000000       0.10000000       0.33333333 </v>
   <v>      -0.10000000       0.10000000       0.33333333 </v>
   <v>       0.20000000       0.20000000       0.33333333 </v>
   <v>       0.30000000       0.20000000       0.33333333 </v>
   <v>       0.40000000       0.20000000       0.33333333 </v>
   <v>       0.50000000       0.20000000       0.33333333 </v>
   <v>      -0.40000000       0.20000000       0.33333333 </v>
   <v>      -0.30000000       0.20000000       0.33333333 </v>
   <v>      -0.20000000       0.20000000       0.33333333 </v>
   <v>       0.30000000       0.30000000       0.33333333 </v>
   <v>       0.40000000       0.30000000       0.33333333 </v>
   <v>       0.50000000       0.30000000       0.33333333 </v>
   <v>      -0.40000000       0.30000000       0.33333333 </v>
   <v>      -0.30000000       0.30000000       0.33333333 </v>
   <v>       0.40000000       0.40000000       0.33333333 </v>
   <v>       0.50000000       0.40000000       0.33333333 </v>
   <v>      -0.40000000       0.40000000       0.33333333 </v>
   <v>       0.50000000       0.50000000       0.33333333 </v>
   <v>       0.00000000       0.00000000       0.41666667 </v>
   <v>       0.10000000       0.00000000       0.41666667 </v>
   <v>       0.20000000       0.00000000       0.41666667 </v>
   <v>       0.30000000       0.00000000       0.41666667 </v>
   <v>       0.40000000       0.00000000       0.41666667 </v>
   <v>       0.50000000       0.00000000       0.41666667 </v>
   <v>       0.10000000       0.10000000       0.41666667 </v>
   <v>       0.20000000       0.10000000       0.41666667 </v>
   <v>       0.30000000       0.10000000       0.41666667 </v>
   <v>       0.40000000       0.10000000       0.41666667 </v>
   <v>       0.50000000       0.10000000       0.41666667 </v>
   <v>      -0.40000000       0.10000000       0.41666667 </v>
   <v>      -0.30000000       0.10000000       0.41666667 </v>
   <v>      -0.20000000       0.10000000       0.41666667 </v>
   <v>      -0.10000000       0.10000000       0.41666667 </v>
   <v>       0.20000000       0.20000000       0.41666667 </v>
   <v>       0.30000000       0.20000000       0.41666667 </v>
   <v>       0.40000000       0.20000000       0.41666667 </v>
   <v>       0.50000000       0.20000000       0.41666667 </v>
   <v>      -0.40000000       0.20000000       0.41666667 </v>
   <v>      -0.30000000       0.20000000       0.41666667 </v>
   <v>      -0.20000000       0.20000000       0.41666667 </v>
   <v>       0.30000000       0.30000000       0.41666667 </v>
   <v>       0.40000000       0.30000000       0.41666667 </v>
   <v>       0.50000000       0.30000000       0.41666667 </v>
   <v>      -0.40000000       0.30000000       0.41666667 </v>
   <v>      -0.30000000       0.30000000       0.41666667 </v>
   <v>       0.40000000       0.40000000       0.41666667 </v>
   <v>       0.50000000       0.40000000       0.41666667 </v>
   <v>      -0.40000000       0.40000000       0.41666667 </v>
   <v>       0.50000000       0.50000000       0.41666667 </v>
   <v>       0.00000000       0.00000000       0.50000000 </v>
   <v>       0.10000000       0.00000000       0.50000000 </v>
   <v>       0.20000000       0.00000000       0.50000000 </v>
   <v>       0.30000000       0.00000000       0.50000000 </v>
   <v>       0.40000000       0.00000000       0.50000000 </v>
   <v>       0.50000000       0.00000000       0.50000000 </v>
   <v>       0.10000000       0.10000000       0.50000000 </v>
   <v>       0.20000000       0.10000000       0.50000000 </v>
   <v>       0.30000000       0.10000000       0.50000000 </v>
   <v>       0.40000000       0.10000000       0.50000000 </v>
   <v>       0.50000000       0.10000000       0.50000000 </v>
   <v>      -0.40000000       0.10000000       0.50000000 </v>
   <v>      -0.30000000       0.10000000       0.50000000 </v>
   <v>      -0.20000000       0.10000000       0.50000000 </v>
   <v>      -0.10000000       0.10000000       0.50000000 </v>
   <v>       0.20000000       0.20000000       0.50000000 </v>
   <v>       0.30000000       0.20000000       0.50000000 </v>
   <v>       0.40000000       0.20000000       0.50000000 </v>
   <v>       0.50000000       0.20000000       0.50000000 </v>
   <v>      -0.40000000       0.20000000       0.50000000 </v>
   <v>      -0.30000000       0.20000000       0.50000000 </v>
   <v>      -0.20000000       0.20000000       0.50000000 </v>
   <v>       0.30000000       0.30000000       0.50000000 </v>
   <v>       0.40000000       0.30000000       0.50000000 </v>
   <v>       0.50000000       0.30000000       0.50000000 </v>
   <v>      -0.40000000       0.30000000       0.50000000 </v>
   <v>      -0.30000000       0.30000000       0.50000000 </v>
   <v>       0.40000000       0.40000000       0.50000000 </v>
   <v>       0.50000000       0.40000000       0.50000000 </v>
   <v>      -0.40000000       0.40000000       0.50000000 </v>
   <v>       0.50000000       0.50000000       0.50000000 </v>
  </varray>
  <varray name="weights" >
   <v>       0.00083333 </v>
   <v>       0.00333333 </v>
   <v>       0.00333333 </v>
   <v>       0.00333333 </v>
   <v>       0.00333333 </v>
   <v>       0.00166667 </v>
   <v>       0.00166667 </v>
   <v>       0.00333333 </v>
   <v>       0.00333333 </v>
   <v>       0.00333333 </v>
   <v>       0.00333333 </v>
   <v>       0.00333333 </v>
   <v>       0.00333333 </v>
   <v>       0.00333333 </v>
   <v>       0.00166667 </v>
   <v>       0.00166667 </v>
   <v>       0.00333333 </v>
   <v>       0.00333333 </v>
   <v>       0.00333333 </v>
   <v>       0.00333333 </v>
   <v>       0.00333333 </v>
   <v>       0.00166667 </v>
   <v>       0.00166667 </v>
   <v>       0.00333333 </v>
   <v>       0.00333333 </v>
   <v>       0.00333333 </v>
   <v>       0.00166667 </v>
   <v>       0.00166667 </v>
   <v>       0.00333333 </v>
   <v>       0.00166667 </v>
   <v>       0.00083333 </v>
   <v>       0.00166667 </v>
   <v>       0.00666667 </v>
   <v>       0.00666667 </v>
   <v>       0.00666667 </v>
   <v>       0.00666667 </v>
   <v>       0.00333333 </v>
   <v>       0.00333333 </v>
   <v>       0.00666667 </v>
   <v>       0.00666667 </v>
   <v>       0.00666667 </v>
   <v>       0.00666667 </v>
   <v>       0.00666667 </v>
   <v>       0.00666667 </v>
   <v>       0.00666667 </v>
   <v>       0.00333333 </v>
   <v>       0.00333333 </v>
   <v>       0.00666667 </v>
   <v>       0.00666667 </v>
   <v>       0.00666667 </v>
   <v>       0.00666667 </v>
   <v>       0.00666667 </v>
   <v>       0.00333333 </v>
   <v>       0.00333333 </v>
   <v>       0.00666667 </v>
   <v>       0.00666667 </v>
   <v>       0.00666667 </v>
   <v>       0.00333333 </v>
   <v>       0.00333333 </v>
   <v>       0.00666667 </v>
   <v>       0.00333333 </v>
   <v>       0.00166667 </v>
   <v>       0.00166667 </v>
   <v>       0.00666667 </v>
   <v>       0.00666667 </v>
   <v>       0.00666667 </v>
   <v>       0.00666667 </v>
   <v>       0.00333333 </v>
   <v>       0.00333333 </v>
   <v>       0.00666667 </v>
   <v>       0.00666667 </v>
   <v>       0.00666667 </v>
   <v>       0.00666667 </v>
   <v>       0.00666667 </v>
   <v>       0.00666667 </v>
   <v>       0.00666667 </v>
   <v>       0.00333333 </v>
   <v>       0.00333333 </v>
   <v>       0.00666667 </v>
   <v>       0.00666667 </v>
   <v>       0.00666667 </v>
   <v>       0.00666667 </v>
   <v>       0.00666667 </v>
   <v>       0.00333333 </v>
   <v>       0.00333333 </v>
   <v>       0.00666667 </v>
   <v>       0.00666667 </v>
   <v>       0.00666667 </v>
   <v>       0.00333333 </v>
   <v>       0.00333333 </v>
   <v>       0.00666667 </v>
   <v>       0.00333333 </v>
   <v>       0.00166667 </v>
   <v>       0.00166667 </v>
   <v>       0.00666667 </v>
   <v>       0.00666667 </v>
   <v>       0.00666667 </v>
   <v>       0.00666667 </v>
   <v>       0.00333333 </v>
   <v>       0.00333333 </v>
   <v>       0.00666667 </v>
   <v>       0.00666667 </v>
   <v>       0.00666667 </v>
   <v>       0.00666667 </v>
   <v>       0.00666667 </v>
   <v>       0.00666667 </v>
   <v>       0.00666667 </v>
   <v>       0.00333333 </v>
   <v>       0.00333333 </v>
   <v>       0.00666667 </v>
   <v>       0.00666667 </v>
   <v>       0.00666667 </v>
   <v>       0.00666667 </v>
   <v>       0.00666667 </v>
   <v>       0.00333333 </v>
   <v>       0.00333333 </v>
   <v>       0.00666667 </v>
   <v>       0.00666667 </v>
   <v>       0.00666667 </v>
   <v>       0.00333333 </v>
   <v>       0.00333333 </v>
   <v>       0.00666667 </v>
   <v>       0.00333333 </v>
   <v>       0.00166667 </v>
   <v>       0.00166667 </v>
   <v>       0.00666667 </v>
   <v>       0.00666667 </v>
   <v>       0.00666667 </v>
   <v>       0.00666667 </v>
   <v>       0.00333333 </v>
   <v>       0.00333333 </v>
   <v>       0.00666667 </v>
   <v>       0.00666667 </v>
   <v>       0.00666667 </v>
   <v>       0.00666667 </v>
   <v>       0.00666667 </v>
   <v>       0.00666667 </v>
   <v>       0.00666667 </v>
   <v>       0.00333333 </v>
   <v>       0.00333333 </v>
   <v>       0.00666667 </v>
   <v>       0.00666667 </v>
   <v>       0.00666667 </v>
   <v>       0.00666667 </v>
   <v>       0.00666667 </v>
   <v>       0.00333333 </v>
   <v>       0.00333333 </v>
   <v>       0.00666667 </v>
   <v>       0.00666667 </v>
   <v>       0.00666667 </v>
   <v>       0.00333333 </v>
   <v>       0.00333333 </v>
   <v>       0.00666667 </v>
   <v>       0.00333333 </v>
   <v>       0.00166667 </v>
   <v>       0.00166667 </v>
   <v>       0.00666667 </v>
   <v>       0.00666667 </v>
   <v>       0.00666667 </v>
   <v>       0.00666667 </v>
   <v>       0.00333333 </v>
   <v>       0.00333333 </v>
   <v>       0.00666667 </v>
   <v>       0.00666667 </v>
   <v>       0.00666667 </v>
   <v>       0.00666667 </v>
   <v>       0.00666667 </v>
   <v>       0.00666667 </v>
   <v>       0.00666667 </v>
   <v>       0.00333333 </v>
   <v>       0.00333333 </v>
   <v>       0.00666667 </v>
   <v>       0.00666667 </v>
   <v>       0.00666667 </v>
   <v>       0.00666667 </v>
   <v>       0.00666667 </v>
   <v>       0.00333333 </v>
   <v>       0.00333333 </v>
   <v>       0.00666667 </v>
   <v>       0.00666667 </v>
   <v>       0.00666667 </v>
   <v>       0.00333333 </v>
   <v>       0.00333333 </v>
   <v>       0.00666667 </v>
   <v>       0.00333333 </v>
   <v>       0.00166667 </v>
   <v>       0.00083333 </v>
   <v>       0.00333333 </v>
   <v>       0.00333333 </v>
   <v>       0.00333333 </v>
   <v>       0.00333333 </v>
   <v>       0.00166667 </v>
   <v>       0.00166667 </v>
   <v>       0.00333333 </v>
   <v>       0.00333333 </v>
   <v>       0.00333333 </v>
   <v>       0.00333333 </v>
   <v>       0.00333333 </v>
   <v>       0.00333333 </v>
   <v>       0.00333333 </v>
   <v>       0.00166667 </v>
   <v>       0.00166667 </v>
   <v>       0.00333333 </v>
   <v>       0.00333333 </v>
   <v>       0.00333333 </v>
   <v>       0.00333333 </v>
   <v>       0.00333333 </v>
   <v>       0.00166667 </v>
   <v>       0.00166667 </v>
   <v>       0.00333333 </v>
   <v>       0.00333333 </v>
   <v>       0.00333333 </v>
   <v>       0.00166667 </v>
   <v>       0.00166667 </v>
   <v>       0.00333333 </v>
   <v>       0.00166667 </v>
   <v>       0.00083333 </v>
  </varray>
  <varray name="tetrahedronlist"  type="int" >
   <v type="int" >        4        2        2        7       33 </v>
   <v type="int" >        4        1        2        2       33 </v>
   <v type="int" >        4        1        2       32       33 </v>
   <v type="int" >        4        2        7       33       38 </v>
   <v type="int" >        4        2       33       33       38 </v>
   <v type="int" >        4        2       32       33       33 </v>
   <v type="int" >        4        3        7        8       38 </v>
   <v type="int" >        4        2        3        7       38 </v>
   <v type="int" >        4        2        3       33       38 </v>
   <v type="int" >        4        3        8       38       39 </v>
   <v type="int" >        4        3       34       38       39 </v>
   <v type="int" >        4        3       33       34       38 </v>
   <v type="int" >        4        4        8        9       39 </v>
   <v type="int" >        4        3        4        8       39 </v>
   <v type="int" >        4        3        4       34       39 </v>
   <v type="int" >        4        4        9       39       40 </v>
   <v type="int" >        4        4       35       39       40 </v>
   <v type="int" >        4        4       34       35       39 </v>
   <v type="int" >        4        5        9       10       40 </v>
   <v type="int" >        4        4        5        9       40 </v>
   <v type="int" >        4        4        5       35       40 </v>
   <v type="int" >        4        5       10       40       41 </v>
   <v type="int" >        4        5       36       40       41 </v>
   <v type="int" >        4        5       35       36       40 </v>
   <v type="int" >        4        6       10       11       41 </v>
   <v type="int" >        4        5        6       10       41 </v>
   <v type="int" >        4        5        6       36       41 </v>
   <v type="int" >        4        6       11       41       42 </v>
   <v type="int" >        4        6       37       41       42 </v>
   <v type="int" >        4        6       36       37       41 </v>
   <v type="int" >        4        5       11       12       42 </v>
   <v type="int" >        4        5        6       11       42 </v>
   <v type="int" >        4        5        6       37       42 </v>
   <v type="int" >        4        5       12       42       43 </v>
   <v type="int" >        4        5       36       42       43 </v>
   <v type="int" >        4        5       36       37       42 </v>
   <v type="int" >        4        4       12       13       43 </v>
   <v type="int" >        4        4        5       12       43 </v>
   <v type="int" >        4        4        5       36       43 </v>
   <v type="int" >        4        4       13       43       44 </v>
   <v type="int" >        4        4       35       43       44 </v>
   <v type="int" >        4        4       35       36       43 </v>
   <v type="int" >        4        3       13       14       44 </v>
   <v type="int" >        4        3        4       13       44 </v>
   <v type="int" >        4        3        4       35       44 </v>
   <v type="int" >        4        3       14       44       45 </v>
   <v type="int" >        4        3       34       44       45 </v>
   <v type="int" >        4        3       34       35       44 </v>
   <v type="int" >        4        2       14       15       45 </v>
   <v type="int" >        4        2        3       14       45 </v>
   <v type="int" >        4        2        3       34       45 </v>
   <v type="int" >        4        2       15       45       46 </v>
   <v type="int" >        4        2       33       45       46 </v>
   <v type="int" >        4        2       33       34       45 </v>
   <v type="int" >        4        1        2       15       46 </v>
   <v type="int" >        4        1        2       33       46 </v>
   <v type="int" >        4        1       32       33       46 </v>
   <v type="int" >        4        3        7        8       34 </v>
   <v type="int" >        4        2        3        7       34 </v>
   <v type="int" >        4        2        7       33       34 </v>
   <v type="int" >        4        7        8       34       39 </v>
   <v type="int" >        4        7       34       38       39 </v>
   <v type="int" >        4        7       33       34       38 </v>
   <v type="int" >        4        8        8       16       39 </v>
   <v type="int" >        4        7        8        8       39 </v>
   <v type="int" >        4        7        8       38       39 </v>
   <v type="int" >        4        8       16       39       47 </v>
   <v type="int" >        4        8       39       39       47 </v>
   <v type="int" >        4        8       38       39       39 </v>
   <v type="int" >        4        9       16       17       47 </v>
   <v type="int" >        4        8        9       16       47 </v>
   <v type="int" >        4        8        9       39       47 </v>
   <v type="int" >        4        9       17       47       48 </v>
   <v type="int" >        4        9       40       47       48 </v>
   <v type="int" >        4        9       39       40       47 </v>
   <v type="int" >        4       10       17       18       48 </v>
   <v type="int" >        4        9       10       17       48 </v>
   <v type="int" >        4        9       10       40       48 </v>
   <v type="int" >        4       10       18       48       49 </v>
   <v type="int" >        4       10       41       48       49 </v>
   <v type="int" >        4       10       40       41       48 </v>
   <v type="int" >        4       11       18       19       49 </v>
   <v type="int" >        4       10       11       18       49 </v>
   <v type="int" >        4       10       11       41       49 </v>
   <v type="int" >        4       11       19       49       50 </v>
   <v type="int" >        4       11       42       49       50 </v>
   <v type="int" >        4       11       41       42       49 </v>
   <v type="int" >        4       12       19       20       50 </v>
   <v type="int" >        4       11       12       19       50 </v>
   <v type="int" >        4       11       12       42       50 </v>
   <v type="int" >        4       12       20       50       51 </v>
   <v type="int" >        4       12       43       50       51 </v>
   <v type="int" >        4       12       42       43       50 </v>
   <v type="int" >        4       13       20       21       51 </v>
   <v type="int" >        4       12       13       20       51 </v>
   <v type="int" >        4       12       13       43       51 </v>
   <v type="int" >        4       13       21       51       52 </v>
   <v type="int" >        4       13       44       51       52 </v>
   <v type="int" >        4       13       43       44       51 </v>
   <v type="int" >        4       14       21       22       52 </v>
   <v type="int" >        4       13       14       21       52 </v>
   <v type="int" >        4       13       14       44       52 </v>
   <v type="int" >        4       14       22       52       53 </v>
   <v type="int" >        4       14       45       52       53 </v>
   <v type="int" >        4       14       44       45       52 </v>
   <v type="int" >        4       14       15       22       53 </v>
   <v type="int" >        4       14       15       45       53 </v>
   <v type="int" >        4       15       45       46       53 </v>
   <v type="int" >        4        4        8        9       35 </v>
   <v type="int" >        4        3        4        8       35 </v>
   <v type="int" >        4        3        8       34       35 </v>
   <v type="int" >        4        8        9       35       40 </v>
   <v type="int" >        4        8       35       39       40 </v>
   <v type="int" >        4        8       34       35       39 </v>
   <v type="int" >        4        9       16       17       40 </v>
   <v type="int" >        4        8        9       16       40 </v>
   <v type="int" >        4        8       16       39       40 </v>
   <v type="int" >        4       16       17       40       48 </v>
   <v type="int" >        4       16       40       47       48 </v>
   <v type="int" >        4       16       39       40       47 </v>
   <v type="int" >        4       17       17       23       48 </v>
   <v type="int" >        4       16       17       17       48 </v>
   <v type="int" >        4       16       17       47       48 </v>
   <v type="int" >        4       17       23       48       54 </v>
   <v type="int" >        4       17       48       48       54 </v>
   <v type="int" >        4       17       47       48       48 </v>
   <v type="int" >        4       18       23       24       54 </v>
   <v type="int" >        4       17       18       23       54 </v>
   <v type="int" >        4       17       18       48       54 </v>
   <v type="int" >        4       18       24       54       55 </v>
   <v type="int" >        4       18       49       54       55 </v>
   <v type="int" >        4       18       48       49       54 </v>
   <v type="int" >        4       19       24       25       55 </v>
   <v type="int" >        4       18       19       24       55 </v>
   <v type="int" >        4       18       19       49       55 </v>
   <v type="int" >        4       19       25       55       56 </v>
   <v type="int" >        4       19       50       55       56 </v>
   <v type="int" >        4       19       49       50       55 </v>
   <v type="int" >        4       20       25       26       56 </v>
   <v type="int" >        4       19       20       25       56 </v>
   <v type="int" >        4       19       20       50       56 </v>
   <v type="int" >        4       20       26       56       57 </v>
   <v type="int" >        4       20       51       56       57 </v>
   <v type="int" >        4       20       50       51       56 </v>
   <v type="int" >        4       21       26       27       57 </v>
   <v type="int" >        4       20       21       26       57 </v>
   <v type="int" >        4       20       21       51       57 </v>
   <v type="int" >        4       21       27       57       58 </v>
   <v type="int" >        4       21       52       57       58 </v>
   <v type="int" >        4       21       51       52       57 </v>
   <v type="int" >        4       21       22       27       58 </v>
   <v type="int" >        4       21       22       52       58 </v>
   <v type="int" >        4       22       52       53       58 </v>
   <v type="int" >        4        5        9       10       36 </v>
   <v type="int" >        4        4        5        9       36 </v>
   <v type="int" >        4        4        9       35       36 </v>
   <v type="int" >        4        9       10       36       41 </v>
   <v type="int" >        4        9       36       40       41 </v>
   <v type="int" >        4        9       35       36       40 </v>
   <v type="int" >        4       10       17       18       41 </v>
   <v type="int" >        4        9       10       17       41 </v>
   <v type="int" >        4        9       17       40       41 </v>
   <v type="int" >        4       17       18       41       49 </v>
   <v type="int" >        4       17       41       48       49 </v>
   <v type="int" >        4       17       40       41       48 </v>
   <v type="int" >        4       18       23       24       49 </v>
   <v type="int" >        4       17       18       23       49 </v>
   <v type="int" >        4       17       23       48       49 </v>
   <v type="int" >        4       23       24       49       55 </v>
   <v type="int" >        4       23       49       54       55 </v>
   <v type="int" >        4       23       48       49       54 </v>
   <v type="int" >        4       24       24       28       55 </v>
   <v type="int" >        4       23       24       24       55 </v>
   <v type="int" >        4       23       24       54       55 </v>
   <v type="int" >        4       24       28       55       59 </v>
   <v type="int" >        4       24       55       55       59 </v>
   <v type="int" >        4       24       54       55       55 </v>
   <v type="int" >        4       25       28       29       59 </v>
   <v type="int" >        4       24       25       28       59 </v>
   <v type="int" >        4       24       25       55       59 </v>
   <v type="int" >        4       25       29       59       60 </v>
   <v type="int" >        4       25       56       59       60 </v>
   <v type="int" >        4       25       55       56       59 </v>
   <v type="int" >        4       26       29       30       60 </v>
   <v type="int" >        4       25       26       29       60 </v>
   <v type="int" >        4       25       26       56       60 </v>
   <v type="int" >        4       26       30       60       61 </v>
   <v type="int" >        4       26       57       60       61 </v>
   <v type="int" >        4       26       56       57       60 </v>
   <v type="int" >        4       26       27       30       61 </v>
   <v type="int" >        4       26       27       57       61 </v>
   <v type="int" >        4       27       57       58       61 </v>
   <v type="int" >        4        6       10       11       37 </v>
   <v type="int" >        4        5        6       10       37 </v>
   <v type="int" >        4        5       10       36       37 </v>
   <v type="int" >        4       10       11       37       42 </v>
   <v type="int" >        4       10       37       41       42 </v>
   <v type="int" >        4       10       36       37       41 </v>
   <v type="int" >        4       11       18       19       42 </v>
   <v type="int" >        4       10       11       18       42 </v>
   <v type="int" >        4       10       18       41       42 </v>
   <v type="int" >        4       18       19       42       50 </v>
   <v type="int" >        4       18       42       49       50 </v>
   <v type="int" >        4       18       41       42       49 </v>
   <v type="int" >        4       19       24       25       50 </v>
   <v type="int" >        4       18       19       24       50 </v>
   <v type="int" >        4       18       24       49       50 </v>
   <v type="int" >        4       24       25       50       56 </v>
   <v type="int" >        4       24       50       55       56 </v>
   <v type="int" >        4       24       49       50       55 </v>
   <v type="int" >        4       25       28       29       56 </v>
   <v type="int" >        4       24       25       28       56 </v>
   <v type="int" >        4       24       28       55       56 </v>
   <v type="int" >        4       28       29       56       60 </v>
   <v type="int" >        4       28       56       59       60 </v>
   <v type="int" >        4       28       55       56       59 </v>
   <v type="int" >        4       29       29       31       60 </v>
   <v type="int" >        4       28       29       29       60 </v>
   <v type="int" >        4       28       29       59       60 </v>
   <v type="int" >        4       29       31       60       62 </v>
   <v type="int" >        4       29       60       60       62 </v>
   <v type="int" >        4       29       59       60       60 </v>
   <v type="int" >        4       29       30       31       62 </v>
   <v type="int" >        4       29       30       60       62 </v>
   <v type="int" >        4       30       60       61       62 </v>
   <v type="int" >        4        5       11       12       36 </v>
   <v type="int" >        4        5        6       11       36 </v>
   <v type="int" >        4        6       11       36       37 </v>
   <v type="int" >        4       11       12       36       43 </v>
   <v type="int" >        4       11       36       42       43 </v>
   <v type="int" >        4       11       36       37       42 </v>
   <v type="int" >        4       12       19       20       43 </v>
   <v type="int" >        4       11       12       19       43 </v>
   <v type="int" >        4       11       19       42       43 </v>
   <v type="int" >        4       19       20       43       51 </v>
   <v type="int" >        4       19       43       50       51 </v>
   <v type="int" >        4       19       42       43       50 </v>
   <v type="int" >        4       20       25       26       51 </v>
   <v type="int" >        4       19       20       25       51 </v>
   <v type="int" >        4       19       25       50       51 </v>
   <v type="int" >        4       25       26       51       57 </v>
   <v type="int" >        4       25       51       56       57 </v>
   <v type="int" >        4       25       50       51       56 </v>
   <v type="int" >        4       26       29       30       57 </v>
   <v type="int" >        4       25       26       29       57 </v>
   <v type="int" >        4       25       29       56       57 </v>
   <v type="int" >        4       29       30       57       61 </v>
   <v type="int" >        4       29       57       60       61 </v>
   <v type="int" >        4       29       56       57       60 </v>
   <v type="int" >        4       29       30       31       61 </v>
   <v type="int" >        4       29       31       60       61 </v>
   <v type="int" >        4       31       60       61       62 </v>
   <v type="int" >        4        4       12       13       35 </v>
   <v type="int" >        4        4        5       12       35 </v>
   <v type="int" >        4        5       12       35       36 </v>
   <v type="int" >        4       12       13       35       44 </v>
   <v type="int" >        4       12       35       43       44 </v>
   <v type="int" >        4       12       35       36       43 </v>
   <v type="int" >        4       13       20       21       44 </v>
   <v type="int" >        4       12       13       20       44 </v>
   <v type="int" >        4       12       20       43       44 </v>
   <v type="int" >        4       20       21       44       52 </v>
   <v type="int" >        4       20       44       51       52 </v>
   <v type="int" >        4       20       43       44       51 </v>
   <v type="int" >        4       21       26       27       52 </v>
   <v type="int" >        4       20       21       26       52 </v>
   <v type="int" >        4       20       26       51       52 </v>
   <v type="int" >        4       26       27       52       58 </v>
   <v type="int" >        4       26       52       57       58 </v>
   <v type="int" >        4       26       51       52       57 </v>
   <v type="int" >        4       26       27       30       58 </v>
   <v type="int" >        4       26       30       57       58 </v>
   <v type="int" >        4       30       57       58       61 </v>
   <v type="int" >        4        3       13       14       34 </v>
   <v type="int" >        4        3        4       13       34 </v>
   <v type="int" >        4        4       13       34       35 </v>
   <v type="int" >        4       13       14       34       45 </v>
   <v type="int" >        4       13       34       44       45 </v>
   <v type="int" >        4       13       34       35       44 </v>
   <v type="int" >        4       14       21       22       45 </v>
   <v type="int" >        4       13       14       21       45 </v>
   <v type="int" >        4       13       21       44       45 </v>
   <v type="int" >        4       21       22       45       53 </v>
   <v type="int" >        4       21       45       52       53 </v>
   <v type="int" >        4       21       44       45       52 </v>
   <v type="int" >        4       21       22       27       53 </v>
   <v type="int" >        4       21       27       52       53 </v>
   <v type="int" >        4       27       52       53       58 </v>
   <v type="int" >        4        2       14       15       33 </v>
   <v type="int" >        4        2        3       14       33 </v>
   <v type="int" >        4        3       14       33       34 </v>
   <v type="int" >        4       14       15       33       46 </v>
   <v type="int" >        4       14       33       45       46 </v>
   <v type="int" >        4       14       33       34       45 </v>
   <v type="int" >        4       14       15       22       46 </v>
   <v type="int" >        4       14       22       45       46 </v>
   <v type="int" >        4       22       45       46       53 </v>
   <v type="int" >        4        1        2       15       32 </v>
   <v type="int" >        4        2       15       32       33 </v>
   <v type="int" >        4       15       32       33       46 </v>
   <v type="int" >        4       33       33       38       64 </v>
   <v type="int" >        4       32       33       33       64 </v>
   <v type="int" >        4       32       33       63       64 </v>
   <v type="int" >        4       33       38       64       69 </v>
   <v type="int" >        4       33       64       64       69 </v>
   <v type="int" >        4       33       63       64       64 </v>
   <v type="int" >        4       34       38       39       69 </v>
   <v type="int" >        4       33       34       38       69 </v>
   <v type="int" >        4       33       34       64       69 </v>
   <v type="int" >        4       34       39       69       70 </v>
   <v type="int" >        4       34       65       69       70 </v>
   <v type="int" >        4       34       64       65       69 </v>
   <v type="int" >        4       35       39       40       70 </v>
   <v type="int" >        4       34       35       39       70 </v>
   <v type="int" >        4       34       35       65       70 </v>
   <v type="int" >        4       35       40       70       71 </v>
   <v type="int" >        4       35       66       70       71 </v>
   <v type="int" >        4       35       65       66       70 </v>
   <v type="int" >        4       36       40       41       71 </v>
   <v type="int" >        4       35       36       40       71 </v>
   <v type="int" >        4       35       36       66       71 </v>
   <v type="int" >        4       36       41       71       72 </v>
   <v type="int" >        4       36       67       71       72 </v>
   <v type="int" >        4       36       66       67       71 </v>
   <v type="int" >        4       37       41       42       72 </v>
   <v type="int" >        4       36       37       41       72 </v>
   <v type="int" >        4       36       37       67       72 </v>
   <v type="int" >        4       37       42       72       73 </v>
   <v type="int" >        4       37       68       72       73 </v>
   <v type="int" >        4       37       67       68       72 </v>
   <v type="int" >        4       36       42       43       73 </v>
   <v type="int" >        4       36       37       42       73 </v>
   <v type="int" >        4       36       37       68       73 </v>
   <v type="int" >        4       36       43       73       74 </v>
   <v type="int" >        4       36       67       73       74 </v>
   <v type="int" >        4       36       67       68       73 </v>
   <v type="int" >        4       35       43       44       74 </v>
   <v type="int" >        4       35       36       43       74 </v>
   <v type="int" >        4       35       36       67       74 </v>
   <v type="int" >        4       35       44       74       75 </v>
   <v type="int" >        4       35       66       74       75 </v>
   <v type="int" >        4       35       66       67       74 </v>
   <v type="int" >        4       34       44       45       75 </v>
   <v type="int" >        4       34       35       44       75 </v>
   <v type="int" >        4       34       35       66       75 </v>
   <v type="int" >        4       34       45       75       76 </v>
   <v type="int" >        4       34       65       75       76 </v>
   <v type="int" >        4       34       65       66       75 </v>
   <v type="int" >        4       33       45       46       76 </v>
   <v type="int" >        4       33       34       45       76 </v>
   <v type="int" >        4       33       34       65       76 </v>
   <v type="int" >        4       33       46       76       77 </v>
   <v type="int" >        4       33       64       76       77 </v>
   <v type="int" >        4       33       64       65       76 </v>
   <v type="int" >        4       32       33       46       77 </v>
   <v type="int" >        4       32       33       64       77 </v>
   <v type="int" >        4       32       63       64       77 </v>
   <v type="int" >        4       34       38       39       65 </v>
   <v type="int" >        4       33       34       38       65 </v>
   <v type="int" >        4       33       38       64       65 </v>
   <v type="int" >        4       38       39       65       70 </v>
   <v type="int" >        4       38       65       69       70 </v>
   <v type="int" >        4       38       64       65       69 </v>
   <v type="int" >        4       39       39       47       70 </v>
   <v type="int" >        4       38       39       39       70 </v>
   <v type="int" >        4       38       39       69       70 </v>
   <v type="int" >        4       39       47       70       78 </v>
   <v type="int" >        4       39       70       70       78 </v>
   <v type="int" >        4       39       69       70       70 </v>
   <v type="int" >        4       40       47       48       78 </v>
   <v type="int" >        4       39       40       47       78 </v>
   <v type="int" >        4       39       40       70       78 </v>
   <v type="int" >        4       40       48       78       79 </v>
   <v type="int" >        4       40       71       78       79 </v>
   <v type="int" >        4       40       70       71       78 </v>
   <v type="int" >        4       41       48       49       79 </v>
   <v type="int" >        4       40       41       48       79 </v>
   <v type="int" >        4       40       41       71       79 </v>
   <v type="int" >        4       41       49       79       80 </v>
   <v type="int" >        4       41       72       79       80 </v>
   <v type="int" >        4       41       71       72       79 </v>
   <v type="int" >        4       42       49       50       80 </v>
   <v type="int" >        4       41       42       49       80 </v>
   <v type="int" >        4       41       42       72       80 </v>
   <v type="int" >        4       42       50       80       81 </v>
   <v type="int" >        4       42       73       80       81 </v>
   <v type="int" >        4       42       72       73       80 </v>
   <v type="int" >        4       43       50       51       81 </v>
   <v type="int" >        4       42       43       50       81 </v>
   <v type="int" >        4       42       43       73       81 </v>
   <v type="int" >        4       43       51       81       82 </v>
   <v type="int" >        4       43       74       81       82 </v>
   <v type="int" >        4       43       73       74       81 </v>
   <v type="int" >        4       44       51       52       82 </v>
   <v type="int" >        4       43       44       51       82 </v>
   <v type="int" >        4       43       44       74       82 </v>
   <v type="int" >        4       44       52       82       83 </v>
   <v type="int" >        4       44       75       82       83 </v>
   <v type="int" >        4       44       74       75       82 </v>
   <v type="int" >        4       45       52       53       83 </v>
   <v type="int" >        4       44       45       52       83 </v>
   <v type="int" >        4       44       45       75       83 </v>
   <v type="int" >        4       45       53       83       84 </v>
   <v type="int" >        4       45       76       83       84 </v>
   <v type="int" >        4       45       75       76       83 </v>
   <v type="int" >        4       45       46       53       84 </v>
   <v type="int" >        4       45       46       76       84 </v>
   <v type="int" >        4       46       76       77       84 </v>
   <v type="int" >        4       35       39       40       66 </v>
   <v type="int" >        4       34       35       39       66 </v>
   <v type="int" >        4       34       39       65       66 </v>
   <v type="int" >        4       39       40       66       71 </v>
   <v type="int" >        4       39       66       70       71 </v>
   <v type="int" >        4       39       65       66       70 </v>
   <v type="int" >        4       40       47       48       71 </v>
   <v type="int" >        4       39       40       47       71 </v>
   <v type="int" >        4       39       47       70       71 </v>
   <v type="int" >        4       47       48       71       79 </v>
   <v type="int" >        4       47       71       78       79 </v>
   <v type="int" >        4       47       70       71       78 </v>
   <v type="int" >        4       48       48       54       79 </v>
   <v type="int" >        4       47       48       48       79 </v>
   <v type="int" >        4       47       48       78       79 </v>
   <v type="int" >        4       48       54       79       85 </v>
   <v type="int" >        4       48       79       79       85 </v>
   <v type="int" >        4       48       78       79       79 </v>
   <v type="int" >        4       49       54       55       85 </v>
   <v type="int" >        4       48       49       54       85 </v>
   <v type="int" >        4       48       49       79       85 </v>
   <v type="int" >        4       49       55       85       86 </v>
   <v type="int" >        4       49       80       85       86 </v>
   <v type="int" >        4       49       79       80       85 </v>
   <v type="int" >        4       50       55       56       86 </v>
   <v type="int" >        4       49       50       55       86 </v>
   <v type="int" >        4       49       50       80       86 </v>
   <v type="int" >        4       50       56       86       87 </v>
   <v type="int" >        4       50       81       86       87 </v>
   <v type="int" >        4       50       80       81       86 </v>
   <v type="int" >        4       51       56       57       87 </v>
   <v type="int" >        4       50       51       56       87 </v>
   <v type="int" >        4       50       51       81       87 </v>
   <v type="int" >        4       51       57       87       88 </v>
   <v type="int" >        4       51       82       87       88 </v>
   <v type="int" >        4       51       81       82       87 </v>
   <v type="int" >        4       52       57       58       88 </v>
   <v type="int" >        4       51       52       57       88 </v>
   <v type="int" >        4       51       52       82       88 </v>
   <v type="int" >        4       52       58       88       89 </v>
   <v type="int" >        4       52       83       88       89 </v>
   <v type="int" >        4       52       82       83       88 </v>
   <v type="int" >        4       52       53       58       89 </v>
   <v type="int" >        4       52       53       83       89 </v>
   <v type="int" >        4       53       83       84       89 </v>
   <v type="int" >        4       36       40       41       67 </v>
   <v type="int" >        4       35       36       40       67 </v>
   <v type="int" >        4       35       40       66       67 </v>
   <v type="int" >        4       40       41       67       72 </v>
   <v type="int" >        4       40       67       71       72 </v>
   <v type="int" >        4       40       66       67       71 </v>
   <v type="int" >        4       41       48       49       72 </v>
   <v type="int" >        4       40       41       48       72 </v>
   <v type="int" >        4       40       48       71       72 </v>
   <v type="int" >        4       48       49       72       80 </v>
   <v type="int" >        4       48       72       79       80 </v>
   <v type="int" >        4       48       71       72       79 </v>
   <v type="int" >        4       49       54       55       80 </v>
   <v type="int" >        4       48       49       54       80 </v>
   <v type="int" >        4       48       54       79       80 </v>
   <v type="int" >        4       54       55       80       86 </v>
   <v type="int" >        4       54       80       85       86 </v>
   <v type="int" >        4       54       79       80       85 </v>
   <v type="int" >        4       55       55       59       86 </v>
   <v type="int" >        4       54       55       55       86 </v>
   <v type="int" >        4       54       55       85       86 </v>
   <v type="int" >        4       55       59       86       90 </v>
   <v type="int" >        4       55       86       86       90 </v>
   <v type="int" >        4       55       85       86       86 </v>
   <v type="int" >        4       56       59       60       90 </v>
   <v type="int" >        4       55       56       59       90 </v>
   <v type="int" >        4       55       56       86       90 </v>
   <v type="int" >        4       56       60       90       91 </v>
   <v type="int" >        4       56       87       90       91 </v>
   <v type="int" >        4       56       86       87       90 </v>
   <v type="int" >        4       57       60       61       91 </v>
   <v type="int" >        4       56       57       60       91 </v>
   <v type="int" >        4       56       57       87       91 </v>
   <v type="int" >        4       57       61       91       92 </v>
   <v type="int" >        4       57       88       91       92 </v>
   <v type="int" >        4       57       87       88       91 </v>
   <v type="int" >        4       57       58       61       92 </v>
   <v type="int" >        4       57       58       88       92 </v>
   <v type="int" >        4       58       88       89       92 </v>
   <v type="int" >        4       37       41       42       68 </v>
   <v type="int" >        4       36       37       41       68 </v>
   <v type="int" >        4       36       41       67       68 </v>
   <v type="int" >        4       41       42       68       73 </v>
   <v type="int" >        4       41       68       72       73 </v>
   <v type="int" >        4       41       67       68       72 </v>
   <v type="int" >        4       42       49       50       73 </v>
   <v type="int" >        4       41       42       49       73 </v>
   <v type="int" >        4       41       49       72       73 </v>
   <v type="int" >        4       49       50       73       81 </v>
   <v type="int" >        4       49       73       80       81 </v>
   <v type="int" >        4       49       72       73       80 </v>
   <v type="int" >        4       50       55       56       81 </v>
   <v type="int" >        4       49       50       55       81 </v>
   <v type="int" >        4       49       55       80       81 </v>
   <v type="int" >        4       55       56       81       87 </v>
   <v type="int" >        4       55       81       86       87 </v>
   <v type="int" >        4       55       80       81       86 </v>
   <v type="int" >        4       56       59       60       87 </v>
   <v type="int" >        4       55       56       59       87 </v>
   <v type="int" >        4       55       59       86       87 </v>
   <v type="int" >        4       59       60       87       91 </v>
   <v type="int" >        4       59       87       90       91 </v>
   <v type="int" >        4       59       86       87       90 </v>
   <v type="int" >        4       60       60       62       91 </v>
   <v type="int" >        4       59       60       60       91 </v>
   <v type="int" >        4       59       60       90       91 </v>
   <v type="int" >        4       60       62       91       93 </v>
   <v type="int" >        4       60       91       91       93 </v>
   <v type="int" >        4       60       90       91       91 </v>
   <v type="int" >        4       60       61       62       93 </v>
   <v type="int" >        4       60       61       91       93 </v>
   <v type="int" >        4       61       91       92       93 </v>
   <v type="int" >        4       36       42       43       67 </v>
   <v type="int" >        4       36       37       42       67 </v>
   <v type="int" >        4       37       42       67       68 </v>
   <v type="int" >        4       42       43       67       74 </v>
   <v type="int" >        4       42       67       73       74 </v>
   <v type="int" >        4       42       67       68       73 </v>
   <v type="int" >        4       43       50       51       74 </v>
   <v type="int" >        4       42       43       50       74 </v>
   <v type="int" >        4       42       50       73       74 </v>
   <v type="int" >        4       50       51       74       82 </v>
   <v type="int" >        4       50       74       81       82 </v>
   <v type="int" >        4       50       73       74       81 </v>
   <v type="int" >        4       51       56       57       82 </v>
   <v type="int" >        4       50       51       56       82 </v>
   <v type="int" >        4       50       56       81       82 </v>
   <v type="int" >        4       56       57       82       88 </v>
   <v type="int" >        4       56       82       87       88 </v>
   <v type="int" >        4       56       81       82       87 </v>
   <v type="int" >        4       57       60       61       88 </v>
   <v type="int" >        4       56       57       60       88 </v>
   <v type="int" >        4       56       60       87       88 </v>
   <v type="int" >        4       60       61       88       92 </v>
   <v type="int" >        4       60       88       91       92 </v>
   <v type="int" >        4       60       87       88       91 </v>
   <v type="int" >        4       60       61       62       92 </v>
   <v type="int" >        4       60       62       91       92 </v>
   <v type="int" >        4       62       91       92       93 </v>
   <v type="int" >        4       35       43       44       66 </v>
   <v type="int" >        4       35       36       43       66 </v>
   <v type="int" >        4       36       43       66       67 </v>
   <v type="int" >        4       43       44       66       75 </v>
   <v type="int" >        4       43       66       74       75 </v>
   <v type="int" >        4       43       66       67       74 </v>
   <v type="int" >        4       44       51       52       75 </v>
   <v type="int" >        4       43       44       51       75 </v>
   <v type="int" >        4       43       51       74       75 </v>
   <v type="int" >        4       51       52       75       83 </v>
   <v type="int" >        4       51       75       82       83 </v>
   <v type="int" >        4       51       74       75       82 </v>
   <v type="int" >        4       52       57       58       83 </v>
   <v type="int" >        4       51       52       57       83 </v>
   <v type="int" >        4       51       57       82       83 </v>
   <v type="int" >        4       57       58       83       89 </v>
   <v type="int" >        4       57       83       88       89 </v>
   <v type="int" >        4       57       82       83       88 </v>
   <v type="int" >        4       57       58       61       89 </v>
   <v type="int" >        4       57       61       88       89 </v>
   <v type="int" >        4       61       88       89       92 </v>
   <v type="int" >        4       34       44       45       65 </v>
   <v type="int" >        4       34       35       44       65 </v>
   <v type="int" >        4       35       44       65       66 </v>
   <v type="int" >        4       44       45       65       76 </v>
   <v type="int" >        4       44       65       75       76 </v>
   <v type="int" >        4       44       65       66       75 </v>
   <v type="int" >        4       45       52       53       76 </v>
   <v type="int" >        4       44       45       52       76 </v>
   <v type="int" >        4       44       52       75       76 </v>
   <v type="int" >        4       52       53       76       84 </v>
   <v type="int" >        4       52       76       83       84 </v>
   <v type="int" >        4       52       75       76       83 </v>
   <v type="int" >        4       52       53       58       84 </v>
   <v type="int" >        4       52       58       83       84 </v>
   <v type="int" >        4       58       83       84       89 </v>
   <v type="int" >        4       33       45       46       64 </v>
   <v type="int" >        4       33       34       45       64 </v>
   <v type="int" >        4       34       45       64       65 </v>
   <v type="int" >        4       45       46       64       77 </v>
   <v type="int" >        4       45       64       76       77 </v>
   <v type="int" >        4       45       64       65       76 </v>
   <v type="int" >        4       45       46       53       77 </v>
   <v type="int" >        4       45       53       76       77 </v>
   <v type="int" >        4       53       76       77       84 </v>
   <v type="int" >        4       32       33       46       63 </v>
   <v type="int" >        4       33       46       63       64 </v>
   <v type="int" >        4       46       63       64       77 </v>
   <v type="int" >        4       64       64       69       95 </v>
   <v type="int" >        4       63       64       64       95 </v>
   <v type="int" >        4       63       64       94       95 </v>
   <v type="int" >        4       64       69       95      100 </v>
   <v type="int" >        4       64       95       95      100 </v>
   <v type="int" >        4       64       94       95       95 </v>
   <v type="int" >        4       65       69       70      100 </v>
   <v type="int" >        4       64       65       69      100 </v>
   <v type="int" >        4       64       65       95      100 </v>
   <v type="int" >        4       65       70      100      101 </v>
   <v type="int" >        4       65       96      100      101 </v>
   <v type="int" >        4       65       95       96      100 </v>
   <v type="int" >        4       66       70       71      101 </v>
   <v type="int" >        4       65       66       70      101 </v>
   <v type="int" >        4       65       66       96      101 </v>
   <v type="int" >        4       66       71      101      102 </v>
   <v type="int" >        4       66       97      101      102 </v>
   <v type="int" >        4       66       96       97      101 </v>
   <v type="int" >        4       67       71       72      102 </v>
   <v type="int" >        4       66       67       71      102 </v>
   <v type="int" >        4       66       67       97      102 </v>
   <v type="int" >        4       67       72      102      103 </v>
   <v type="int" >        4       67       98      102      103 </v>
   <v type="int" >        4       67       97       98      102 </v>
   <v type="int" >        4       68       72       73      103 </v>
   <v type="int" >        4       67       68       72      103 </v>
   <v type="int" >        4       67       68       98      103 </v>
   <v type="int" >        4       68       73      103      104 </v>
   <v type="int" >        4       68       99      103      104 </v>
   <v type="int" >        4       68       98       99      103 </v>
   <v type="int" >        4       67       73       74      104 </v>
   <v type="int" >        4       67       68       73      104 </v>
   <v type="int" >        4       67       68       99      104 </v>
   <v type="int" >        4       67       74      104      105 </v>
   <v type="int" >        4       67       98      104      105 </v>
   <v type="int" >        4       67       98       99      104 </v>
   <v type="int" >        4       66       74       75      105 </v>
   <v type="int" >        4       66       67       74      105 </v>
   <v type="int" >        4       66       67       98      105 </v>
   <v type="int" >        4       66       75      105      106 </v>
   <v type="int" >        4       66       97      105      106 </v>
   <v type="int" >        4       66       97       98      105 </v>
   <v type="int" >        4       65       75       76      106 </v>
   <v type="int" >        4       65       66       75      106 </v>
   <v type="int" >        4       65       66       97      106 </v>
   <v type="int" >        4       65       76      106      107 </v>
   <v type="int" >        4       65       96      106      107 </v>
   <v type="int" >        4       65       96       97      106 </v>
   <v type="int" >        4       64       76       77      107 </v>
   <v type="int" >        4       64       65       76      107 </v>
   <v type="int" >        4       64       65       96      107 </v>
   <v type="int" >        4       64       77      107      108 </v>
   <v type="int" >        4       64       95      107      108 </v>
   <v type="int" >        4       64       95       96      107 </v>
   <v type="int" >        4       63       64       77      108 </v>
   <v type="int" >        4       63       64       95      108 </v>
   <v type="int" >        4       63       94       95      108 </v>
   <v type="int" >        4       65       69       70       96 </v>
   <v type="int" >        4       64       65       69       96 </v>
   <v type="int" >        4       64       69       95       96 </v>
   <v type="int" >        4       69       70       96      101 </v>
   <v type="int" >        4       69       96      100      101 </v>
   <v type="int" >        4       69       95       96      100 </v>
   <v type="int" >        4       70       70       78      101 </v>
   <v type="int" >        4       69       70       70      101 </v>
   <v type="int" >        4       69       70      100      101 </v>
   <v type="int" >        4       70       78      101      109 </v>
   <v type="int" >        4       70      101      101      109 </v>
   <v type="int" >        4       70      100      101      101 </v>
   <v type="int" >        4       71       78       79      109 </v>
   <v type="int" >        4       70       71       78      109 </v>
   <v type="int" >        4       70       71      101      109 </v>
   <v type="int" >        4       71       79      109      110 </v>
   <v type="int" >        4       71      102      109      110 </v>
   <v type="int" >        4       71      101      102      109 </v>
   <v type="int" >        4       72       79       80      110 </v>
   <v type="int" >        4       71       72       79      110 </v>
   <v type="int" >        4       71       72      102      110 </v>
   <v type="int" >        4       72       80      110      111 </v>
   <v type="int" >        4       72      103      110      111 </v>
   <v type="int" >        4       72      102      103      110 </v>
   <v type="int" >        4       73       80       81      111 </v>
   <v type="int" >        4       72       73       80      111 </v>
   <v type="int" >        4       72       73      103      111 </v>
   <v type="int" >        4       73       81      111      112 </v>
   <v type="int" >        4       73      104      111      112 </v>
   <v type="int" >        4       73      103      104      111 </v>
   <v type="int" >        4       74       81       82      112 </v>
   <v type="int" >        4       73       74       81      112 </v>
   <v type="int" >        4       73       74      104      112 </v>
   <v type="int" >        4       74       82      112      113 </v>
   <v type="int" >        4       74      105      112      113 </v>
   <v type="int" >        4       74      104      105      112 </v>
   <v type="int" >        4       75       82       83      113 </v>
   <v type="int" >        4       74       75       82      113 </v>
   <v type="int" >        4       74       75      105      113 </v>
   <v type="int" >        4       75       83      113      114 </v>
   <v type="int" >        4       75      106      113      114 </v>
   <v type="int" >        4       75      105      106      113 </v>
   <v type="int" >        4       76       83       84      114 </v>
   <v type="int" >        4       75       76       83      114 </v>
   <v type="int" >        4       75       76      106      114 </v>
   <v type="int" >        4       76       84      114      115 </v>
   <v type="int" >        4       76      107      114      115 </v>
   <v type="int" >        4       76      106      107      114 </v>
   <v type="int" >        4       76       77       84      115 </v>
   <v type="int" >        4       76       77      107      115 </v>
   <v type="int" >        4       77      107      108      115 </v>
   <v type="int" >        4       66       70       71       97 </v>
   <v type="int" >        4       65       66       70       97 </v>
   <v type="int" >        4       65       70       96       97 </v>
   <v type="int" >        4       70       71       97      102 </v>
   <v type="int" >        4       70       97      101      102 </v>
   <v type="int" >        4       70       96       97      101 </v>
   <v type="int" >        4       71       78       79      102 </v>
   <v type="int" >        4       70       71       78      102 </v>
   <v type="int" >        4       70       78      101      102 </v>
   <v type="int" >        4       78       79      102      110 </v>
   <v type="int" >        4       78      102      109      110 </v>
   <v type="int" >        4       78      101      102      109 </v>
   <v type="int" >        4       79       79       85      110 </v>
   <v type="int" >        4       78       79       79      110 </v>
   <v type="int" >        4       78       79      109      110 </v>
   <v type="int" >        4       79       85      110      116 </v>
   <v type="int" >        4       79      110      110      116 </v>
   <v type="int" >        4       79      109      110      110 </v>
   <v type="int" >        4       80       85       86      116 </v>
   <v type="int" >        4       79       80       85      116 </v>
   <v type="int" >        4       79       80      110      116 </v>
   <v type="int" >        4       80       86      116      117 </v>
   <v type="int" >        4       80      111      116      117 </v>
   <v type="int" >        4       80      110      111      116 </v>
   <v type="int" >        4       81       86       87      117 </v>
   <v type="int" >        4       80       81       86      117 </v>
   <v type="int" >        4       80       81      111      117 </v>
   <v type="int" >        4       81       87      117      118 </v>
   <v type="int" >        4       81      112      117      118 </v>
   <v type="int" >        4       81      111      112      117 </v>
   <v type="int" >        4       82       87       88      118 </v>
   <v type="int" >        4       81       82       87      118 </v>
   <v type="int" >        4       81       82      112      118 </v>
   <v type="int" >        4       82       88      118      119 </v>
   <v type="int" >        4       82      113      118      119 </v>
   <v type="int" >        4       82      112      113      118 </v>
   <v type="int" >        4       83       88       89      119 </v>
   <v type="int" >        4       82       83       88      119 </v>
   <v type="int" >        4       82       83      113      119 </v>
   <v type="int" >        4       83       89      119      120 </v>
   <v type="int" >        4       83      114      119      120 </v>
   <v type="int" >        4       83      113      114      119 </v>
   <v type="int" >        4       83       84       89      120 </v>
   <v type="int" >        4       83       84      114      120 </v>
   <v type="int" >        4       84      114      115      120 </v>
   <v type="int" >        4       67       71       72       98 </v>
   <v type="int" >        4       66       67       71       98 </v>
   <v type="int" >        4       66       71       97       98 </v>
   <v type="int" >        4       71       72       98      103 </v>
   <v type="int" >        4       71       98      102      103 </v>
   <v type="int" >        4       71       97       98      102 </v>
   <v type="int" >        4       72       79       80      103 </v>
   <v type="int" >        4       71       72       79      103 </v>
   <v type="int" >        4       71       79      102      103 </v>
   <v type="int" >        4       79       80      103      111 </v>
   <v type="int" >        4       79      103      110      111 </v>
   <v type="int" >        4       79      102      103      110 </v>
   <v type="int" >        4       80       85       86      111 </v>
   <v type="int" >        4       79       80       85      111 </v>
   <v type="int" >        4       79       85      110      111 </v>
   <v type="int" >        4       85       86      111      117 </v>
   <v type="int" >        4       85      111      116      117 </v>
   <v type="int" >        4       85      110      111      116 </v>
   <v type="int" >        4       86       86       90      117 </v>
   <v type="int" >        4       85       86       86      117 </v>
   <v type="int" >        4       85       86      116      117 </v>
   <v type="int" >        4       86       90      117      121 </v>
   <v type="int" >        4       86      117      117      121 </v>
   <v type="int" >        4       86      116      117      117 </v>
   <v type="int" >        4       87       90       91      121 </v>
   <v type="int" >        4       86       87       90      121 </v>
   <v type="int" >        4       86       87      117      121 </v>
   <v type="int" >        4       87       91      121      122 </v>
   <v type="int" >        4       87      118      121      122 </v>
   <v type="int" >        4       87      117      118      121 </v>
   <v type="int" >        4       88       91       92      122 </v>
   <v type="int" >        4       87       88       91      122 </v>
   <v type="int" >        4       87       88      118      122 </v>
   <v type="int" >        4       88       92      122      123 </v>
   <v type="int" >        4       88      119      122      123 </v>
   <v type="int" >        4       88      118      119      122 </v>
   <v type="int" >        4       88       89       92      123 </v>
   <v type="int" >        4       88       89      119      123 </v>
   <v type="int" >        4       89      119      120      123 </v>
   <v type="int" >        4       68       72       73       99 </v>
   <v type="int" >        4       67       68       72       99 </v>
   <v type="int" >        4       67       72       98       99 </v>
   <v type="int" >        4       72       73       99      104 </v>
   <v type="int" >        4       72       99      103      104 </v>
   <v type="int" >        4       72       98       99      103 </v>
   <v type="int" >        4       73       80       81      104 </v>
   <v type="int" >        4       72       73       80      104 </v>
   <v type="int" >        4       72       80      103      104 </v>
   <v type="int" >        4       80       81      104      112 </v>
   <v type="int" >        4       80      104      111      112 </v>
   <v type="int" >        4       80      103      104      111 </v>
   <v type="int" >        4       81       86       87      112 </v>
   <v type="int" >        4       80       81       86      112 </v>
   <v type="int" >        4       80       86      111      112 </v>
   <v type="int" >        4       86       87      112      118 </v>
   <v type="int" >        4       86      112      117      118 </v>
   <v type="int" >        4       86      111      112      117 </v>
   <v type="int" >        4       87       90       91      118 </v>
   <v type="int" >        4       86       87       90      118 </v>
   <v type="int" >        4       86       90      117      118 </v>
   <v type="int" >        4       90       91      118      122 </v>
   <v type="int" >        4       90      118      121      122 </v>
   <v type="int" >        4       90      117      118      121 </v>
   <v type="int" >        4       91       91       93      122 </v>
   <v type="int" >        4       90       91       91      122 </v>
   <v type="int" >        4       90       91      121      122 </v>
   <v type="int" >        4       91       93      122      124 </v>
   <v type="int" >        4       91      122      122      124 </v>
   <v type="int" >        4       91      121      122      122 </v>
   <v type="int" >        4       91       92       93      124 </v>
   <v type="int" >        4       91       92      122      124 </v>
   <v type="int" >        4       92      122      123      124 </v>
   <v type="int" >        4       67       73       74       98 </v>
   <v type="int" >        4       67       68       73       98 </v>
   <v type="int" >        4       68       73       98       99 </v>
   <v type="int" >        4       73       74       98      105 </v>
   <v type="int" >        4       73       98      104      105 </v>
   <v type="int" >        4       73       98       99      104 </v>
   <v type="int" >        4       74       81       82      105 </v>
   <v type="int" >        4       73       74       81      105 </v>
   <v type="int" >        4       73       81      104      105 </v>
   <v type="int" >        4       81       82      105      113 </v>
   <v type="int" >        4       81      105      112      113 </v>
   <v type="int" >        4       81      104      105      112 </v>
   <v type="int" >        4       82       87       88      113 </v>
   <v type="int" >        4       81       82       87      113 </v>
   <v type="int" >        4       81       87      112      113 </v>
   <v type="int" >        4       87       88      113      119 </v>
   <v type="int" >        4       87      113      118      119 </v>
   <v type="int" >        4       87      112      113      118 </v>
   <v type="int" >        4       88       91       92      119 </v>
   <v type="int" >        4       87       88       91      119 </v>
   <v type="int" >        4       87       91      118      119 </v>
[...]
       <r>    7.7681    1.0000 </r>
       <r>    9.2658    0.1506 </r>
       <r>    9.2658   -0.0026 </r>
       <r>    9.5285    0.0000 </r>
       <r>    9.5285    0.0000 </r>
       <r>   10.0862    0.0000 </r>
       <r>   10.0862    0.0000 </r>
       <r>   10.3850    0.0000 </r>
       <r>   10.3850    0.0000 </r>
       <r>   10.4447    0.0000 </r>
       <r>   10.4447    0.0000 </r>
       <r>   10.7345    0.0000 </r>
       <r>   10.7345    0.0000 </r>
       <r>   13.5256    0.0000 </r>
       <r>   13.5256    0.0000 </r>
       <r>   13.5793    0.0000 </r>
       <r>   13.5793    0.0000 </r>
       <r>   20.0997    0.0000 </r>
       <r>   20.0997    0.0000 </r>
       <r>   21.0162    0.0000 </r>
       <r>   21.0162    0.0000 </r>
       <r>   22.5474    0.0000 </r>
       <r>   22.5474    0.0000 </r>
       <r>   23.0515    0.0000 </r>
       <r>   23.0515    0.0000 </r>
       <r>   23.1306    0.0000 </r>
       <r>   23.1306    0.0000 </r>
       <r>   24.7930    0.0000 </r>
       <r>   24.7930    0.0000 </r>
       <r>   25.6661    0.0000 </r>
       <r>   25.6691    0.0000 </r>
       <r>   26.3367    0.0000 </r>
       <r>   27.2176    0.0000 </r>
      </set>
      <set comment="kpoint 217">
       <r>    2.9399    1.0000 </r>
       <r>    2.9399    1.0000 </r>
       <r>    3.5306    1.0000 </r>
       <r>    3.5306    1.0000 </r>
       <r>    3.6297    1.0000 </r>
       <r>    3.6297    1.0000 </r>
       <r>    3.7313    1.0000 </r>
       <r>    3.7313    1.0000 </r>
       <r>    4.6888    1.0000 </r>
       <r>    4.6888    1.0000 </r>
       <r>    4.9506    1.0000 </r>
       <r>    4.9506    1.0000 </r>
       <r>    5.0800    1.0000 </r>
       <r>    5.0800    1.0000 </r>
       <r>    5.1509    1.0000 </r>
       <r>    5.1509    1.0000 </r>
       <r>    5.8585    1.0000 </r>
       <r>    5.8585    1.0000 </r>
       <r>    6.1239    1.0000 </r>
       <r>    6.1239    1.0000 </r>
       <r>    6.4074    1.0000 </r>
       <r>    6.4074    1.0000 </r>
       <r>    6.5387    1.0000 </r>
       <r>    6.5387    1.0000 </r>
       <r>    7.1201    1.0000 </r>
       <r>    7.1201    1.0000 </r>
       <r>    7.3148    1.0000 </r>
       <r>    7.3148    1.0000 </r>
       <r>    7.3399    1.0000 </r>
       <r>    7.3399    1.0000 </r>
       <r>    7.6085    1.0000 </r>
       <r>    7.6085    1.0000 </r>
       <r>    9.2960    0.0641 </r>
       <r>    9.2960   -0.0085 </r>
       <r>    9.3878    0.0000 </r>
       <r>    9.3878    0.0000 </r>
       <r>   10.3159    0.0000 </r>
       <r>   10.3159    0.0000 </r>
       <r>   10.4068    0.0000 </r>
       <r>   10.4068    0.0000 </r>
       <r>   10.4647    0.0000 </r>
       <r>   10.4647    0.0000 </r>
       <r>   10.4978    0.0000 </r>
       <r>   10.4978    0.0000 </r>
       <r>   13.6261    0.0000 </r>
       <r>   13.6261    0.0000 </r>
       <r>   13.6937    0.0000 </r>
       <r>   13.6937    0.0000 </r>
       <r>   20.7260    0.0000 </r>
       <r>   20.7260    0.0000 </r>
       <r>   21.5252    0.0000 </r>
       <r>   21.5252    0.0000 </r>
       <r>   21.8424    0.0000 </r>
       <r>   21.8424    0.0000 </r>
       <r>   22.4352    0.0000 </r>
       <r>   22.4352    0.0000 </r>
       <r>   24.1970    0.0000 </r>
       <r>   24.1970    0.0000 </r>
       <r>   24.4254    0.0000 </r>
       <r>   24.4254    0.0000 </r>
       <r>   25.5670    0.0000 </r>
       <r>   25.5876    0.0000 </r>
       <r>   25.9661    0.0000 </r>
       <r>   27.2015    0.0000 </r>
      </set>
     </set>
    </set>
   </array>
  </eigenvalues>
  <separator name="orbital magnetization" >
   <v name="MAGDIPOLOUT">      0.00000000      0.00000000      0.00000000</v>
  </separator>
  <dos>
   <i name="efermi">      9.11831204 </i>
   <total>
    <array>
     <dimension dim="1">gridpoints</dimension>
     <dimension dim="2">spin</dimension>
     <field>energy</field>
     <field>total</field>
     <field>integrated</field>
     <set>
      <set comment="spin 1">
       <r>    -1.1281     0.0000     0.0000 </r>
       <r>    -1.0224     0.0000     0.0000 </r>
       <r>    -0.9167     0.0000     0.0000 </r>
       <r>    -0.8110     0.0000     0.0000 </r>
       <r>    -0.7054     0.0000     0.0000 </r>
       <r>    -0.5997     0.0000     0.0000 </r>
       <r>    -0.4940     0.0000     0.0000 </r>
       <r>    -0.3884     0.0000     0.0000 </r>
       <r>    -0.2827     0.0000     0.0000 </r>
       <r>    -0.1770     0.0000     0.0000 </r>
       <r>    -0.0713     0.0000     0.0000 </r>
       <r>     0.0343     0.0000     0.0000 </r>
       <r>     0.1400     0.0000     0.0000 </r>
       <r>     0.2457     0.0000     0.0000 </r>
       <r>     0.3514     0.0241     0.0003 </r>
       <r>     0.4570     0.1680     0.0123 </r>
       <r>     0.5627     0.2352     0.0328 </r>
       <r>     0.6684     0.2992     0.0618 </r>
       <r>     0.7741     0.3443     0.0954 </r>
       <r>     0.8797     0.4004     0.1348 </r>
       <r>     0.9854     0.4535     0.1801 </r>
       <r>     1.0911     0.4997     0.2304 </r>
       <r>     1.1967     0.5508     0.2858 </r>
       <r>     1.3024     0.6105     0.3471 </r>
       <r>     1.4081     0.6699     0.4148 </r>
       <r>     1.5138     0.7357     0.4890 </r>
       <r>     1.6194     0.8154     0.5708 </r>
       <r>     1.7251     0.9142     0.6621 </r>
       <r>     1.8308     1.0331     0.7646 </r>
       <r>     1.9365     1.3525     0.8937 </r>
       <r>     2.0421     1.3005     1.0302 </r>
       <r>     2.1478     1.3447     1.1671 </r>
       <r>     2.2535     1.8924     1.3367 </r>
       <r>     2.3592     2.1698     1.5554 </r>
       <r>     2.4648     2.7592     1.8119 </r>
       <r>     2.5705     5.1475     2.2086 </r>
       <r>     2.6762     7.7117     2.9068 </r>
       <r>     2.7818     8.6765     3.7965 </r>
       <r>     2.8875     6.7878     4.5844 </r>
       <r>     2.9932     7.6575     5.3515 </r>
       <r>     3.0989     7.9290     6.1831 </r>
       <r>     3.2045     9.1258     7.0766 </r>
       <r>     3.3102    12.5287     8.1976 </r>
       <r>     3.4159    13.4758     9.5565 </r>
       <r>     3.5216    12.3269    10.8776 </r>
       <r>     3.6272    10.8443    12.0110 </r>
       <r>     3.7329     9.9628    13.1188 </r>
       <r>     3.8386    10.1060    14.2051 </r>
       <r>     3.9443     8.5218    15.2185 </r>
       <r>     4.0499     7.7556    16.0426 </r>
       <r>     4.1556     7.1352    16.8039 </r>
       <r>     4.2613    12.3646    17.8817 </r>
       <r>     4.3669    13.1825    19.3095 </r>
       <r>     4.4726    11.9287    20.5446 </r>
       <r>     4.5783     7.2891    21.5578 </r>
       <r>     4.6840     7.7270    22.3279 </r>
       <r>     4.7896    10.0793    23.2214 </r>
       <r>     4.8953    11.9145    24.4872 </r>
       <r>     5.0010    10.6055    25.6098 </r>
       <r>     5.1067    11.0385    26.8270 </r>
       <r>     5.2123    10.3512    27.9445 </r>
       <r>     5.3180     7.8415    28.8987 </r>
       <r>     5.4237     7.3124    29.6805 </r>
       <r>     5.5294     5.2795    30.3393 </r>
       <r>     5.6350     5.8669    30.9610 </r>
       <r>     5.7407    10.0791    31.8679 </r>
       <r>     5.8464    14.2847    33.0641 </r>
       <r>     5.9520    12.2736    34.5363 </r>
       <r>     6.0577    13.0026    35.9134 </r>
       <r>     6.1634    13.8912    37.3781 </r>
       <r>     6.2691    11.1735    38.5996 </r>
       <r>     6.3747    12.3409    39.8905 </r>
       <r>     6.4804    14.6128    41.2510 </r>
       <r>     6.5861    11.7593    42.6891 </r>
       <r>     6.6918    14.4275    44.0454 </r>
       <r>     6.7974    13.4013    45.4555 </r>
       <r>     6.9031    11.6986    46.6982 </r>
       <r>     7.0088    11.8650    47.9233 </r>
       <r>     7.1145    14.6710    49.2471 </r>
       <r>     7.2201    10.9950    50.5908 </r>
       <r>     7.3258    12.3594    51.7555 </r>
       <r>     7.4315    12.6902    53.0284 </r>
       <r>     7.5371    11.1814    54.2615 </r>
       <r>     7.6428     9.5967    55.3980 </r>
       <r>     7.7485     8.6860    56.3074 </r>
       <r>     7.8542     9.0010    57.2430 </r>
       <r>     7.9598     7.4127    58.0933 </r>
       <r>     8.0655     7.3122    58.8725 </r>
       <r>     8.1712     7.8138    59.6761 </r>
       <r>     8.2769     7.6063    60.5008 </r>
       <r>     8.3825     7.6108    61.2807 </r>
       <r>     8.4882     5.4789    61.9725 </r>
       <r>     8.5939     5.3630    62.6074 </r>
       <r>     8.6996     5.7007    63.2125 </r>
       <r>     8.8052     5.2714    63.7943 </r>
       <r>     8.9109     7.0630    64.4259 </r>
       <r>     9.0166     7.6484    65.2412 </r>
       <r>     9.1222     6.8438    66.0269 </r>
       <r>     9.2279     7.1256    66.7529 </r>
       <r>     9.3336     6.6767    67.5737 </r>
       <r>     9.4393     6.8620    68.2352 </r>
       <r>     9.5449    10.3378    69.1064 </r>
       <r>     9.6506    11.5435    70.2637 </r>
       <r>     9.7563     9.7538    71.4156 </r>
       <r>     9.8620     9.8989    72.4466 </r>
       <r>     9.9676    14.5086    73.6406 </r>
       <r>    10.0733    14.1872    75.1561 </r>
       <r>    10.1790    14.7796    76.6120 </r>
       <r>    10.2847    14.6537    78.3651 </r>
       <r>    10.3903    16.6573    80.0335 </r>
       <r>    10.4960    14.8195    81.8237 </r>
       <r>    10.6017     9.9749    83.1534 </r>
       <r>    10.7073     4.2115    83.9821 </r>
       <r>    10.8130     2.6629    84.2807 </r>
       <r>    10.9187     3.0305    84.5775 </r>
       <r>    11.0244     2.2536    84.8519 </r>
       <r>    11.1300     1.9224    85.0712 </r>
       <r>    11.2357     1.9161    85.2726 </r>
       <r>    11.3414     2.0714    85.4811 </r>
       <r>    11.4471     2.7240    85.7273 </r>
       <r>    11.5527     2.2614    85.9777 </r>
       <r>    11.6584     2.2124    86.2156 </r>
       <r>    11.7641     2.1755    86.4476 </r>
       <r>    11.8698     2.0448    86.6724 </r>
       <r>    11.9754     1.9289    86.8810 </r>
       <r>    12.0811     1.9527    87.0853 </r>
       <r>    12.1868     2.0861    87.2976 </r>
       <r>    12.2924     2.1745    87.5251 </r>
       <r>    12.3981     2.0836    87.7481 </r>
       <r>    12.5038     2.1974    87.9714 </r>
       <r>    12.6095     2.1580    88.2059 </r>
       <r>    12.7151     2.1086    88.4297 </r>
       <r>    12.8208     2.1236    88.6542 </r>
       <r>    12.9265     2.0202    88.8725 </r>
       <r>    13.0322     1.9958    89.0842 </r>
       <r>    13.1378     2.0279    89.2974 </r>
       <r>    13.2435     1.8956    89.5098 </r>
       <r>    13.3492     1.7395    89.7040 </r>
       <r>    13.4549     1.6526    89.8826 </r>
       <r>    13.5605     1.6311    90.0563 </r>
       <r>    13.6662     1.6491    90.2292 </r>
       <r>    13.7719     1.6859    90.4054 </r>
       <r>    13.8775     1.7346    90.5864 </r>
       <r>    13.9832     1.7025    90.7679 </r>
       <r>    14.0889     1.6942    90.9474 </r>
       <r>    14.1946     1.7643    91.1294 </r>
       <r>    14.3002     1.8375    91.3193 </r>
       <r>    14.4059     1.8105    91.5128 </r>
       <r>    14.5116     1.8164    91.7047 </r>
       <r>    14.6173     1.8296    91.8960 </r>
       <r>    14.7229     1.8427    92.0965 </r>
       <r>    14.8286     1.8611    92.2924 </r>
       <r>    14.9343     1.8934    92.4906 </r>
       <r>    15.0400     1.9160    92.6921 </r>
       <r>    15.1456     2.0089    92.9207 </r>
       <r>    15.2513     1.9887    93.1318 </r>
       <r>    15.3570     1.8614    93.3325 </r>
       <r>    15.4626     1.7801    93.5250 </r>
       <r>    15.5683     1.7045    93.7091 </r>
       <r>    15.6740     1.6268    93.8851 </r>
       <r>    15.7797     1.6058    94.0568 </r>
       <r>    15.8853     1.6014    94.2255 </r>
       <r>    15.9910     1.6171    94.3972 </r>
       <r>    16.0967     1.5269    94.5642 </r>
       <r>    16.2024     1.4915    94.7232 </r>
       <r>    16.3080     1.4010    94.8754 </r>
       <r>    16.4137     1.2990    95.0179 </r>
       <r>    16.5194     1.1537    95.1493 </r>
       <r>    16.6251     1.0635    95.2656 </r>
       <r>    16.7307     0.9307    95.3730 </r>
       <r>    16.8364     0.8433    95.4643 </r>
       <r>    16.9421     0.7875    95.5508 </r>
       <r>    17.0477     0.7336    95.6311 </r>
       <r>    17.1534     0.6955    95.7066 </r>
       <r>    17.2591     0.6543    95.7778 </r>
       <r>    17.3648     0.6899    95.8486 </r>
       <r>    17.4704     0.7791    95.9265 </r>
       <r>    17.5761     0.6867    96.0053 </r>
       <r>    17.6818     0.5442    96.0699 </r>
       <r>    17.7875     0.5723    96.1263 </r>
       <r>    17.8931     0.6787    96.1945 </r>
       <r>    17.9988     0.9728    96.2801 </r>
       <r>    18.1045     1.6774    96.4178 </r>
       <r>    18.2102     3.2871    96.7106 </r>
       <r>    18.3158     2.2569    96.9764 </r>
       <r>    18.4215     1.9964    97.2018 </r>
       <r>    18.5272     2.1121    97.4159 </r>
       <r>    18.6328     2.3369    97.6473 </r>
       <r>    18.7385     2.2967    97.8998 </r>
       <r>    18.8442     2.4694    98.1488 </r>
       <r>    18.9499     2.7709    98.4293 </r>
       <r>    19.0555     2.8271    98.7283 </r>
       <r>    19.1612     2.3991    99.0050 </r>
       <r>    19.2669     2.3353    99.2548 </r>
       <r>    19.3726     3.4350    99.5367 </r>
       <r>    19.4782     4.6338    99.9683 </r>
       <r>    19.5839     4.7960   100.4716 </r>
       <r>    19.6896     3.8073   100.9346 </r>
       <r>    19.7953     4.0580   101.3528 </r>
       <r>    19.9009     3.7245   101.7584 </r>
       <r>    20.0066     3.8598   102.1565 </r>
       <r>    20.1123     3.8547   102.5639 </r>
       <r>    20.2179     3.9800   102.9893 </r>
       <r>    20.3236     3.7611   103.3838 </r>
       <r>    20.4293     3.6488   103.7729 </r>
       <r>    20.5350     3.7580   104.1625 </r>
       <r>    20.6406     3.7338   104.5645 </r>
       <r>    20.7463     3.7920   104.9726 </r>
       <r>    20.8520     3.3373   105.3467 </r>
       <r>    20.9577     3.2423   105.6907 </r>
       <r>    21.0633     3.4588   106.0441 </r>
       <r>    21.1690     3.7417   106.4229 </r>
       <r>    21.2747     4.2626   106.8427 </r>
       <r>    21.3804     3.7839   107.2898 </r>
       <r>    21.4860     2.9583   107.6443 </r>
       <r>    21.5917     2.8973   107.9554 </r>
       <r>    21.6974     2.9992   108.2671 </r>
       <r>    21.8030     3.1227   108.5892 </r>
       <r>    21.9087     3.1223   108.9160 </r>
       <r>    22.0144     2.9748   109.2457 </r>
       <r>    22.1201     3.2295   109.5680 </r>
       <r>    22.2257     3.5780   109.9333 </r>
       <r>    22.3314     3.2317   110.2953 </r>
       <r>    22.4371     2.9331   110.6235 </r>
       <r>    22.5428     2.9039   110.9303 </r>
       <r>    22.6484     3.1214   111.2429 </r>
       <r>    22.7541     2.9724   111.5699 </r>
       <r>    22.8598     3.0678   111.8986 </r>
       <r>    22.9655     2.9121   112.2260 </r>
       <r>    23.0711     2.5188   112.5076 </r>
       <r>    23.1768     2.5152   112.7717 </r>
       <r>    23.2825     2.4767   113.0368 </r>
       <r>    23.3881     2.6357   113.3056 </r>
       <r>    23.4938     2.8281   113.5933 </r>
       <r>    23.5995     2.8811   113.8933 </r>
       <r>    23.7052     3.1989   114.2133 </r>
       <r>    23.8108     3.5671   114.5729 </r>
       <r>    23.9165     4.1728   114.9785 </r>
       <r>    24.0222     4.5625   115.4450 </r>
       <r>    24.1279     4.8284   115.9351 </r>
       <r>    24.2335     5.3849   116.4706 </r>
       <r>    24.3392     6.0720   117.0856 </r>
       <r>    24.4449     6.0584   117.7303 </r>
       <r>    24.5506     5.9704   118.3588 </r>
       <r>    24.6562     7.3096   119.0863 </r>
       <r>    24.7619     7.2889   119.8098 </r>
       <r>    24.8676     6.9775   120.5783 </r>
       <r>    24.9732     6.6571   121.3835 </r>
       <r>    25.0789     4.8857   121.9708 </r>
       <r>    25.1846     5.5035   122.5040 </r>
       <r>    25.2903     4.8306   123.0846 </r>
       <r>    25.3959     4.2569   123.5415 </r>
       <r>    25.5016     3.7058   123.9662 </r>
       <r>    25.6073     3.7600   124.3584 </r>
       <r>    25.7130     3.7082   124.7670 </r>
       <r>    25.8186     3.2285   125.1270 </r>
       <r>    25.9243     2.8843   125.4508 </r>
       <r>    26.0300     2.7178   125.7416 </r>
       <r>    26.1357     2.8949   126.0379 </r>
       <r>    26.2413     3.2732   126.3690 </r>
       <r>    26.3470     3.4700   126.7230 </r>
       <r>    26.4527     3.4546   127.0936 </r>
       <r>    26.5583     2.3393   127.4042 </r>
       <r>    26.6640     1.5011   127.6006 </r>
       <r>    26.7697     1.0023   127.7315 </r>
       <r>    26.8754     0.6467   127.8196 </r>
       <r>    26.9810     0.3574   127.8692 </r>
       <r>    27.0867     0.2545   127.9011 </r>
       <r>    27.1924     0.1889   127.9242 </r>
       <r>    27.2981     0.1471   127.9418 </r>
       <r>    27.4037     0.1174   127.9557 </r>
       <r>    27.5094     0.0953   127.9669 </r>
       <r>    27.6151     0.0770   127.9760 </r>
       <r>    27.7208     0.0618   127.9833 </r>
       <r>    27.8264     0.0471   127.9891 </r>
       <r>    27.9321     0.0328   127.9933 </r>
       <r>    28.0378     0.0192   127.9960 </r>
       <r>    28.1434     0.0096   127.9975 </r>
       <r>    28.2491     0.0060   127.9983 </r>
       <r>    28.3548     0.0044   127.9988 </r>
       <r>    28.4605     0.0032   127.9992 </r>
       <r>    28.5661     0.0024   127.9995 </r>
       <r>    28.6718     0.0017   127.9997 </r>
       <r>    28.7775     0.0010   127.9999 </r>
       <r>    28.8832     0.0005   128.0000 </r>
       <r>    28.9888     0.0002   128.0000 </r>
       <r>    29.0945     0.0000   128.0000 </r>
       <r>    29.2002     0.0000   128.0000 </r>
       <r>    29.3059     0.0000   128.0000 </r>
       <r>    29.4115     0.0000   128.0000 </r>
       <r>    29.5172     0.0000   128.0000 </r>
       <r>    29.6229     0.0000   128.0000 </r>
       <r>    29.7285     0.0000   128.0000 </r>
       <r>    29.8342     0.0000   128.0000 </r>
       <r>    29.9399     0.0000   128.0000 </r>
       <r>    30.0456     0.0000   128.0000 </r>
       <r>    30.1512     0.0000   128.0000 </r>
       <r>    30.2569     0.0000   128.0000 </r>
       <r>    30.3626     0.0000   128.0000 </r>
       <r>    30.4683     0.0000   128.0000 </r>
       <r>    30.5739     0.0000   128.0000 </r>
      </set>
     </set>
    </array>
   </total>
  </dos>
 </calculation>
 <structure name="finalpos" >
  <crystal>
   <varray name="basis" >
    <v>       5.46542015      -0.00002611       0.00000000 </v>
    <v>      -2.73273317       4.73318022       0.00000000 </v>
    <v>       0.00000000       0.00000000       4.32385945 </v>
   </varray>
   <i name="volume">    111.85282685 </i>
   <varray name="rec_basis" >
    <v>       0.18296905       0.10563840       0.00000000 </v>
    <v>       0.00000101       0.21127502       0.00000000 </v>
    <v>       0.00000000       0.00000000       0.23127486 </v>
   </varray>
  </crystal>
  <varray name="positions" >
   <v>       0.33332962       0.66667038       0.25000000 </v>
   <v>       0.66667038       0.33332962       0.75000000 </v>
   <v>       0.83411452       0.66824066       0.25000000 </v>
   <v>       0.83411413       0.16588587       0.25000000 </v>
   <v>       0.33175934       0.16588548       0.25000000 </v>
   <v>       0.16588548       0.33175934       0.75000000 </v>
   <v>       0.66824066       0.83411452       0.75000000 </v>
   <v>       0.16588587       0.83411413       0.75000000 </v>
  </varray>
 </structure>
</modeling>
