       N       E                     dE             d eps       ncg     rms          rms(c)
DAV:   1     0.112830113519E+05    0.11283E+05   -0.55466E+05 95400   0.810E+02
DAV:   2    -0.143892238024E+04   -0.12722E+05   -0.12145E+05 95800   0.337E+02
DAV:   3    -0.241090963458E+04   -0.97199E+03   -0.89398E+03135220   0.780E+01
DAV:   4    -0.248227079682E+04   -0.71361E+02   -0.68926E+02132140   0.209E+01
DAV:   5    -0.248512016039E+04   -0.28494E+01   -0.27932E+01139880   0.332E+00    0.779E+01
RMM:   6    -0.241643505048E+04    0.68685E+02   -0.68074E+02105893   0.245E+01    0.623E+01
RMM:   7    -0.236998835607E+04    0.46447E+02   -0.35222E+02 97775   0.172E+01    0.455E+01
RMM:   8    -0.233986676547E+04    0.30122E+02   -0.15707E+02 97688   0.114E+01    0.321E+01
RMM:   9    -0.231562574165E+04    0.24241E+02   -0.34493E+01 98706   0.532E+00    0.618E+00
RMM:  10    -0.231541742782E+04    0.20831E+00   -0.73799E+00136486   0.153E+00    0.347E+00
RMM:  11    -0.231527015095E+04    0.14728E+00   -0.13292E+00120101   0.813E-01    0.384E+00
RMM:  12    -0.231489873498E+04    0.37142E+00   -0.49436E-01116858   0.546E-01    0.210E+00
RMM:  13    -0.231477701588E+04    0.12172E+00   -0.25478E-01111989   0.436E-01    0.131E+00
RMM:  14    -0.231474749598E+04    0.29520E-01   -0.15211E-01111341   0.330E-01    0.132E+00
RMM:  15    -0.231472885437E+04    0.18642E-01   -0.46266E-02119511   0.138E-01    0.946E-01
RMM:  16    -0.231471473011E+04    0.14124E-01   -0.17306E-02114529   0.100E-01    0.474E-01
RMM:  17    -0.231471156967E+04    0.31604E-02   -0.14564E-02119084   0.872E-02    0.204E-01
RMM:  18    -0.231471250352E+04   -0.93385E-03   -0.99459E-03131442   0.632E-02    0.233E-01
RMM:  19    -0.231471230201E+04    0.20152E-03   -0.16226E-03136794   0.204E-02    0.214E-01
RMM:  20    -0.231471168112E+04    0.62089E-03   -0.48803E-04115140   0.164E-02    0.140E-01
RMM:  21    -0.231471127087E+04    0.41025E-03   -0.98831E-04119554   0.227E-02    0.414E-02
RMM:  22    -0.231471123777E+04    0.33102E-04   -0.30792E-04137488   0.102E-02
   1 F= -.23147112E+04 E0= -.23147189E+04  d E =0.229511E-01
