 256 256   0   0
  0.1418917E+02  0.1588033E-08  0.1692661E-08  0.1693229E-08  0.5000000E-15
  1.000000000000000E-004
  CAR 
 Ir_Ru                                   
     14.27721057     -1.29212596  301      9.45689768      1.00000000
     -1.292  0.0000E+00  0.0000E+00
     -1.240  0.0000E+00  0.0000E+00
     -1.188  0.0000E+00  0.0000E+00
     -1.136 -0.2803E-30 -0.1455E-31
     -1.085 -0.1285E-26 -0.6671E-28
     -1.033 -0.3425E-23 -0.1778E-24
     -0.981 -0.5298E-20 -0.2751E-21
     -0.929 -0.4755E-17 -0.2471E-18
     -0.877 -0.2414E-14 -0.1256E-15
     -0.825 -0.7193E-12 -0.3746E-13
     -0.773 -0.1242E-09 -0.6484E-11
     -0.721 -0.1234E-07 -0.6469E-09
     -0.669 -0.7022E-06 -0.3709E-07
     -0.617 -0.2276E-04 -0.1218E-05
     -0.566 -0.4173E-03 -0.2287E-04
     -0.514 -0.4284E-02 -0.2452E-03
     -0.462 -0.2437E-01 -0.1510E-02
     -0.410 -0.7532E-01 -0.5419E-02
     -0.358 -0.1019E+00 -0.1071E-01
     -0.306  0.2076E+00  0.6829E-04
     -0.254  0.1646E+01  0.8549E-01
     -0.202  0.4408E+01  0.3142E+00
     -0.150  0.6357E+01  0.6442E+00
     -0.098  0.6423E+01  0.9775E+00
     -0.047  0.6969E+01  0.1339E+01
      0.005  0.8870E+01  0.1800E+01
      0.057  0.1119E+02  0.2380E+01
      0.109  0.1362E+02  0.3087E+01
      0.161  0.1434E+02  0.3831E+01
      0.213  0.1168E+02  0.4438E+01
      0.265  0.1008E+02  0.4961E+01
      0.317  0.1432E+02  0.5704E+01
      0.369  0.2037E+02  0.6761E+01
      0.421  0.2252E+02  0.7930E+01
      0.472  0.2272E+02  0.9109E+01
      0.524  0.2352E+02  0.1033E+02
      0.576  0.2250E+02  0.1150E+02
      0.628  0.2044E+02  0.1256E+02
      0.680  0.2103E+02  0.1365E+02
      0.732  0.2036E+02  0.1471E+02
      0.784  0.1453E+02  0.1546E+02
      0.836  0.8840E+01  0.1592E+02
      0.888  0.8050E+01  0.1634E+02
      0.939  0.1178E+02  0.1695E+02
      0.991  0.1903E+02  0.1794E+02
      1.043  0.2792E+02  0.1938E+02
      1.095  0.3329E+02  0.2111E+02
      1.147  0.3298E+02  0.2282E+02
      1.199  0.2874E+02  0.2432E+02
      1.251  0.2274E+02  0.2550E+02
      1.303  0.1944E+02  0.2650E+02
      1.355  0.2175E+02  0.2763E+02
      1.407  0.2721E+02  0.2905E+02
      1.458  0.3028E+02  0.3062E+02
      1.510  0.2977E+02  0.3216E+02
      1.562  0.2936E+02  0.3369E+02
      1.614  0.3047E+02  0.3527E+02
      1.666  0.3119E+02  0.3689E+02
      1.718  0.3212E+02  0.3855E+02
      1.770  0.3508E+02  0.4037E+02
      1.822  0.3909E+02  0.4240E+02
      1.874  0.4544E+02  0.4476E+02
      1.926  0.5460E+02  0.4759E+02
      1.977  0.5929E+02  0.5067E+02
      2.029  0.5473E+02  0.5351E+02
      2.081  0.5055E+02  0.5613E+02
      2.133  0.6172E+02  0.5934E+02
      2.185  0.8701E+02  0.6385E+02
      2.237  0.1087E+03  0.6949E+02
      2.289  0.1195E+03  0.7570E+02
      2.341  0.1257E+03  0.8222E+02
      2.393  0.1315E+03  0.8905E+02
      2.445  0.1377E+03  0.9619E+02
      2.496  0.1474E+03  0.1038E+03
      2.548  0.1646E+03  0.1124E+03
      2.600  0.1831E+03  0.1219E+03
      2.652  0.1948E+03  0.1320E+03
      2.704  0.2065E+03  0.1427E+03
      2.756  0.2235E+03  0.1543E+03
      2.808  0.2307E+03  0.1663E+03
      2.860  0.2245E+03  0.1779E+03
      2.912  0.2275E+03  0.1897E+03
      2.963  0.2450E+03  0.2025E+03
      3.015  0.2580E+03  0.2159E+03
      3.067  0.2602E+03  0.2294E+03
      3.119  0.2609E+03  0.2429E+03
      3.171  0.2643E+03  0.2566E+03
      3.223  0.2731E+03  0.2708E+03
      3.275  0.2880E+03  0.2857E+03
      3.327  0.3071E+03  0.3017E+03
      3.379  0.3240E+03  0.3185E+03
      3.431  0.3306E+03  0.3356E+03
      3.482  0.3278E+03  0.3527E+03
      3.534  0.3214E+03  0.3693E+03
      3.586  0.3183E+03  0.3859E+03
      3.638  0.3166E+03  0.4023E+03
      3.690  0.3111E+03  0.4184E+03
      3.742  0.3052E+03  0.4343E+03
      3.794  0.3011E+03  0.4499E+03
      3.846  0.2968E+03  0.4653E+03
      3.898  0.2932E+03  0.4805E+03
      3.950  0.2885E+03  0.4955E+03
      4.001  0.2760E+03  0.5098E+03
      4.053  0.2663E+03  0.5236E+03
      4.105  0.2755E+03  0.5379E+03
      4.157  0.2941E+03  0.5532E+03
      4.209  0.3027E+03  0.5689E+03
      4.261  0.3049E+03  0.5847E+03
      4.313  0.3119E+03  0.6009E+03
      4.365  0.3186E+03  0.6175E+03
      4.417  0.3212E+03  0.6341E+03
      4.469  0.3235E+03  0.6509E+03
      4.520  0.3210E+03  0.6676E+03
      4.572  0.3096E+03  0.6836E+03
      4.624  0.2973E+03  0.6991E+03
      4.676  0.2935E+03  0.7143E+03
      4.728  0.2983E+03  0.7298E+03
      4.780  0.3060E+03  0.7457E+03
      4.832  0.3180E+03  0.7622E+03
      4.884  0.3316E+03  0.7794E+03
      4.936  0.3379E+03  0.7969E+03
      4.988  0.3453E+03  0.8148E+03
      5.039  0.3583E+03  0.8334E+03
      5.091  0.3656E+03  0.8524E+03
      5.143  0.3642E+03  0.8713E+03
      5.195  0.3550E+03  0.8897E+03
      5.247  0.3344E+03  0.9071E+03
      5.299  0.3020E+03  0.9227E+03
      5.351  0.2609E+03  0.9363E+03
      5.403  0.2177E+03  0.9476E+03
      5.455  0.1841E+03  0.9571E+03
      5.506  0.1727E+03  0.9661E+03
      5.558  0.1896E+03  0.9759E+03
      5.610  0.2279E+03  0.9878E+03
      5.662  0.2764E+03  0.1002E+04
      5.714  0.3265E+03  0.1019E+04
      5.766  0.3684E+03  0.1038E+04
      5.818  0.3956E+03  0.1059E+04
      5.870  0.4107E+03  0.1080E+04
      5.922  0.4195E+03  0.1102E+04
      5.974  0.4259E+03  0.1124E+04
      6.025  0.4280E+03  0.1146E+04
      6.077  0.4158E+03  0.1168E+04
      6.129  0.3914E+03  0.1188E+04
      6.181  0.3716E+03  0.1207E+04
      6.233  0.3610E+03  0.1226E+04
      6.285  0.3553E+03  0.1244E+04
      6.337  0.3565E+03  0.1263E+04
      6.389  0.3695E+03  0.1282E+04
      6.441  0.3820E+03  0.1302E+04
      6.493  0.3843E+03  0.1322E+04
      6.544  0.3919E+03  0.1342E+04
      6.596  0.4102E+03  0.1364E+04
      6.648  0.4239E+03  0.1386E+04
      6.700  0.4279E+03  0.1408E+04
      6.752  0.4250E+03  0.1430E+04
      6.804  0.4130E+03  0.1451E+04
      6.856  0.3918E+03  0.1472E+04
      6.908  0.3733E+03  0.1491E+04
      6.960  0.3665E+03  0.1510E+04
      7.012  0.3636E+03  0.1529E+04
      7.063  0.3683E+03  0.1548E+04
      7.115  0.3916E+03  0.1568E+04
      7.167  0.4149E+03  0.1590E+04
      7.219  0.4223E+03  0.1612E+04
      7.271  0.4225E+03  0.1634E+04
      7.323  0.4133E+03  0.1655E+04
      7.375  0.3875E+03  0.1675E+04
      7.427  0.3583E+03  0.1694E+04
      7.479  0.3400E+03  0.1711E+04
      7.530  0.3327E+03  0.1729E+04
      7.582  0.3288E+03  0.1746E+04
      7.634  0.3168E+03  0.1762E+04
      7.686  0.2952E+03  0.1778E+04
      7.738  0.2772E+03  0.1792E+04
      7.790  0.2686E+03  0.1806E+04
      7.842  0.2637E+03  0.1820E+04
      7.894  0.2574E+03  0.1833E+04
      7.946  0.2482E+03  0.1846E+04
      7.998  0.2428E+03  0.1858E+04
      8.049  0.2432E+03  0.1871E+04
      8.101  0.2391E+03  0.1883E+04
      8.153  0.2312E+03  0.1895E+04
      8.205  0.2290E+03  0.1907E+04
      8.257  0.2335E+03  0.1919E+04
      8.309  0.2378E+03  0.1932E+04
      8.361  0.2391E+03  0.1944E+04
      8.413  0.2369E+03  0.1956E+04
      8.465  0.2286E+03  0.1968E+04
      8.517  0.2183E+03  0.1980E+04
      8.568  0.2120E+03  0.1991E+04
      8.620  0.2070E+03  0.2001E+04
      8.672  0.1997E+03  0.2012E+04
      8.724  0.1912E+03  0.2022E+04
      8.776  0.1830E+03  0.2031E+04
      8.828  0.1795E+03  0.2041E+04
      8.880  0.1886E+03  0.2050E+04
      8.932  0.2136E+03  0.2061E+04
      8.984  0.2357E+03  0.2074E+04
      9.036  0.2361E+03  0.2086E+04
      9.087  0.2232E+03  0.2097E+04
      9.139  0.2061E+03  0.2108E+04
      9.191  0.1868E+03  0.2118E+04
      9.243  0.1790E+03  0.2127E+04
      9.295  0.1979E+03  0.2137E+04
      9.347  0.2288E+03  0.2149E+04
      9.399  0.2431E+03  0.2162E+04
      9.451  0.2429E+03  0.2174E+04
      9.503  0.2450E+03  0.2187E+04
      9.555  0.2443E+03  0.2200E+04
      9.606  0.2465E+03  0.2213E+04
      9.658  0.2753E+03  0.2227E+04
      9.710  0.3183E+03  0.2243E+04
      9.762  0.3356E+03  0.2261E+04
      9.814  0.3261E+03  0.2278E+04
      9.866  0.3165E+03  0.2294E+04
      9.918  0.3154E+03  0.2311E+04
      9.970  0.3220E+03  0.2327E+04
     10.022  0.3437E+03  0.2345E+04
     10.073  0.3806E+03  0.2365E+04
     10.125  0.4134E+03  0.2386E+04
     10.177  0.4287E+03  0.2409E+04
     10.229  0.4365E+03  0.2431E+04
     10.281  0.4490E+03  0.2455E+04
     10.333  0.4672E+03  0.2479E+04
     10.385  0.4849E+03  0.2504E+04
     10.437  0.4944E+03  0.2530E+04
     10.489  0.4857E+03  0.2555E+04
     10.541  0.4480E+03  0.2578E+04
     10.592  0.3888E+03  0.2598E+04
     10.644  0.3220E+03  0.2615E+04
     10.696  0.2402E+03  0.2627E+04
     10.748  0.1402E+03  0.2635E+04
     10.800  0.5090E+02  0.2637E+04
     10.852  0.3890E+01  0.2638E+04
     10.904 -0.5595E+01  0.2637E+04
     10.956 -0.2725E+01  0.2637E+04
     11.008 -0.6158E+00  0.2637E+04
     11.060 -0.8644E-01  0.2637E+04
     11.111 -0.8728E-02  0.2637E+04
     11.163 -0.6464E-03  0.2637E+04
     11.215 -0.3212E-04  0.2637E+04
     11.267 -0.9817E-06  0.2637E+04
     11.319 -0.1768E-07  0.2637E+04
     11.371 -0.1847E-09  0.2637E+04
     11.423 -0.1387E-11  0.2637E+04
     11.475 -0.5964E-10  0.2637E+04
     11.527 -0.7565E-08  0.2637E+04
     11.579 -0.5527E-06  0.2637E+04
     11.630 -0.2308E-04  0.2637E+04
     11.682 -0.5435E-03  0.2637E+04
     11.734 -0.7028E-02  0.2637E+04
     11.786 -0.4692E-01  0.2637E+04
     11.838 -0.1312E+00  0.2637E+04
     11.890  0.6555E-01  0.2637E+04
     11.942  0.1180E+01  0.2637E+04
     11.994  0.2546E+01  0.2637E+04
     12.046  0.2480E+01  0.2637E+04
     12.098  0.1456E+01  0.2638E+04
     12.149  0.6703E+00  0.2638E+04
     12.201  0.1841E+00  0.2638E+04
     12.253  0.6176E+00  0.2638E+04
     12.305  0.2421E+01  0.2638E+04
     12.357  0.4133E+01  0.2638E+04
     12.409  0.3977E+01  0.2638E+04
     12.461  0.2667E+01  0.2638E+04
     12.513  0.1861E+01  0.2638E+04
     12.565  0.1870E+01  0.2638E+04
     12.616  0.2365E+01  0.2639E+04
     12.668  0.3415E+01  0.2639E+04
     12.720  0.4471E+01  0.2639E+04
     12.772  0.4023E+01  0.2639E+04
     12.824  0.2754E+01  0.2639E+04
     12.876  0.2377E+01  0.2639E+04
     12.928  0.2229E+01  0.2640E+04
     12.980  0.1583E+01  0.2640E+04
     13.032  0.1095E+01  0.2640E+04
     13.084  0.9903E+00  0.2640E+04
     13.135  0.9878E+00  0.2640E+04
     13.187  0.9179E+00  0.2640E+04
     13.239  0.8551E+00  0.2640E+04
     13.291  0.9072E+00  0.2640E+04
     13.343  0.6543E+00  0.2640E+04
     13.395  0.1767E+00  0.2640E+04
     13.447 -0.3769E-01  0.2640E+04
     13.499 -0.3222E-01  0.2640E+04
     13.551 -0.7226E-02  0.2640E+04
     13.603 -0.7721E-03  0.2640E+04
     13.654 -0.4385E-04  0.2640E+04
     13.706 -0.1378E-05  0.2640E+04
     13.758 -0.2444E-07  0.2640E+04
     13.810 -0.2472E-09  0.2640E+04
     13.862 -0.1435E-11  0.2640E+04
     13.914 -0.4754E-14  0.2640E+04
     13.966  0.0000E+00  0.2640E+04
     14.018  0.0000E+00  0.2640E+04
     14.070  0.0000E+00  0.2640E+04
     14.122  0.0000E+00  0.2640E+04
     14.173  0.0000E+00  0.2640E+04
     14.225  0.0000E+00  0.2640E+04
     14.277  0.0000E+00  0.2640E+04
