       N       E                     dE             d eps       ncg     rms          rms(c)
RMM:   1     0.136790818925E+05    0.13679E+05   -0.47218E+05 25080   0.725E+02
RMM:   2     0.131335851118E+04   -0.12366E+05   -0.13120E+05 25080   0.260E+02
RMM:   3    -0.104570072308E+04   -0.23591E+04   -0.22856E+04 25080   0.111E+02
RMM:   4    -0.184600751007E+04   -0.80031E+03   -0.57408E+03 25080   0.768E+01
RMM:   5    -0.212912211864E+04   -0.28311E+03   -0.24896E+03 25080   0.451E+01
RMM:   6    -0.227483972474E+04   -0.14572E+03   -0.12952E+03 25080   0.349E+01
RMM:   7    -0.235270161592E+04   -0.77862E+02   -0.73852E+02 25080   0.235E+01
RMM:   8    -0.240019740862E+04   -0.47496E+02   -0.44555E+02 25080   0.195E+01
RMM:   9    -0.247909009383E+04   -0.78893E+02   -0.77972E+02 71887   0.137E+01
RMM:  10    -0.248864228952E+04   -0.95522E+01   -0.11975E+02 79678   0.282E+00
RMM:  11    -0.249088313463E+04   -0.22408E+01   -0.17843E+01 77285   0.686E-01
RMM:  12    -0.249118943062E+04   -0.30630E+00   -0.19828E+00 79563   0.198E-01    0.782E+01
RMM:  13    -0.241371769790E+04    0.77472E+02   -0.68531E+02 57199   0.246E+01    0.584E+01
RMM:  14    -0.236778791694E+04    0.45930E+02   -0.34148E+02 51437   0.174E+01    0.416E+01
RMM:  15    -0.233564569117E+04    0.32142E+02   -0.11851E+02 53314   0.101E+01    0.255E+01
RMM:  16    -0.232132750623E+04    0.14318E+02   -0.25856E+01 56000   0.435E+00    0.442E+00
RMM:  17    -0.232151552093E+04   -0.18801E+00   -0.64728E+00 73747   0.130E+00    0.439E+00
RMM:  18    -0.232113341706E+04    0.38210E+00   -0.11748E+00 64559   0.689E-01    0.341E+00
RMM:  19    -0.232074655415E+04    0.38686E+00   -0.66229E-01 59569   0.762E-01    0.164E+00
RMM:  20    -0.232069200536E+04    0.54549E-01   -0.24204E-01 63072   0.360E-01    0.150E+00
RMM:  21    -0.232065758804E+04    0.34417E-01   -0.10930E-01 62825   0.230E-01    0.122E+00
RMM:  22    -0.232063200822E+04    0.25580E-01   -0.46247E-02 61290   0.156E-01    0.694E-01
RMM:  23    -0.232062718863E+04    0.48196E-02   -0.13225E-02 66973   0.675E-02    0.483E-01
RMM:  24    -0.232062373410E+04    0.34545E-02   -0.10188E-02 62751   0.745E-02    0.243E-01
RMM:  25    -0.232062469969E+04   -0.96559E-03   -0.13134E-02 65892   0.798E-02    0.257E-01
RMM:  26    -0.232062481706E+04   -0.11737E-03   -0.31350E-03 75244   0.278E-02    0.264E-01
RMM:  27    -0.232062391895E+04    0.89811E-03   -0.69396E-04 60114   0.203E-02    0.175E-01
RMM:  28    -0.232062335979E+04    0.55915E-03   -0.11054E-03 63585   0.243E-02    0.709E-02
RMM:  29    -0.232062327935E+04    0.80446E-04   -0.52351E-04 71568   0.140E-02
   1 F= -.23206233E+04 E0= -.23206232E+04  d E =-.187512E-03
