 256 256   0   0
  0.1418917E+02  0.1588033E-08  0.1692661E-08  0.1693229E-08  0.5000000E-15
  1.000000000000000E-004
  CAR 
 Ir_Ru                                   
     14.27828668     -1.29176715  301      9.45694184      1.00000000
     -1.292  0.0000E+00  0.0000E+00
     -1.240  0.0000E+00  0.0000E+00
     -1.188  0.0000E+00  0.0000E+00
     -1.136 -0.2806E-30 -0.1456E-31
     -1.084 -0.1287E-26 -0.6681E-28
     -1.032 -0.3430E-23 -0.1781E-24
     -0.980 -0.5308E-20 -0.2757E-21
     -0.928 -0.4765E-17 -0.2476E-18
     -0.877 -0.2420E-14 -0.1258E-15
     -0.825 -0.7209E-12 -0.3754E-13
     -0.773 -0.1245E-09 -0.6499E-11
     -0.721 -0.1237E-07 -0.6483E-09
     -0.669 -0.7036E-06 -0.3716E-07
     -0.617 -0.2281E-04 -0.1221E-05
     -0.565 -0.4179E-03 -0.2291E-04
     -0.513 -0.4289E-02 -0.2455E-03
     -0.461 -0.2439E-01 -0.1511E-02
     -0.409 -0.7534E-01 -0.5422E-02
     -0.358 -0.1018E+00 -0.1070E-01
     -0.306  0.2082E+00  0.1011E-03
     -0.254  0.1647E+01  0.8559E-01
     -0.202  0.4409E+01  0.3144E+00
     -0.150  0.6357E+01  0.6444E+00
     -0.098  0.6422E+01  0.9776E+00
     -0.046  0.6967E+01  0.1339E+01
      0.006  0.8867E+01  0.1799E+01
      0.058  0.1119E+02  0.2380E+01
      0.110  0.1362E+02  0.3087E+01
      0.161  0.1434E+02  0.3831E+01
      0.213  0.1169E+02  0.4438E+01
      0.265  0.1007E+02  0.4960E+01
      0.317  0.1429E+02  0.5702E+01
      0.369  0.2035E+02  0.6758E+01
      0.421  0.2252E+02  0.7927E+01
      0.473  0.2271E+02  0.9106E+01
      0.525  0.2351E+02  0.1033E+02
      0.577  0.2250E+02  0.1149E+02
      0.629  0.2042E+02  0.1255E+02
      0.680  0.2101E+02  0.1364E+02
      0.732  0.2037E+02  0.1470E+02
      0.784  0.1457E+02  0.1546E+02
      0.836  0.8865E+01  0.1592E+02
      0.888  0.8058E+01  0.1634E+02
      0.940  0.1176E+02  0.1695E+02
      0.992  0.1900E+02  0.1793E+02
      1.044  0.2794E+02  0.1938E+02
      1.096  0.3337E+02  0.2111E+02
      1.148  0.3302E+02  0.2283E+02
      1.199  0.2875E+02  0.2432E+02
      1.251  0.2279E+02  0.2550E+02
      1.303  0.1948E+02  0.2651E+02
      1.355  0.2171E+02  0.2764E+02
      1.407  0.2719E+02  0.2905E+02
      1.459  0.3035E+02  0.3063E+02
      1.511  0.2983E+02  0.3218E+02
      1.563  0.2933E+02  0.3370E+02
      1.615  0.3040E+02  0.3528E+02
      1.667  0.3112E+02  0.3689E+02
      1.718  0.3205E+02  0.3855E+02
      1.770  0.3502E+02  0.4037E+02
      1.822  0.3909E+02  0.4240E+02
      1.874  0.4549E+02  0.4476E+02
      1.926  0.5468E+02  0.4760E+02
      1.978  0.5935E+02  0.5068E+02
      2.030  0.5475E+02  0.5352E+02
      2.082  0.5057E+02  0.5615E+02
      2.134  0.6175E+02  0.5935E+02
      2.186  0.8705E+02  0.6387E+02
      2.237  0.1088E+03  0.6952E+02
      2.289  0.1198E+03  0.7573E+02
      2.341  0.1258E+03  0.8226E+02
      2.393  0.1316E+03  0.8909E+02
      2.445  0.1376E+03  0.9623E+02
      2.497  0.1473E+03  0.1039E+03
      2.549  0.1644E+03  0.1124E+03
      2.601  0.1829E+03  0.1219E+03
      2.653  0.1949E+03  0.1320E+03
      2.705  0.2068E+03  0.1428E+03
      2.756  0.2237E+03  0.1544E+03
      2.808  0.2307E+03  0.1663E+03
      2.860  0.2244E+03  0.1780E+03
      2.912  0.2278E+03  0.1898E+03
      2.964  0.2454E+03  0.2025E+03
      3.016  0.2581E+03  0.2159E+03
      3.068  0.2602E+03  0.2294E+03
      3.120  0.2607E+03  0.2430E+03
      3.172  0.2643E+03  0.2567E+03
      3.224  0.2733E+03  0.2709E+03
      3.275  0.2884E+03  0.2858E+03
      3.327  0.3076E+03  0.3018E+03
      3.379  0.3245E+03  0.3186E+03
      3.431  0.3308E+03  0.3358E+03
      3.483  0.3277E+03  0.3528E+03
      3.535  0.3211E+03  0.3695E+03
      3.587  0.3180E+03  0.3860E+03
      3.639  0.3164E+03  0.4024E+03
      3.691  0.3109E+03  0.4186E+03
      3.743  0.3050E+03  0.4344E+03
      3.794  0.3010E+03  0.4500E+03
      3.846  0.2967E+03  0.4654E+03
      3.898  0.2932E+03  0.4806E+03
      3.950  0.2885E+03  0.4956E+03
      4.002  0.2761E+03  0.5099E+03
      4.054  0.2665E+03  0.5238E+03
      4.106  0.2758E+03  0.5381E+03
      4.158  0.2943E+03  0.5533E+03
      4.210  0.3028E+03  0.5691E+03
      4.262  0.3052E+03  0.5849E+03
      4.313  0.3122E+03  0.6011E+03
      4.365  0.3187E+03  0.6177E+03
      4.417  0.3213E+03  0.6343E+03
      4.469  0.3237E+03  0.6511E+03
      4.521  0.3210E+03  0.6678E+03
      4.573  0.3093E+03  0.6838E+03
      4.625  0.2970E+03  0.6993E+03
      4.677  0.2936E+03  0.7145E+03
      4.729  0.2984E+03  0.7300E+03
      4.781  0.3061E+03  0.7459E+03
      4.832  0.3181E+03  0.7624E+03
      4.884  0.3316E+03  0.7796E+03
      4.936  0.3378E+03  0.7971E+03
      4.988  0.3454E+03  0.8150E+03
      5.040  0.3585E+03  0.8337E+03
      5.092  0.3657E+03  0.8526E+03
      5.144  0.3642E+03  0.8715E+03
      5.196  0.3550E+03  0.8900E+03
      5.248  0.3342E+03  0.9073E+03
      5.300  0.3015E+03  0.9229E+03
      5.351  0.2603E+03  0.9365E+03
      5.403  0.2172E+03  0.9477E+03
      5.455  0.1837E+03  0.9573E+03
      5.507  0.1726E+03  0.9662E+03
      5.559  0.1899E+03  0.9761E+03
      5.611  0.2284E+03  0.9879E+03
      5.663  0.2771E+03  0.1002E+04
      5.715  0.3272E+03  0.1019E+04
      5.767  0.3688E+03  0.1038E+04
      5.819  0.3959E+03  0.1059E+04
      5.870  0.4106E+03  0.1080E+04
      5.922  0.4192E+03  0.1102E+04
      5.974  0.4256E+03  0.1124E+04
      6.026  0.4278E+03  0.1146E+04
      6.078  0.4158E+03  0.1168E+04
      6.130  0.3915E+03  0.1188E+04
      6.182  0.3718E+03  0.1208E+04
      6.234  0.3612E+03  0.1226E+04
      6.286  0.3553E+03  0.1245E+04
      6.338  0.3565E+03  0.1263E+04
      6.389  0.3695E+03  0.1282E+04
      6.441  0.3820E+03  0.1302E+04
      6.493  0.3843E+03  0.1322E+04
      6.545  0.3920E+03  0.1343E+04
      6.597  0.4104E+03  0.1364E+04
      6.649  0.4242E+03  0.1386E+04
      6.701  0.4281E+03  0.1408E+04
      6.753  0.4250E+03  0.1430E+04
      6.805  0.4128E+03  0.1452E+04
      6.857  0.3915E+03  0.1472E+04
      6.908  0.3731E+03  0.1491E+04
      6.960  0.3665E+03  0.1510E+04
      7.012  0.3637E+03  0.1529E+04
      7.064  0.3685E+03  0.1548E+04
      7.116  0.3920E+03  0.1569E+04
      7.168  0.4152E+03  0.1590E+04
      7.220  0.4223E+03  0.1612E+04
      7.272  0.4222E+03  0.1634E+04
      7.324  0.4127E+03  0.1655E+04
      7.376  0.3870E+03  0.1675E+04
      7.427  0.3582E+03  0.1694E+04
      7.479  0.3400E+03  0.1712E+04
      7.531  0.3326E+03  0.1729E+04
      7.583  0.3287E+03  0.1746E+04
      7.635  0.3166E+03  0.1762E+04
      7.687  0.2950E+03  0.1778E+04
      7.739  0.2770E+03  0.1792E+04
      7.791  0.2685E+03  0.1806E+04
      7.843  0.2637E+03  0.1820E+04
      7.895  0.2574E+03  0.1833E+04
      7.946  0.2481E+03  0.1846E+04
      7.998  0.2427E+03  0.1859E+04
      8.050  0.2432E+03  0.1871E+04
      8.102  0.2390E+03  0.1884E+04
      8.154  0.2311E+03  0.1896E+04
      8.206  0.2291E+03  0.1907E+04
      8.258  0.2336E+03  0.1920E+04
      8.310  0.2379E+03  0.1932E+04
      8.362  0.2392E+03  0.1944E+04
      8.414  0.2368E+03  0.1957E+04
      8.465  0.2283E+03  0.1969E+04
      8.517  0.2181E+03  0.1980E+04
      8.569  0.2120E+03  0.1991E+04
      8.621  0.2069E+03  0.2002E+04
      8.673  0.1994E+03  0.2012E+04
      8.725  0.1910E+03  0.2022E+04
      8.777  0.1830E+03  0.2031E+04
      8.829  0.1796E+03  0.2041E+04
      8.881  0.1888E+03  0.2050E+04
      8.933  0.2140E+03  0.2062E+04
      8.984  0.2358E+03  0.2074E+04
      9.036  0.2360E+03  0.2086E+04
      9.088  0.2230E+03  0.2098E+04
      9.140  0.2059E+03  0.2108E+04
      9.192  0.1865E+03  0.2118E+04
      9.244  0.1791E+03  0.2127E+04
      9.296  0.1985E+03  0.2138E+04
      9.348  0.2294E+03  0.2149E+04
      9.400  0.2432E+03  0.2162E+04
      9.452  0.2429E+03  0.2175E+04
      9.503  0.2449E+03  0.2187E+04
      9.555  0.2443E+03  0.2200E+04
      9.607  0.2468E+03  0.2213E+04
      9.659  0.2759E+03  0.2227E+04
      9.711  0.3187E+03  0.2244E+04
      9.763  0.3355E+03  0.2261E+04
      9.815  0.3259E+03  0.2278E+04
      9.867  0.3164E+03  0.2294E+04
      9.919  0.3153E+03  0.2311E+04
      9.971  0.3221E+03  0.2328E+04
     10.022  0.3442E+03  0.2345E+04
     10.074  0.3813E+03  0.2365E+04
     10.126  0.4137E+03  0.2387E+04
     10.178  0.4287E+03  0.2409E+04
     10.230  0.4365E+03  0.2432E+04
     10.282  0.4494E+03  0.2455E+04
     10.334  0.4682E+03  0.2479E+04
     10.386  0.4870E+03  0.2505E+04
     10.438  0.4976E+03  0.2530E+04
     10.490  0.4892E+03  0.2556E+04
     10.541  0.4503E+03  0.2579E+04
     10.593  0.3888E+03  0.2599E+04
     10.645  0.3195E+03  0.2616E+04
     10.697  0.2350E+03  0.2628E+04
     10.749  0.1337E+03  0.2635E+04
     10.801  0.4651E+02  0.2637E+04
     10.853  0.2815E+01  0.2638E+04
     10.905 -0.5333E+01  0.2637E+04
     10.957 -0.2537E+01  0.2637E+04
     11.009 -0.5781E+00  0.2637E+04
     11.060 -0.8091E-01  0.2637E+04
     11.112 -0.7671E-02  0.2637E+04
     11.164 -0.5005E-03  0.2637E+04
     11.216 -0.2146E-04  0.2637E+04
     11.268 -0.5717E-06  0.2637E+04
     11.320 -0.9113E-08  0.2637E+04
     11.372 -0.8530E-10  0.2637E+04
     11.424 -0.6789E-12  0.2637E+04
     11.476 -0.4641E-10  0.2637E+04
     11.528 -0.5837E-08  0.2637E+04
     11.579 -0.4244E-06  0.2637E+04
     11.631 -0.1774E-04  0.2637E+04
     11.683 -0.4215E-03  0.2637E+04
     11.735 -0.5566E-02  0.2637E+04
     11.787 -0.3867E-01  0.2637E+04
     11.839 -0.1180E+00  0.2637E+04
     11.891  0.1486E-01  0.2637E+04
     11.943  0.9836E+00  0.2637E+04
     11.995  0.2357E+01  0.2637E+04
     12.047  0.2404E+01  0.2637E+04
     12.098  0.1348E+01  0.2637E+04
     12.150  0.8453E+00  0.2638E+04
     12.202  0.1249E+01  0.2638E+04
     12.254  0.2432E+01  0.2638E+04
     12.306  0.3459E+01  0.2638E+04
     12.358  0.3166E+01  0.2638E+04
     12.410  0.2364E+01  0.2638E+04
     12.462  0.2116E+01  0.2638E+04
     12.514  0.2071E+01  0.2638E+04
     12.566  0.2352E+01  0.2639E+04
     12.617  0.2840E+01  0.2639E+04
     12.669  0.3064E+01  0.2639E+04
     12.721  0.3346E+01  0.2639E+04
     12.773  0.3358E+01  0.2639E+04
     12.825  0.2895E+01  0.2639E+04
     12.877  0.2630E+01  0.2639E+04
     12.929  0.2295E+01  0.2640E+04
     12.981  0.1471E+01  0.2640E+04
     13.033  0.9568E+00  0.2640E+04
     13.085  0.1045E+01  0.2640E+04
     13.136  0.1157E+01  0.2640E+04
     13.188  0.1032E+01  0.2640E+04
     13.240  0.9071E+00  0.2640E+04
     13.292  0.9206E+00  0.2640E+04
     13.344  0.6512E+00  0.2640E+04
     13.396  0.1740E+00  0.2640E+04
     13.448 -0.3831E-01  0.2640E+04
     13.500 -0.3231E-01  0.2640E+04
     13.552 -0.7239E-02  0.2640E+04
     13.604 -0.7734E-03  0.2640E+04
     13.655 -0.4393E-04  0.2640E+04
     13.707 -0.1381E-05  0.2640E+04
     13.759 -0.2449E-07  0.2640E+04
     13.811 -0.2477E-09  0.2640E+04
     13.863 -0.1438E-11  0.2640E+04
     13.915 -0.4754E-14  0.2640E+04
     13.967  0.0000E+00  0.2640E+04
     14.019  0.0000E+00  0.2640E+04
     14.071  0.0000E+00  0.2640E+04
     14.123  0.0000E+00  0.2640E+04
     14.174  0.0000E+00  0.2640E+04
     14.226  0.0000E+00  0.2640E+04
     14.278  0.0000E+00  0.2640E+04
