 256 256   0   0
  0.1418917E+02  0.1588033E-08  0.1692661E-08  0.1693229E-08  0.5000000E-15
  1.000000000000000E-004
  CAR 
 Ir_Ru                                   
     14.26820237     -1.29164627  301      9.45700260      1.00000000
     -1.292  0.0000E+00  0.0000E+00
     -1.240  0.0000E+00  0.0000E+00
     -1.188  0.0000E+00  0.0000E+00
     -1.136 -0.2760E-30 -0.1432E-31
     -1.084 -0.1261E-26 -0.6540E-28
     -1.032 -0.3348E-23 -0.1737E-24
     -0.980 -0.5166E-20 -0.2681E-21
     -0.929 -0.4627E-17 -0.2403E-18
     -0.877 -0.2345E-14 -0.1219E-15
     -0.825 -0.6986E-12 -0.3636E-13
     -0.773 -0.1207E-09 -0.6294E-11
     -0.721 -0.1199E-07 -0.6284E-09
     -0.669 -0.6835E-06 -0.3608E-07
     -0.617 -0.2220E-04 -0.1188E-05
     -0.566 -0.4082E-03 -0.2236E-04
     -0.514 -0.4206E-02 -0.2405E-03
     -0.462 -0.2404E-01 -0.1487E-02
     -0.410 -0.7469E-01 -0.5361E-02
     -0.358 -0.1024E+00 -0.1067E-01
     -0.306  0.1996E+00 -0.3204E-03
     -0.254  0.1619E+01  0.8363E-01
     -0.202  0.4371E+01  0.3103E+00
     -0.151  0.6346E+01  0.6395E+00
     -0.099  0.6424E+01  0.9726E+00
     -0.047  0.6946E+01  0.1333E+01
      0.005  0.8832E+01  0.1791E+01
      0.057  0.1115E+02  0.2369E+01
      0.109  0.1358E+02  0.3074E+01
      0.161  0.1436E+02  0.3818E+01
      0.212  0.1174E+02  0.4428E+01
      0.264  0.1005E+02  0.4949E+01
      0.316  0.1417E+02  0.5684E+01
      0.368  0.2028E+02  0.6736E+01
      0.420  0.2251E+02  0.7903E+01
      0.472  0.2268E+02  0.9079E+01
      0.524  0.2350E+02  0.1030E+02
      0.576  0.2257E+02  0.1147E+02
      0.627  0.2046E+02  0.1253E+02
      0.679  0.2097E+02  0.1362E+02
      0.731  0.2045E+02  0.1468E+02
      0.783  0.1474E+02  0.1544E+02
      0.835  0.8937E+01  0.1591E+02
      0.887  0.7976E+01  0.1632E+02
      0.939  0.1157E+02  0.1692E+02
      0.990  0.1869E+02  0.1789E+02
      1.042  0.2765E+02  0.1932E+02
      1.094  0.3332E+02  0.2105E+02
      1.146  0.3317E+02  0.2277E+02
      1.198  0.2896E+02  0.2427E+02
      1.250  0.2297E+02  0.2547E+02
      1.302  0.1951E+02  0.2648E+02
      1.354  0.2156E+02  0.2760E+02
      1.405  0.2703E+02  0.2900E+02
      1.457  0.3031E+02  0.3057E+02
      1.509  0.2986E+02  0.3212E+02
      1.561  0.2933E+02  0.3364E+02
      1.613  0.3038E+02  0.3522E+02
      1.665  0.3111E+02  0.3683E+02
      1.717  0.3196E+02  0.3849E+02
      1.768  0.3489E+02  0.4030E+02
      1.820  0.3895E+02  0.4232E+02
      1.872  0.4522E+02  0.4466E+02
      1.924  0.5434E+02  0.4748E+02
      1.976  0.5931E+02  0.5056E+02
      2.028  0.5498E+02  0.5341E+02
      2.080  0.5045E+02  0.5602E+02
      2.132  0.6084E+02  0.5918E+02
      2.183  0.8587E+02  0.6363E+02
      2.235  0.1081E+03  0.6924E+02
      2.287  0.1194E+03  0.7544E+02
      2.339  0.1256E+03  0.8195E+02
      2.391  0.1313E+03  0.8876E+02
      2.443  0.1372E+03  0.9587E+02
      2.495  0.1466E+03  0.1035E+03
      2.546  0.1635E+03  0.1120E+03
      2.598  0.1822E+03  0.1214E+03
      2.650  0.1945E+03  0.1315E+03
      2.702  0.2061E+03  0.1422E+03
      2.754  0.2230E+03  0.1538E+03
      2.806  0.2308E+03  0.1657E+03
      2.858  0.2248E+03  0.1774E+03
      2.910  0.2272E+03  0.1892E+03
      2.961  0.2444E+03  0.2018E+03
      3.013  0.2576E+03  0.2152E+03
      3.065  0.2600E+03  0.2287E+03
      3.117  0.2604E+03  0.2422E+03
      3.169  0.2637E+03  0.2559E+03
      3.221  0.2724E+03  0.2700E+03
      3.273  0.2874E+03  0.2849E+03
      3.324  0.3066E+03  0.3008E+03
      3.376  0.3239E+03  0.3176E+03
      3.428  0.3308E+03  0.3348E+03
      3.480  0.3282E+03  0.3518E+03
      3.532  0.3218E+03  0.3685E+03
      3.584  0.3183E+03  0.3850E+03
      3.636  0.3167E+03  0.4014E+03
      3.688  0.3114E+03  0.4176E+03
      3.739  0.3054E+03  0.4334E+03
      3.791  0.3013E+03  0.4490E+03
      3.843  0.2971E+03  0.4644E+03
      3.895  0.2935E+03  0.4797E+03
      3.947  0.2890E+03  0.4946E+03
      3.999  0.2768E+03  0.5090E+03
      4.051  0.2664E+03  0.5228E+03
      4.102  0.2746E+03  0.5371E+03
      4.154  0.2933E+03  0.5523E+03
      4.206  0.3027E+03  0.5680E+03
      4.258  0.3051E+03  0.5838E+03
      4.310  0.3119E+03  0.6000E+03
      4.362  0.3188E+03  0.6165E+03
      4.414  0.3214E+03  0.6332E+03
      4.465  0.3236E+03  0.6500E+03
      4.517  0.3214E+03  0.6666E+03
      4.569  0.3103E+03  0.6827E+03
      4.621  0.2977E+03  0.6982E+03
      4.673  0.2934E+03  0.7134E+03
      4.725  0.2979E+03  0.7288E+03
      4.777  0.3054E+03  0.7447E+03
      4.829  0.3170E+03  0.7611E+03
      4.880  0.3307E+03  0.7783E+03
      4.932  0.3375E+03  0.7958E+03
      4.984  0.3446E+03  0.8137E+03
      5.036  0.3575E+03  0.8322E+03
      5.088  0.3654E+03  0.8512E+03
      5.140  0.3646E+03  0.8701E+03
      5.192  0.3560E+03  0.8885E+03
      5.243  0.3364E+03  0.9060E+03
      5.295  0.3046E+03  0.9218E+03
      5.347  0.2639E+03  0.9355E+03
      5.399  0.2204E+03  0.9469E+03
      5.451  0.1857E+03  0.9565E+03
      5.503  0.1723E+03  0.9655E+03
      5.555  0.1873E+03  0.9752E+03
      5.607  0.2245E+03  0.9868E+03
      5.658  0.2726E+03  0.1001E+04
      5.710  0.3230E+03  0.1018E+04
      5.762  0.3658E+03  0.1037E+04
      5.814  0.3940E+03  0.1057E+04
      5.866  0.4097E+03  0.1078E+04
      5.918  0.4187E+03  0.1100E+04
      5.970  0.4253E+03  0.1122E+04
      6.021  0.4283E+03  0.1144E+04
      6.073  0.4175E+03  0.1166E+04
      6.125  0.3934E+03  0.1186E+04
      6.177  0.3728E+03  0.1206E+04
      6.229  0.3616E+03  0.1225E+04
      6.281  0.3556E+03  0.1243E+04
      6.333  0.3560E+03  0.1261E+04
      6.385  0.3681E+03  0.1281E+04
      6.436  0.3815E+03  0.1300E+04
      6.488  0.3843E+03  0.1320E+04
      6.540  0.3908E+03  0.1340E+04
      6.592  0.4087E+03  0.1362E+04
      6.644  0.4234E+03  0.1384E+04
      6.696  0.4282E+03  0.1406E+04
      6.748  0.4259E+03  0.1428E+04
      6.799  0.4147E+03  0.1449E+04
      6.851  0.3937E+03  0.1470E+04
      6.903  0.3742E+03  0.1489E+04
      6.955  0.3666E+03  0.1508E+04
      7.007  0.3638E+03  0.1527E+04
      7.059  0.3671E+03  0.1546E+04
      7.111  0.3891E+03  0.1566E+04
      7.163  0.4136E+03  0.1588E+04
      7.214  0.4220E+03  0.1610E+04
      7.266  0.4224E+03  0.1632E+04
      7.318  0.4146E+03  0.1653E+04
      7.370  0.3904E+03  0.1673E+04
      7.422  0.3610E+03  0.1692E+04
      7.474  0.3415E+03  0.1710E+04
      7.526  0.3330E+03  0.1727E+04
      7.577  0.3290E+03  0.1744E+04
      7.629  0.3182E+03  0.1761E+04
      7.681  0.2975E+03  0.1776E+04
      7.733  0.2786E+03  0.1791E+04
      7.785  0.2692E+03  0.1805E+04
      7.837  0.2640E+03  0.1818E+04
      7.889  0.2582E+03  0.1832E+04
      7.941  0.2492E+03  0.1845E+04
      7.992  0.2430E+03  0.1857E+04
      8.044  0.2432E+03  0.1870E+04
      8.096  0.2398E+03  0.1882E+04
      8.148  0.2319E+03  0.1894E+04
      8.200  0.2290E+03  0.1906E+04
      8.252  0.2329E+03  0.1918E+04
      8.304  0.2374E+03  0.1930E+04
      8.355  0.2391E+03  0.1943E+04
      8.407  0.2374E+03  0.1955E+04
      8.459  0.2297E+03  0.1967E+04
      8.511  0.2193E+03  0.1978E+04
      8.563  0.2124E+03  0.1989E+04
      8.615  0.2076E+03  0.2000E+04
      8.667  0.2005E+03  0.2011E+04
      8.719  0.1922E+03  0.2021E+04
      8.770  0.1838E+03  0.2030E+04
      8.822  0.1793E+03  0.2039E+04
      8.874  0.1866E+03  0.2049E+04
      8.926  0.2104E+03  0.2060E+04
      8.978  0.2341E+03  0.2072E+04
      9.030  0.2370E+03  0.2084E+04
      9.082  0.2249E+03  0.2096E+04
      9.133  0.2083E+03  0.2107E+04
      9.185  0.1888E+03  0.2117E+04
      9.237  0.1786E+03  0.2126E+04
      9.289  0.1946E+03  0.2136E+04
      9.341  0.2257E+03  0.2148E+04
      9.393  0.2425E+03  0.2160E+04
      9.445  0.2429E+03  0.2173E+04
      9.497  0.2447E+03  0.2186E+04
      9.548  0.2447E+03  0.2198E+04
      9.600  0.2452E+03  0.2211E+04
      9.652  0.2702E+03  0.2225E+04
      9.704  0.3137E+03  0.2241E+04
      9.756  0.3354E+03  0.2259E+04
      9.808  0.3278E+03  0.2276E+04
      9.860  0.3172E+03  0.2292E+04
      9.911  0.3152E+03  0.2309E+04
      9.963  0.3207E+03  0.2325E+04
     10.015  0.3400E+03  0.2343E+04
     10.067  0.3756E+03  0.2362E+04
     10.119  0.4101E+03  0.2384E+04
     10.171  0.4274E+03  0.2406E+04
     10.223  0.4352E+03  0.2428E+04
     10.275  0.4471E+03  0.2452E+04
     10.326  0.4652E+03  0.2476E+04
     10.378  0.4844E+03  0.2501E+04
     10.430  0.4967E+03  0.2527E+04
     10.482  0.4920E+03  0.2552E+04
     10.534  0.4578E+03  0.2576E+04
     10.586  0.3987E+03  0.2596E+04
     10.638  0.3306E+03  0.2614E+04
     10.689  0.2493E+03  0.2627E+04
     10.741  0.1501E+03  0.2634E+04
     10.793  0.5840E+02  0.2637E+04
     10.845  0.6771E+01  0.2638E+04
     10.897 -0.5574E+01  0.2637E+04
     10.949 -0.3117E+01  0.2637E+04
     11.001 -0.7520E+00  0.2637E+04
     11.053 -0.1062E+00  0.2637E+04
     11.104 -0.9889E-02  0.2637E+04
     11.156 -0.6385E-03  0.2637E+04
     11.208 -0.2780E-04  0.2637E+04
     11.260 -0.7678E-06  0.2637E+04
     11.312 -0.1282E-07  0.2637E+04
     11.364 -0.1263E-09  0.2637E+04
     11.416 -0.7630E-12  0.2637E+04
     11.467 -0.1033E-10  0.2637E+04
     11.519 -0.1550E-08  0.2637E+04
     11.571 -0.1340E-06  0.2637E+04
     11.623 -0.6642E-05  0.2637E+04
     11.675 -0.1868E-03  0.2637E+04
     11.727 -0.2924E-02  0.2637E+04
     11.779 -0.2442E-01  0.2637E+04
     11.830 -0.9605E-01  0.2637E+04
     11.882 -0.7445E-01  0.2637E+04
     11.934  0.6287E+00  0.2637E+04
     11.986  0.2041E+01  0.2637E+04
     12.038  0.2480E+01  0.2637E+04
     12.090  0.1276E+01  0.2638E+04
     12.142  0.5121E+00  0.2638E+04
     12.194  0.1526E+01  0.2638E+04
     12.245  0.2955E+01  0.2638E+04
     12.297  0.2988E+01  0.2638E+04
     12.349  0.2137E+01  0.2638E+04
     12.401  0.2005E+01  0.2638E+04
     12.453  0.2218E+01  0.2638E+04
     12.505  0.1802E+01  0.2638E+04
     12.557  0.1806E+01  0.2638E+04
     12.608  0.2656E+01  0.2639E+04
     12.660  0.3481E+01  0.2639E+04
     12.712  0.4061E+01  0.2639E+04
     12.764  0.3571E+01  0.2639E+04
     12.816  0.2287E+01  0.2639E+04
     12.868  0.2106E+01  0.2639E+04
     12.920  0.2470E+01  0.2640E+04
     12.972  0.1849E+01  0.2640E+04
     13.023  0.1043E+01  0.2640E+04
     13.075  0.8283E+00  0.2640E+04
     13.127  0.7428E+00  0.2640E+04
     13.179  0.8918E+00  0.2640E+04
     13.231  0.1305E+01  0.2640E+04
     13.283  0.1310E+01  0.2640E+04
     13.335  0.7303E+00  0.2640E+04
     13.386  0.1432E+00  0.2640E+04
     13.438 -0.5342E-01  0.2640E+04
     13.490 -0.3444E-01  0.2640E+04
     13.542 -0.7312E-02  0.2640E+04
     13.594 -0.7648E-03  0.2640E+04
     13.646 -0.4300E-04  0.2640E+04
     13.698 -0.1345E-05  0.2640E+04
     13.750 -0.2378E-07  0.2640E+04
     13.801 -0.2402E-09  0.2640E+04
     13.853 -0.1394E-11  0.2640E+04
     13.905 -0.4757E-14  0.2640E+04
     13.957  0.0000E+00  0.2640E+04
     14.009  0.0000E+00  0.2640E+04
     14.061  0.0000E+00  0.2640E+04
     14.113  0.0000E+00  0.2640E+04
     14.164  0.0000E+00  0.2640E+04
     14.216  0.0000E+00  0.2640E+04
     14.268  0.0000E+00  0.2640E+04
