<?xml version="1.0" encoding="ISO-8859-1"?>
<modeling>
 <generator>
  <i name="program" type="string">vasp </i>
  <i name="version" type="string">5.4.1  </i>
  <i name="subversion" type="string">24Jun15 (build Feb 03 2017 16:24:58) complex                          parallel </i>
  <i name="platform" type="string">IFC91_ompi </i>
  <i name="date" type="string">2018 06 22 </i>
  <i name="time" type="string">18:59:25 </i>
 </generator>
 <incar>
  <i type="string" name="SYSTEM"> Ir_Ru</i>
  <i type="int" name="ISTART">     0</i>
  <i type="string" name="PREC">accurate</i>
  <i type="string" name="ALGO"> Very_Fast</i>
  <i type="int" name="ICHARG">     2</i>
  <i type="int" name="NELMIN">     5</i>
  <i type="int" name="IBRION">    -1</i>
  <i name="EDIFFG">      0.00001000</i>
  <i type="int" name="ISIF">     2</i>
  <i type="int" name="ISMEAR">    -5</i>
  <i name="SIGMA">      0.10000000</i>
  <v type="int" name="KPOINT_BSE">    -1     0     0     0</v>
 </incar>
 <kpoints>
  <generation param="Gamma">
   <v type="int" name="divisions">       7        7        7 </v>
   <v name="usershift">      0.00000000       0.00000000       0.00000000 </v>
   <v name="genvec1">      0.14285714      -0.00000000       0.00000000 </v>
   <v name="genvec2">      0.00000000       0.14285714      -0.00000000 </v>
   <v name="genvec3">     -0.00000000       0.00000000       0.14285714 </v>
   <v name="shift">      0.00000000       0.00000000       0.00000000 </v>
  </generation>
  <varray name="kpointlist" >
   <v>       0.00000000       0.00000000       0.00000000 </v>
   <v>       0.14285714       0.00000000       0.00000000 </v>
   <v>       0.28571429       0.00000000       0.00000000 </v>
   <v>       0.42857143       0.00000000       0.00000000 </v>
   <v>       0.00000000       0.14285714       0.00000000 </v>
   <v>       0.14285714       0.14285714       0.00000000 </v>
   <v>       0.28571429       0.14285714       0.00000000 </v>
   <v>       0.42857143       0.14285714       0.00000000 </v>
   <v>      -0.42857143       0.14285714       0.00000000 </v>
   <v>      -0.28571429       0.14285714       0.00000000 </v>
   <v>      -0.14285714       0.14285714       0.00000000 </v>
   <v>       0.00000000       0.28571429       0.00000000 </v>
   <v>       0.14285714       0.28571429       0.00000000 </v>
   <v>       0.28571429       0.28571429       0.00000000 </v>
   <v>       0.42857143       0.28571429       0.00000000 </v>
   <v>      -0.42857143       0.28571429      -0.00000000 </v>
   <v>      -0.28571429       0.28571429       0.00000000 </v>
   <v>      -0.14285714       0.28571429      -0.00000000 </v>
   <v>       0.00000000       0.42857143       0.00000000 </v>
   <v>       0.14285714       0.42857143       0.00000000 </v>
   <v>       0.28571429       0.42857143       0.00000000 </v>
   <v>       0.42857143       0.42857143       0.00000000 </v>
   <v>      -0.42857143       0.42857143       0.00000000 </v>
   <v>      -0.28571429       0.42857143       0.00000000 </v>
   <v>      -0.14285714       0.42857143       0.00000000 </v>
   <v>      -0.00000000       0.00000000       0.14285714 </v>
   <v>       0.14285714       0.00000000       0.14285714 </v>
   <v>       0.28571429       0.00000000       0.14285714 </v>
   <v>       0.42857143       0.00000000       0.14285714 </v>
   <v>      -0.42857143      -0.00000000       0.14285714 </v>
   <v>      -0.28571429      -0.00000000       0.14285714 </v>
   <v>      -0.14285714      -0.00000000       0.14285714 </v>
   <v>      -0.00000000       0.14285714       0.14285714 </v>
   <v>       0.14285714       0.14285714       0.14285714 </v>
   <v>       0.28571429       0.14285714       0.14285714 </v>
   <v>       0.42857143       0.14285714       0.14285714 </v>
   <v>      -0.42857143       0.14285714       0.14285714 </v>
   <v>      -0.28571429       0.14285714       0.14285714 </v>
   <v>      -0.14285714       0.14285714       0.14285714 </v>
   <v>       0.00000000       0.28571429       0.14285714 </v>
   <v>       0.14285714       0.28571429       0.14285714 </v>
   <v>       0.28571429       0.28571429       0.14285714 </v>
   <v>       0.42857143       0.28571429       0.14285714 </v>
   <v>      -0.42857143       0.28571429       0.14285714 </v>
   <v>      -0.28571429       0.28571429       0.14285714 </v>
   <v>      -0.14285714       0.28571429       0.14285714 </v>
   <v>       0.00000000       0.42857143       0.14285714 </v>
   <v>       0.14285714       0.42857143       0.14285714 </v>
   <v>       0.28571429       0.42857143       0.14285714 </v>
   <v>       0.42857143       0.42857143       0.14285714 </v>
   <v>      -0.42857143       0.42857143       0.14285714 </v>
   <v>      -0.28571429       0.42857143       0.14285714 </v>
   <v>      -0.14285714       0.42857143       0.14285714 </v>
   <v>      -0.00000000      -0.42857143       0.14285714 </v>
   <v>       0.14285714      -0.42857143       0.14285714 </v>
   <v>       0.28571429      -0.42857143       0.14285714 </v>
   <v>       0.42857143      -0.42857143       0.14285714 </v>
   <v>      -0.42857143      -0.42857143       0.14285714 </v>
   <v>      -0.28571429      -0.42857143       0.14285714 </v>
   <v>      -0.14285714      -0.42857143       0.14285714 </v>
   <v>      -0.00000000      -0.28571429       0.14285714 </v>
   <v>       0.14285714      -0.28571429       0.14285714 </v>
   <v>       0.28571429      -0.28571429       0.14285714 </v>
   <v>       0.42857143      -0.28571429       0.14285714 </v>
   <v>      -0.42857143      -0.28571429       0.14285714 </v>
   <v>      -0.28571429      -0.28571429       0.14285714 </v>
   <v>      -0.14285714      -0.28571429       0.14285714 </v>
   <v>      -0.00000000      -0.14285714       0.14285714 </v>
   <v>       0.14285714      -0.14285714       0.14285714 </v>
   <v>       0.28571429      -0.14285714       0.14285714 </v>
   <v>       0.42857143      -0.14285714       0.14285714 </v>
   <v>      -0.42857143      -0.14285714       0.14285714 </v>
   <v>      -0.28571429      -0.14285714       0.14285714 </v>
   <v>      -0.14285714      -0.14285714       0.14285714 </v>
   <v>      -0.00000000       0.00000000       0.28571429 </v>
   <v>       0.14285714       0.00000000       0.28571429 </v>
   <v>       0.28571429       0.00000000       0.28571429 </v>
   <v>       0.42857143       0.00000000       0.28571429 </v>
   <v>      -0.42857143      -0.00000000       0.28571429 </v>
   <v>      -0.28571429       0.00000000       0.28571429 </v>
   <v>      -0.14285714       0.00000000       0.28571429 </v>
   <v>      -0.00000000       0.14285714       0.28571429 </v>
   <v>       0.14285714       0.14285714       0.28571429 </v>
   <v>       0.28571429       0.14285714       0.28571429 </v>
   <v>       0.42857143       0.14285714       0.28571429 </v>
   <v>      -0.42857143       0.14285714       0.28571429 </v>
   <v>      -0.28571429       0.14285714       0.28571429 </v>
   <v>      -0.14285714       0.14285714       0.28571429 </v>
   <v>       0.00000000       0.28571429       0.28571429 </v>
   <v>       0.14285714       0.28571429       0.28571429 </v>
   <v>       0.28571429       0.28571429       0.28571429 </v>
   <v>       0.42857143       0.28571429       0.28571429 </v>
   <v>      -0.42857143       0.28571429       0.28571429 </v>
   <v>      -0.28571429       0.28571429       0.28571429 </v>
   <v>      -0.14285714       0.28571429       0.28571429 </v>
   <v>       0.00000000       0.42857143       0.28571429 </v>
   <v>       0.14285714       0.42857143       0.28571429 </v>
   <v>       0.28571429       0.42857143       0.28571429 </v>
   <v>       0.42857143       0.42857143       0.28571429 </v>
   <v>      -0.42857143       0.42857143       0.28571429 </v>
   <v>      -0.28571429       0.42857143       0.28571429 </v>
   <v>      -0.14285714       0.42857143       0.28571429 </v>
   <v>      -0.00000000      -0.42857143       0.28571429 </v>
   <v>       0.14285714      -0.42857143       0.28571429 </v>
   <v>       0.28571429      -0.42857143       0.28571429 </v>
   <v>       0.42857143      -0.42857143       0.28571429 </v>
   <v>      -0.42857143      -0.42857143       0.28571429 </v>
   <v>      -0.28571429      -0.42857143       0.28571429 </v>
   <v>      -0.14285714      -0.42857143       0.28571429 </v>
   <v>      -0.00000000      -0.28571429       0.28571429 </v>
   <v>       0.14285714      -0.28571429       0.28571429 </v>
   <v>       0.28571429      -0.28571429       0.28571429 </v>
   <v>       0.42857143      -0.28571429       0.28571429 </v>
   <v>      -0.42857143      -0.28571429       0.28571429 </v>
   <v>      -0.28571429      -0.28571429       0.28571429 </v>
   <v>      -0.14285714      -0.28571429       0.28571429 </v>
   <v>      -0.00000000      -0.14285714       0.28571429 </v>
   <v>       0.14285714      -0.14285714       0.28571429 </v>
   <v>       0.28571429      -0.14285714       0.28571429 </v>
   <v>       0.42857143      -0.14285714       0.28571429 </v>
   <v>      -0.42857143      -0.14285714       0.28571429 </v>
   <v>      -0.28571429      -0.14285714       0.28571429 </v>
   <v>      -0.14285714      -0.14285714       0.28571429 </v>
   <v>      -0.00000000       0.00000000       0.42857143 </v>
   <v>       0.14285714       0.00000000       0.42857143 </v>
   <v>       0.28571429       0.00000000       0.42857143 </v>
   <v>       0.42857143       0.00000000       0.42857143 </v>
   <v>      -0.42857143       0.00000000       0.42857143 </v>
   <v>      -0.28571429       0.00000000       0.42857143 </v>
   <v>      -0.14285714       0.00000000       0.42857143 </v>
   <v>      -0.00000000       0.14285714       0.42857143 </v>
   <v>       0.14285714       0.14285714       0.42857143 </v>
   <v>       0.28571429       0.14285714       0.42857143 </v>
   <v>       0.42857143       0.14285714       0.42857143 </v>
   <v>      -0.42857143       0.14285714       0.42857143 </v>
   <v>      -0.28571429       0.14285714       0.42857143 </v>
   <v>      -0.14285714       0.14285714       0.42857143 </v>
   <v>      -0.00000000       0.28571429       0.42857143 </v>
   <v>       0.14285714       0.28571429       0.42857143 </v>
   <v>       0.28571429       0.28571429       0.42857143 </v>
   <v>       0.42857143       0.28571429       0.42857143 </v>
   <v>      -0.42857143       0.28571429       0.42857143 </v>
   <v>      -0.28571429       0.28571429       0.42857143 </v>
   <v>      -0.14285714       0.28571429       0.42857143 </v>
   <v>       0.00000000       0.42857143       0.42857143 </v>
   <v>       0.14285714       0.42857143       0.42857143 </v>
   <v>       0.28571429       0.42857143       0.42857143 </v>
   <v>       0.42857143       0.42857143       0.42857143 </v>
   <v>      -0.42857143       0.42857143       0.42857143 </v>
   <v>      -0.28571429       0.42857143       0.42857143 </v>
   <v>      -0.14285714       0.42857143       0.42857143 </v>
   <v>      -0.00000000      -0.42857143       0.42857143 </v>
   <v>       0.14285714      -0.42857143       0.42857143 </v>
   <v>       0.28571429      -0.42857143       0.42857143 </v>
   <v>       0.42857143      -0.42857143       0.42857143 </v>
   <v>      -0.42857143      -0.42857143       0.42857143 </v>
   <v>      -0.28571429      -0.42857143       0.42857143 </v>
   <v>      -0.14285714      -0.42857143       0.42857143 </v>
   <v>      -0.00000000      -0.28571429       0.42857143 </v>
   <v>       0.14285714      -0.28571429       0.42857143 </v>
   <v>       0.28571429      -0.28571429       0.42857143 </v>
   <v>       0.42857143      -0.28571429       0.42857143 </v>
   <v>      -0.42857143      -0.28571429       0.42857143 </v>
   <v>      -0.28571429      -0.28571429       0.42857143 </v>
   <v>      -0.14285714      -0.28571429       0.42857143 </v>
   <v>      -0.00000000      -0.14285714       0.42857143 </v>
   <v>       0.14285714      -0.14285714       0.42857143 </v>
   <v>       0.28571429      -0.14285714       0.42857143 </v>
   <v>       0.42857143      -0.14285714       0.42857143 </v>
   <v>      -0.42857143      -0.14285714       0.42857143 </v>
   <v>      -0.28571429      -0.14285714       0.42857143 </v>
   <v>      -0.14285714      -0.14285714       0.42857143 </v>
  </varray>
  <varray name="weights" >
   <v>       0.00291545 </v>
   <v>       0.00583090 </v>
   <v>       0.00583090 </v>
   <v>       0.00583090 </v>
   <v>       0.00583090 </v>
   <v>       0.00583090 </v>
   <v>       0.00583090 </v>
   <v>       0.00583090 </v>
   <v>       0.00583090 </v>
   <v>       0.00583090 </v>
   <v>       0.00583090 </v>
   <v>       0.00583090 </v>
   <v>       0.00583090 </v>
   <v>       0.00583090 </v>
   <v>       0.00583090 </v>
   <v>       0.00583090 </v>
   <v>       0.00583090 </v>
   <v>       0.00583090 </v>
   <v>       0.00583090 </v>
   <v>       0.00583090 </v>
   <v>       0.00583090 </v>
   <v>       0.00583090 </v>
   <v>       0.00583090 </v>
   <v>       0.00583090 </v>
   <v>       0.00583090 </v>
   <v>       0.00583090 </v>
   <v>       0.00583090 </v>
   <v>       0.00583090 </v>
   <v>       0.00583090 </v>
   <v>       0.00583090 </v>
   <v>       0.00583090 </v>
   <v>       0.00583090 </v>
   <v>       0.00583090 </v>
   <v>       0.00583090 </v>
   <v>       0.00583090 </v>
   <v>       0.00583090 </v>
   <v>       0.00583090 </v>
   <v>       0.00583090 </v>
   <v>       0.00583090 </v>
   <v>       0.00583090 </v>
   <v>       0.00583090 </v>
   <v>       0.00583090 </v>
   <v>       0.00583090 </v>
   <v>       0.00583090 </v>
   <v>       0.00583090 </v>
   <v>       0.00583090 </v>
   <v>       0.00583090 </v>
   <v>       0.00583090 </v>
   <v>       0.00583090 </v>
   <v>       0.00583090 </v>
   <v>       0.00583090 </v>
   <v>       0.00583090 </v>
   <v>       0.00583090 </v>
   <v>       0.00583090 </v>
   <v>       0.00583090 </v>
   <v>       0.00583090 </v>
   <v>       0.00583090 </v>
   <v>       0.00583090 </v>
   <v>       0.00583090 </v>
   <v>       0.00583090 </v>
   <v>       0.00583090 </v>
   <v>       0.00583090 </v>
   <v>       0.00583090 </v>
   <v>       0.00583090 </v>
   <v>       0.00583090 </v>
   <v>       0.00583090 </v>
   <v>       0.00583090 </v>
   <v>       0.00583090 </v>
   <v>       0.00583090 </v>
   <v>       0.00583090 </v>
   <v>       0.00583090 </v>
   <v>       0.00583090 </v>
   <v>       0.00583090 </v>
   <v>       0.00583090 </v>
   <v>       0.00583090 </v>
   <v>       0.00583090 </v>
   <v>       0.00583090 </v>
   <v>       0.00583090 </v>
   <v>       0.00583090 </v>
   <v>       0.00583090 </v>
   <v>       0.00583090 </v>
   <v>       0.00583090 </v>
   <v>       0.00583090 </v>
   <v>       0.00583090 </v>
   <v>       0.00583090 </v>
   <v>       0.00583090 </v>
   <v>       0.00583090 </v>
   <v>       0.00583090 </v>
   <v>       0.00583090 </v>
   <v>       0.00583090 </v>
   <v>       0.00583090 </v>
   <v>       0.00583090 </v>
   <v>       0.00583090 </v>
   <v>       0.00583090 </v>
   <v>       0.00583090 </v>
   <v>       0.00583090 </v>
   <v>       0.00583090 </v>
   <v>       0.00583090 </v>
   <v>       0.00583090 </v>
   <v>       0.00583090 </v>
   <v>       0.00583090 </v>
   <v>       0.00583090 </v>
   <v>       0.00583090 </v>
   <v>       0.00583090 </v>
   <v>       0.00583090 </v>
   <v>       0.00583090 </v>
   <v>       0.00583090 </v>
   <v>       0.00583090 </v>
   <v>       0.00583090 </v>
   <v>       0.00583090 </v>
   <v>       0.00583090 </v>
   <v>       0.00583090 </v>
   <v>       0.00583090 </v>
   <v>       0.00583090 </v>
   <v>       0.00583090 </v>
   <v>       0.00583090 </v>
   <v>       0.00583090 </v>
   <v>       0.00583090 </v>
   <v>       0.00583090 </v>
   <v>       0.00583090 </v>
   <v>       0.00583090 </v>
   <v>       0.00583090 </v>
   <v>       0.00583090 </v>
   <v>       0.00583090 </v>
   <v>       0.00583090 </v>
   <v>       0.00583090 </v>
   <v>       0.00583090 </v>
   <v>       0.00583090 </v>
   <v>       0.00583090 </v>
   <v>       0.00583090 </v>
   <v>       0.00583090 </v>
   <v>       0.00583090 </v>
   <v>       0.00583090 </v>
   <v>       0.00583090 </v>
   <v>       0.00583090 </v>
   <v>       0.00583090 </v>
   <v>       0.00583090 </v>
   <v>       0.00583090 </v>
   <v>       0.00583090 </v>
   <v>       0.00583090 </v>
   <v>       0.00583090 </v>
   <v>       0.00583090 </v>
   <v>       0.00583090 </v>
   <v>       0.00583090 </v>
   <v>       0.00583090 </v>
   <v>       0.00583090 </v>
   <v>       0.00583090 </v>
   <v>       0.00583090 </v>
   <v>       0.00583090 </v>
   <v>       0.00583090 </v>
   <v>       0.00583090 </v>
   <v>       0.00583090 </v>
   <v>       0.00583090 </v>
   <v>       0.00583090 </v>
   <v>       0.00583090 </v>
   <v>       0.00583090 </v>
   <v>       0.00583090 </v>
   <v>       0.00583090 </v>
   <v>       0.00583090 </v>
   <v>       0.00583090 </v>
   <v>       0.00583090 </v>
   <v>       0.00583090 </v>
   <v>       0.00583090 </v>
   <v>       0.00583090 </v>
   <v>       0.00583090 </v>
   <v>       0.00583090 </v>
   <v>       0.00583090 </v>
   <v>       0.00583090 </v>
   <v>       0.00583090 </v>
   <v>       0.00583090 </v>
   <v>       0.00583090 </v>
   <v>       0.00583090 </v>
  </varray>
  <varray name="tetrahedronlist"  type="int" >
   <v type="int" >        2        1        2        6       26 </v>
   <v type="int" >        2        1        5        6       26 </v>
   <v type="int" >        2        5        6       26       33 </v>
   <v type="int" >        2        2        6       26       27 </v>
   <v type="int" >        2        6       26       27       34 </v>
   <v type="int" >        2        6       26       33       34 </v>
   <v type="int" >        2        2        3        7       27 </v>
   <v type="int" >        2        2        6        7       27 </v>
   <v type="int" >        2        6        7       27       34 </v>
   <v type="int" >        2        3        7       27       28 </v>
   <v type="int" >        2        7       27       28       35 </v>
   <v type="int" >        2        7       27       34       35 </v>
   <v type="int" >        2        3        4        8       28 </v>
   <v type="int" >        2        3        7        8       28 </v>
   <v type="int" >        2        7        8       28       35 </v>
   <v type="int" >        2        4        8       28       29 </v>
   <v type="int" >        2        8       28       29       36 </v>
   <v type="int" >        2        8       28       35       36 </v>
   <v type="int" >        2        4        4        9       29 </v>
   <v type="int" >        2        4        8        9       29 </v>
   <v type="int" >        2        8        9       29       36 </v>
   <v type="int" >        2        4        9       29       30 </v>
   <v type="int" >        2        9       29       30       37 </v>
   <v type="int" >        2        9       29       36       37 </v>
   <v type="int" >        2        3        4       10       30 </v>
   <v type="int" >        2        4        9       10       30 </v>
   <v type="int" >        2        9       10       30       37 </v>
   <v type="int" >        2        3       10       30       31 </v>
   <v type="int" >        2       10       30       31       38 </v>
   <v type="int" >        2       10       30       37       38 </v>
   <v type="int" >        2        2        3       11       31 </v>
   <v type="int" >        2        3       10       11       31 </v>
   <v type="int" >        2       10       11       31       38 </v>
   <v type="int" >        2        2       11       31       32 </v>
   <v type="int" >        2       11       31       32       39 </v>
   <v type="int" >        2       11       31       38       39 </v>
   <v type="int" >        2        1        2        5       32 </v>
   <v type="int" >        2        2        5       11       32 </v>
   <v type="int" >        2        5       11       32       39 </v>
   <v type="int" >        2        1        5       26       32 </v>
   <v type="int" >        2        5       26       32       33 </v>
   <v type="int" >        2        5       32       33       39 </v>
   <v type="int" >        2        5        6       13       33 </v>
   <v type="int" >        2        5       12       13       33 </v>
   <v type="int" >        2       12       13       33       40 </v>
   <v type="int" >        2        6       13       33       34 </v>
   <v type="int" >        2       13       33       34       41 </v>
   <v type="int" >        2       13       33       40       41 </v>
   <v type="int" >        2        6        7       14       34 </v>
   <v type="int" >        2        6       13       14       34 </v>
   <v type="int" >        2       13       14       34       41 </v>
   <v type="int" >        2        7       14       34       35 </v>
   <v type="int" >        2       14       34       35       42 </v>
   <v type="int" >        2       14       34       41       42 </v>
   <v type="int" >        2        7        8       15       35 </v>
   <v type="int" >        2        7       14       15       35 </v>
   <v type="int" >        2       14       15       35       42 </v>
   <v type="int" >        2        8       15       35       36 </v>
   <v type="int" >        2       15       35       36       43 </v>
   <v type="int" >        2       15       35       42       43 </v>
   <v type="int" >        2        8        9       16       36 </v>
   <v type="int" >        2        8       15       16       36 </v>
   <v type="int" >        2       15       16       36       43 </v>
   <v type="int" >        2        9       16       36       37 </v>
   <v type="int" >        2       16       36       37       44 </v>
   <v type="int" >        2       16       36       43       44 </v>
   <v type="int" >        2        9       10       17       37 </v>
   <v type="int" >        2        9       16       17       37 </v>
   <v type="int" >        2       16       17       37       44 </v>
   <v type="int" >        2       10       17       37       38 </v>
   <v type="int" >        2       17       37       38       45 </v>
   <v type="int" >        2       17       37       44       45 </v>
   <v type="int" >        2       10       11       18       38 </v>
   <v type="int" >        2       10       17       18       38 </v>
   <v type="int" >        2       17       18       38       45 </v>
   <v type="int" >        2       11       18       38       39 </v>
   <v type="int" >        2       18       38       39       46 </v>
   <v type="int" >        2       18       38       45       46 </v>
   <v type="int" >        2        5       11       12       39 </v>
   <v type="int" >        2       11       12       18       39 </v>
   <v type="int" >        2       12       18       39       46 </v>
   <v type="int" >        2        5       12       33       39 </v>
   <v type="int" >        2       12       33       39       40 </v>
   <v type="int" >        2       12       39       40       46 </v>
   <v type="int" >        2       12       13       20       40 </v>
   <v type="int" >        2       12       19       20       40 </v>
   <v type="int" >        2       19       20       40       47 </v>
   <v type="int" >        2       13       20       40       41 </v>
   <v type="int" >        2       20       40       41       48 </v>
   <v type="int" >        2       20       40       47       48 </v>
   <v type="int" >        2       13       14       21       41 </v>
   <v type="int" >        2       13       20       21       41 </v>
   <v type="int" >        2       20       21       41       48 </v>
   <v type="int" >        2       14       21       41       42 </v>
   <v type="int" >        2       21       41       42       49 </v>
   <v type="int" >        2       21       41       48       49 </v>
   <v type="int" >        2       14       15       22       42 </v>
   <v type="int" >        2       14       21       22       42 </v>
   <v type="int" >        2       21       22       42       49 </v>
   <v type="int" >        2       15       22       42       43 </v>
   <v type="int" >        2       22       42       43       50 </v>
   <v type="int" >        2       22       42       49       50 </v>
   <v type="int" >        2       15       16       23       43 </v>
   <v type="int" >        2       15       22       23       43 </v>
   <v type="int" >        2       22       23       43       50 </v>
   <v type="int" >        2       16       23       43       44 </v>
   <v type="int" >        2       23       43       44       51 </v>
   <v type="int" >        2       23       43       50       51 </v>
   <v type="int" >        2       16       17       24       44 </v>
   <v type="int" >        2       16       23       24       44 </v>
   <v type="int" >        2       23       24       44       51 </v>
   <v type="int" >        2       17       24       44       45 </v>
   <v type="int" >        2       24       44       45       52 </v>
   <v type="int" >        2       24       44       51       52 </v>
   <v type="int" >        2       17       18       25       45 </v>
   <v type="int" >        2       17       24       25       45 </v>
   <v type="int" >        2       24       25       45       52 </v>
   <v type="int" >        2       18       25       45       46 </v>
   <v type="int" >        2       25       45       46       53 </v>
   <v type="int" >        2       25       45       52       53 </v>
   <v type="int" >        2       12       18       19       46 </v>
   <v type="int" >        2       18       19       25       46 </v>
   <v type="int" >        2       19       25       46       53 </v>
   <v type="int" >        2       12       19       40       46 </v>
   <v type="int" >        2       19       40       46       47 </v>
   <v type="int" >        2       19       46       47       53 </v>
   <v type="int" >        2       19       20       25       47 </v>
   <v type="int" >        2       19       19       25       47 </v>
   <v type="int" >        2       19       25       47       54 </v>
   <v type="int" >        2       20       25       47       48 </v>
   <v type="int" >        2       25       47       48       55 </v>
   <v type="int" >        2       25       47       54       55 </v>
   <v type="int" >        2       20       21       24       48 </v>
   <v type="int" >        2       20       24       25       48 </v>
   <v type="int" >        2       24       25       48       55 </v>
   <v type="int" >        2       21       24       48       49 </v>
   <v type="int" >        2       24       48       49       56 </v>
   <v type="int" >        2       24       48       55       56 </v>
   <v type="int" >        2       21       22       23       49 </v>
   <v type="int" >        2       21       23       24       49 </v>
   <v type="int" >        2       23       24       49       56 </v>
   <v type="int" >        2       22       23       49       50 </v>
   <v type="int" >        2       23       49       50       57 </v>
   <v type="int" >        2       23       49       56       57 </v>
   <v type="int" >        4       22       22       23       50 </v>
   <v type="int" >        2       22       23       50       57 </v>
   <v type="int" >        2       22       23       50       51 </v>
   <v type="int" >        2       22       50       51       58 </v>
   <v type="int" >        2       22       50       57       58 </v>
   <v type="int" >        2       21       23       24       51 </v>
   <v type="int" >        2       21       22       23       51 </v>
   <v type="int" >        2       21       22       51       58 </v>
   <v type="int" >        2       21       24       51       52 </v>
   <v type="int" >        2       21       51       52       59 </v>
   <v type="int" >        2       21       51       58       59 </v>
   <v type="int" >        2       20       24       25       52 </v>
   <v type="int" >        2       20       21       24       52 </v>
   <v type="int" >        2       20       21       52       59 </v>
   <v type="int" >        2       20       25       52       53 </v>
   <v type="int" >        2       20       52       53       60 </v>
   <v type="int" >        2       20       52       59       60 </v>
   <v type="int" >        2       19       19       25       53 </v>
   <v type="int" >        2       19       20       25       53 </v>
   <v type="int" >        2       19       20       53       60 </v>
   <v type="int" >        2       19       19       47       53 </v>
   <v type="int" >        2       19       47       53       54 </v>
   <v type="int" >        2       19       53       54       60 </v>
   <v type="int" >        2       18       19       25       54 </v>
   <v type="int" >        2       12       18       19       54 </v>
   <v type="int" >        2       12       18       54       61 </v>
   <v type="int" >        2       18       25       54       55 </v>
   <v type="int" >        2       18       54       55       62 </v>
   <v type="int" >        2       18       54       61       62 </v>
   <v type="int" >        2       17       24       25       55 </v>
   <v type="int" >        2       17       18       25       55 </v>
   <v type="int" >        2       17       18       55       62 </v>
   <v type="int" >        2       17       24       55       56 </v>
   <v type="int" >        2       17       55       56       63 </v>
   <v type="int" >        2       17       55       62       63 </v>
   <v type="int" >        2       16       23       24       56 </v>
   <v type="int" >        2       16       17       24       56 </v>
   <v type="int" >        2       16       17       56       63 </v>
   <v type="int" >        2       16       23       56       57 </v>
   <v type="int" >        2       16       56       57       64 </v>
   <v type="int" >        2       16       56       63       64 </v>
   <v type="int" >        2       15       22       23       57 </v>
   <v type="int" >        2       15       16       23       57 </v>
   <v type="int" >        2       15       16       57       64 </v>
   <v type="int" >        2       15       22       57       58 </v>
   <v type="int" >        2       15       57       58       65 </v>
   <v type="int" >        2       15       57       64       65 </v>
   <v type="int" >        2       14       21       22       58 </v>
   <v type="int" >        2       14       15       22       58 </v>
   <v type="int" >        2       14       15       58       65 </v>
   <v type="int" >        2       14       21       58       59 </v>
   <v type="int" >        2       14       58       59       66 </v>
   <v type="int" >        2       14       58       65       66 </v>
   <v type="int" >        2       13       20       21       59 </v>
   <v type="int" >        2       13       14       21       59 </v>
   <v type="int" >        2       13       14       59       66 </v>
   <v type="int" >        2       13       20       59       60 </v>
   <v type="int" >        2       13       59       60       67 </v>
   <v type="int" >        2       13       59       66       67 </v>
   <v type="int" >        2       12       19       20       60 </v>
   <v type="int" >        2       12       13       20       60 </v>
   <v type="int" >        2       12       13       60       67 </v>
   <v type="int" >        2       12       19       54       60 </v>
   <v type="int" >        2       12       54       60       61 </v>
   <v type="int" >        2       12       60       61       67 </v>
   <v type="int" >        2       11       12       18       61 </v>
   <v type="int" >        2        5       11       12       61 </v>
   <v type="int" >        2        5       11       61       68 </v>
   <v type="int" >        2       11       18       61       62 </v>
   <v type="int" >        2       11       61       62       69 </v>
   <v type="int" >        2       11       61       68       69 </v>
   <v type="int" >        2       10       17       18       62 </v>
   <v type="int" >        2       10       11       18       62 </v>
   <v type="int" >        2       10       11       62       69 </v>
   <v type="int" >        2       10       17       62       63 </v>
   <v type="int" >        2       10       62       63       70 </v>
   <v type="int" >        2       10       62       69       70 </v>
   <v type="int" >        2        9       16       17       63 </v>
   <v type="int" >        2        9       10       17       63 </v>
   <v type="int" >        2        9       10       63       70 </v>
   <v type="int" >        2        9       16       63       64 </v>
   <v type="int" >        2        9       63       64       71 </v>
   <v type="int" >        2        9       63       70       71 </v>
   <v type="int" >        2        8       15       16       64 </v>
   <v type="int" >        2        8        9       16       64 </v>
   <v type="int" >        2        8        9       64       71 </v>
   <v type="int" >        2        8       15       64       65 </v>
   <v type="int" >        2        8       64       65       72 </v>
   <v type="int" >        2        8       64       71       72 </v>
   <v type="int" >        2        7       14       15       65 </v>
   <v type="int" >        2        7        8       15       65 </v>
   <v type="int" >        2        7        8       65       72 </v>
   <v type="int" >        2        7       14       65       66 </v>
   <v type="int" >        2        7       65       66       73 </v>
   <v type="int" >        2        7       65       72       73 </v>
   <v type="int" >        2        6       13       14       66 </v>
   <v type="int" >        2        6        7       14       66 </v>
   <v type="int" >        2        6        7       66       73 </v>
   <v type="int" >        2        6       13       66       67 </v>
   <v type="int" >        2        6       66       67       74 </v>
   <v type="int" >        2        6       66       73       74 </v>
   <v type="int" >        2        5       12       13       67 </v>
   <v type="int" >        2        5        6       13       67 </v>
   <v type="int" >        2        5        6       67       74 </v>
   <v type="int" >        2        5       12       61       67 </v>
   <v type="int" >        2        5       61       67       68 </v>
   <v type="int" >        2        5       67       68       74 </v>
   <v type="int" >        2        2        5       11       68 </v>
   <v type="int" >        2        1        2        5       68 </v>
   <v type="int" >        2        1        2       26       68 </v>
   <v type="int" >        2        2       11       68       69 </v>
   <v type="int" >        2        2       27       68       69 </v>
   <v type="int" >        2        2       26       27       68 </v>
   <v type="int" >        2        3       10       11       69 </v>
   <v type="int" >        2        2        3       11       69 </v>
   <v type="int" >        2        2        3       27       69 </v>
   <v type="int" >        2        3       10       69       70 </v>
   <v type="int" >        2        3       28       69       70 </v>
   <v type="int" >        2        3       27       28       69 </v>
   <v type="int" >        2        4        9       10       70 </v>
   <v type="int" >        2        3        4       10       70 </v>
   <v type="int" >        2        3        4       28       70 </v>
   <v type="int" >        2        4        9       70       71 </v>
   <v type="int" >        2        4       29       70       71 </v>
   <v type="int" >        2        4       28       29       70 </v>
   <v type="int" >        2        4        8        9       71 </v>
   <v type="int" >        2        4        4        9       71 </v>
   <v type="int" >        2        4        4       29       71 </v>
   <v type="int" >        2        4        8       71       72 </v>
   <v type="int" >        2        4       30       71       72 </v>
   <v type="int" >        2        4       29       30       71 </v>
   <v type="int" >        2        3        7        8       72 </v>
   <v type="int" >        2        3        4        8       72 </v>
   <v type="int" >        2        3        4       30       72 </v>
   <v type="int" >        2        3        7       72       73 </v>
   <v type="int" >        2        3       31       72       73 </v>
   <v type="int" >        2        3       30       31       72 </v>
   <v type="int" >        2        2        6        7       73 </v>
   <v type="int" >        2        2        3        7       73 </v>
   <v type="int" >        2        2        3       31       73 </v>
   <v type="int" >        2        2        6       73       74 </v>
   <v type="int" >        2        2       32       73       74 </v>
   <v type="int" >        2        2       31       32       73 </v>
   <v type="int" >        2        1        5        6       74 </v>
   <v type="int" >        2        1        2        6       74 </v>
   <v type="int" >        2        1        2       32       74 </v>
   <v type="int" >        2        1        5       68       74 </v>
   <v type="int" >        2        1       26       68       74 </v>
   <v type="int" >        2        1       26       32       74 </v>
   <v type="int" >        2       26       27       34       75 </v>
   <v type="int" >        2       26       33       34       75 </v>
   <v type="int" >        2       33       34       75       82 </v>
   <v type="int" >        2       27       34       75       76 </v>
   <v type="int" >        2       34       75       76       83 </v>
   <v type="int" >        2       34       75       82       83 </v>
   <v type="int" >        2       27       28       35       76 </v>
   <v type="int" >        2       27       34       35       76 </v>
   <v type="int" >        2       34       35       76       83 </v>
   <v type="int" >        2       28       35       76       77 </v>
   <v type="int" >        2       35       76       77       84 </v>
   <v type="int" >        2       35       76       83       84 </v>
   <v type="int" >        2       28       29       36       77 </v>
   <v type="int" >        2       28       35       36       77 </v>
   <v type="int" >        2       35       36       77       84 </v>
   <v type="int" >        2       29       36       77       78 </v>
   <v type="int" >        2       36       77       78       85 </v>
   <v type="int" >        2       36       77       84       85 </v>
   <v type="int" >        2       29       30       37       78 </v>
   <v type="int" >        2       29       36       37       78 </v>
   <v type="int" >        2       36       37       78       85 </v>
   <v type="int" >        2       30       37       78       79 </v>
   <v type="int" >        2       37       78       79       86 </v>
   <v type="int" >        2       37       78       85       86 </v>
   <v type="int" >        2       30       31       38       79 </v>
   <v type="int" >        2       30       37       38       79 </v>
   <v type="int" >        2       37       38       79       86 </v>
   <v type="int" >        2       31       38       79       80 </v>
   <v type="int" >        2       38       79       80       87 </v>
   <v type="int" >        2       38       79       86       87 </v>
   <v type="int" >        2       31       32       39       80 </v>
   <v type="int" >        2       31       38       39       80 </v>
   <v type="int" >        2       38       39       80       87 </v>
   <v type="int" >        2       32       39       80       81 </v>
   <v type="int" >        2       39       80       81       88 </v>
   <v type="int" >        2       39       80       87       88 </v>
   <v type="int" >        2       26       32       33       81 </v>
   <v type="int" >        2       32       33       39       81 </v>
   <v type="int" >        2       33       39       81       88 </v>
   <v type="int" >        2       26       33       75       81 </v>
   <v type="int" >        2       33       75       81       82 </v>
   <v type="int" >        2       33       81       82       88 </v>
   <v type="int" >        2       33       34       41       82 </v>
   <v type="int" >        2       33       40       41       82 </v>
   <v type="int" >        2       40       41       82       89 </v>
   <v type="int" >        2       34       41       82       83 </v>
   <v type="int" >        2       41       82       83       90 </v>
   <v type="int" >        2       41       82       89       90 </v>
   <v type="int" >        2       34       35       42       83 </v>
   <v type="int" >        2       34       41       42       83 </v>
   <v type="int" >        2       41       42       83       90 </v>
   <v type="int" >        2       35       42       83       84 </v>
   <v type="int" >        2       42       83       84       91 </v>
   <v type="int" >        2       42       83       90       91 </v>
   <v type="int" >        2       35       36       43       84 </v>
   <v type="int" >        2       35       42       43       84 </v>
   <v type="int" >        2       42       43       84       91 </v>
   <v type="int" >        2       36       43       84       85 </v>
   <v type="int" >        2       43       84       85       92 </v>
   <v type="int" >        2       43       84       91       92 </v>
   <v type="int" >        2       36       37       44       85 </v>
   <v type="int" >        2       36       43       44       85 </v>
   <v type="int" >        2       43       44       85       92 </v>
   <v type="int" >        2       37       44       85       86 </v>
   <v type="int" >        2       44       85       86       93 </v>
   <v type="int" >        2       44       85       92       93 </v>
   <v type="int" >        2       37       38       45       86 </v>
   <v type="int" >        2       37       44       45       86 </v>
   <v type="int" >        2       44       45       86       93 </v>
   <v type="int" >        2       38       45       86       87 </v>
   <v type="int" >        2       45       86       87       94 </v>
   <v type="int" >        2       45       86       93       94 </v>
   <v type="int" >        2       38       39       46       87 </v>
   <v type="int" >        2       38       45       46       87 </v>
   <v type="int" >        2       45       46       87       94 </v>
   <v type="int" >        2       39       46       87       88 </v>
   <v type="int" >        2       46       87       88       95 </v>
   <v type="int" >        2       46       87       94       95 </v>
   <v type="int" >        2       33       39       40       88 </v>
   <v type="int" >        2       39       40       46       88 </v>
   <v type="int" >        2       40       46       88       95 </v>
   <v type="int" >        2       33       40       82       88 </v>
   <v type="int" >        2       40       82       88       89 </v>
   <v type="int" >        2       40       88       89       95 </v>
   <v type="int" >        2       40       41       48       89 </v>
   <v type="int" >        2       40       47       48       89 </v>
   <v type="int" >        2       47       48       89       96 </v>
   <v type="int" >        2       41       48       89       90 </v>
   <v type="int" >        2       48       89       90       97 </v>
   <v type="int" >        2       48       89       96       97 </v>
   <v type="int" >        2       41       42       49       90 </v>
   <v type="int" >        2       41       48       49       90 </v>
   <v type="int" >        2       48       49       90       97 </v>
   <v type="int" >        2       42       49       90       91 </v>
   <v type="int" >        2       49       90       91       98 </v>
   <v type="int" >        2       49       90       97       98 </v>
   <v type="int" >        2       42       43       50       91 </v>
   <v type="int" >        2       42       49       50       91 </v>
   <v type="int" >        2       49       50       91       98 </v>
   <v type="int" >        2       43       50       91       92 </v>
   <v type="int" >        2       50       91       92       99 </v>
   <v type="int" >        2       50       91       98       99 </v>
   <v type="int" >        2       43       44       51       92 </v>
   <v type="int" >        2       43       50       51       92 </v>
   <v type="int" >        2       50       51       92       99 </v>
   <v type="int" >        2       44       51       92       93 </v>
   <v type="int" >        2       51       92       93      100 </v>
   <v type="int" >        2       51       92       99      100 </v>
   <v type="int" >        2       44       45       52       93 </v>
   <v type="int" >        2       44       51       52       93 </v>
   <v type="int" >        2       51       52       93      100 </v>
   <v type="int" >        2       45       52       93       94 </v>
   <v type="int" >        2       52       93       94      101 </v>
   <v type="int" >        2       52       93      100      101 </v>
   <v type="int" >        2       45       46       53       94 </v>
   <v type="int" >        2       45       52       53       94 </v>
   <v type="int" >        2       52       53       94      101 </v>
   <v type="int" >        2       46       53       94       95 </v>
   <v type="int" >        2       53       94       95      102 </v>
   <v type="int" >        2       53       94      101      102 </v>
   <v type="int" >        2       40       46       47       95 </v>
   <v type="int" >        2       46       47       53       95 </v>
   <v type="int" >        2       47       53       95      102 </v>
   <v type="int" >        2       40       47       89       95 </v>
   <v type="int" >        2       47       89       95       96 </v>
   <v type="int" >        2       47       95       96      102 </v>
   <v type="int" >        2       47       48       55       96 </v>
   <v type="int" >        2       47       54       55       96 </v>
   <v type="int" >        2       54       55       96      103 </v>
   <v type="int" >        2       48       55       96       97 </v>
   <v type="int" >        2       55       96       97      104 </v>
   <v type="int" >        2       55       96      103      104 </v>
   <v type="int" >        2       48       49       56       97 </v>
   <v type="int" >        2       48       55       56       97 </v>
   <v type="int" >        2       55       56       97      104 </v>
   <v type="int" >        2       49       56       97       98 </v>
   <v type="int" >        2       56       97       98      105 </v>
   <v type="int" >        2       56       97      104      105 </v>
   <v type="int" >        2       49       50       57       98 </v>
   <v type="int" >        2       49       56       57       98 </v>
   <v type="int" >        2       56       57       98      105 </v>
   <v type="int" >        2       50       57       98       99 </v>
   <v type="int" >        2       57       98       99      106 </v>
   <v type="int" >        2       57       98      105      106 </v>
   <v type="int" >        2       50       51       58       99 </v>
   <v type="int" >        2       50       57       58       99 </v>
   <v type="int" >        2       57       58       99      106 </v>
   <v type="int" >        2       51       58       99      100 </v>
   <v type="int" >        2       58       99      100      107 </v>
   <v type="int" >        2       58       99      106      107 </v>
   <v type="int" >        2       51       52       59      100 </v>
   <v type="int" >        2       51       58       59      100 </v>
   <v type="int" >        2       58       59      100      107 </v>
   <v type="int" >        2       52       59      100      101 </v>
   <v type="int" >        2       59      100      101      108 </v>
   <v type="int" >        2       59      100      107      108 </v>
   <v type="int" >        2       52       53       60      101 </v>
   <v type="int" >        2       52       59       60      101 </v>
   <v type="int" >        2       59       60      101      108 </v>
   <v type="int" >        2       53       60      101      102 </v>
   <v type="int" >        2       60      101      102      109 </v>
   <v type="int" >        2       60      101      108      109 </v>
   <v type="int" >        2       47       53       54      102 </v>
   <v type="int" >        2       53       54       60      102 </v>
   <v type="int" >        2       54       60      102      109 </v>
   <v type="int" >        2       47       54       96      102 </v>
   <v type="int" >        2       54       96      102      103 </v>
   <v type="int" >        2       54      102      103      109 </v>
   <v type="int" >        2       54       55       62      103 </v>
   <v type="int" >        2       54       61       62      103 </v>
   <v type="int" >        2       61       62      103      110 </v>
   <v type="int" >        2       55       62      103      104 </v>
   <v type="int" >        2       62      103      104      111 </v>
   <v type="int" >        2       62      103      110      111 </v>
   <v type="int" >        2       55       56       63      104 </v>
   <v type="int" >        2       55       62       63      104 </v>
   <v type="int" >        2       62       63      104      111 </v>
   <v type="int" >        2       56       63      104      105 </v>
   <v type="int" >        2       63      104      105      112 </v>
   <v type="int" >        2       63      104      111      112 </v>
   <v type="int" >        2       56       57       64      105 </v>
   <v type="int" >        2       56       63       64      105 </v>
   <v type="int" >        2       63       64      105      112 </v>
   <v type="int" >        2       57       64      105      106 </v>
   <v type="int" >        2       64      105      106      113 </v>
   <v type="int" >        2       64      105      112      113 </v>
   <v type="int" >        2       57       58       65      106 </v>
   <v type="int" >        2       57       64       65      106 </v>
   <v type="int" >        2       64       65      106      113 </v>
   <v type="int" >        2       58       65      106      107 </v>
   <v type="int" >        2       65      106      107      114 </v>
   <v type="int" >        2       65      106      113      114 </v>
   <v type="int" >        2       58       59       66      107 </v>
   <v type="int" >        2       58       65       66      107 </v>
   <v type="int" >        2       65       66      107      114 </v>
   <v type="int" >        2       59       66      107      108 </v>
   <v type="int" >        2       66      107      108      115 </v>
   <v type="int" >        2       66      107      114      115 </v>
   <v type="int" >        2       59       60       67      108 </v>
   <v type="int" >        2       59       66       67      108 </v>
   <v type="int" >        2       66       67      108      115 </v>
   <v type="int" >        2       60       67      108      109 </v>
   <v type="int" >        2       67      108      109      116 </v>
   <v type="int" >        2       67      108      115      116 </v>
   <v type="int" >        2       54       60       61      109 </v>
   <v type="int" >        2       60       61       67      109 </v>
   <v type="int" >        2       61       67      109      116 </v>
   <v type="int" >        2       54       61      103      109 </v>
   <v type="int" >        2       61      103      109      110 </v>
   <v type="int" >        2       61      109      110      116 </v>
   <v type="int" >        2       61       62       69      110 </v>
   <v type="int" >        2       61       68       69      110 </v>
   <v type="int" >        2       68       69      110      117 </v>
   <v type="int" >        2       62       69      110      111 </v>
   <v type="int" >        2       69      110      111      118 </v>
   <v type="int" >        2       69      110      117      118 </v>
   <v type="int" >        2       62       63       70      111 </v>
   <v type="int" >        2       62       69       70      111 </v>
   <v type="int" >        2       69       70      111      118 </v>
   <v type="int" >        2       63       70      111      112 </v>
   <v type="int" >        2       70      111      112      119 </v>
   <v type="int" >        2       70      111      118      119 </v>
   <v type="int" >        2       63       64       71      112 </v>
   <v type="int" >        2       63       70       71      112 </v>
   <v type="int" >        2       70       71      112      119 </v>
   <v type="int" >        2       64       71      112      113 </v>
   <v type="int" >        2       71      112      113      120 </v>
   <v type="int" >        2       71      112      119      120 </v>
   <v type="int" >        2       64       65       72      113 </v>
   <v type="int" >        2       64       71       72      113 </v>
   <v type="int" >        2       71       72      113      120 </v>
   <v type="int" >        2       65       72      113      114 </v>
   <v type="int" >        2       72      113      114      121 </v>
   <v type="int" >        2       72      113      120      121 </v>
   <v type="int" >        2       65       66       73      114 </v>
   <v type="int" >        2       65       72       73      114 </v>
   <v type="int" >        2       72       73      114      121 </v>
   <v type="int" >        2       66       73      114      115 </v>
   <v type="int" >        2       73      114      115      122 </v>
   <v type="int" >        2       73      114      121      122 </v>
   <v type="int" >        2       66       67       74      115 </v>
   <v type="int" >        2       66       73       74      115 </v>
   <v type="int" >        2       73       74      115      122 </v>
   <v type="int" >        2       67       74      115      116 </v>
   <v type="int" >        2       74      115      116      123 </v>
   <v type="int" >        2       74      115      122      123 </v>
   <v type="int" >        2       61       67       68      116 </v>
   <v type="int" >        2       67       68       74      116 </v>
   <v type="int" >        2       68       74      116      123 </v>
   <v type="int" >        2       61       68      110      116 </v>
   <v type="int" >        2       68      110      116      117 </v>
   <v type="int" >        2       68      116      117      123 </v>
   <v type="int" >        2       27       68       69      117 </v>
   <v type="int" >        2       26       27       68      117 </v>
   <v type="int" >        2       26       27       75      117 </v>
   <v type="int" >        2       27       69      117      118 </v>
   <v type="int" >        2       27       76      117      118 </v>
   <v type="int" >        2       27       75       76      117 </v>
   <v type="int" >        2       28       69       70      118 </v>
   <v type="int" >        2       27       28       69      118 </v>
   <v type="int" >        2       27       28       76      118 </v>
   <v type="int" >        2       28       70      118      119 </v>
   <v type="int" >        2       28       77      118      119 </v>
   <v type="int" >        2       28       76       77      118 </v>
   <v type="int" >        2       29       70       71      119 </v>
   <v type="int" >        2       28       29       70      119 </v>
   <v type="int" >        2       28       29       77      119 </v>
   <v type="int" >        2       29       71      119      120 </v>
   <v type="int" >        2       29       78      119      120 </v>
   <v type="int" >        2       29       77       78      119 </v>
   <v type="int" >        2       30       71       72      120 </v>
   <v type="int" >        2       29       30       71      120 </v>
   <v type="int" >        2       29       30       78      120 </v>
   <v type="int" >        2       30       72      120      121 </v>
   <v type="int" >        2       30       79      120      121 </v>
   <v type="int" >        2       30       78       79      120 </v>
   <v type="int" >        2       31       72       73      121 </v>
   <v type="int" >        2       30       31       72      121 </v>
   <v type="int" >        2       30       31       79      121 </v>
   <v type="int" >        2       31       73      121      122 </v>
   <v type="int" >        2       31       80      121      122 </v>
   <v type="int" >        2       31       79       80      121 </v>
   <v type="int" >        2       32       73       74      122 </v>
   <v type="int" >        2       31       32       73      122 </v>
   <v type="int" >        2       31       32       80      122 </v>
   <v type="int" >        2       32       74      122      123 </v>
   <v type="int" >        2       32       81      122      123 </v>
   <v type="int" >        2       32       80       81      122 </v>
   <v type="int" >        2       26       68       74      123 </v>
   <v type="int" >        2       26       32       74      123 </v>
   <v type="int" >        2       26       32       81      123 </v>
   <v type="int" >        2       26       68      117      123 </v>
   <v type="int" >        2       26       75      117      123 </v>
   <v type="int" >        2       26       75       81      123 </v>
   <v type="int" >        2       75       76       83      124 </v>
   <v type="int" >        2       75       82       83      124 </v>
   <v type="int" >        2       82       83      124      131 </v>
   <v type="int" >        2       76       83      124      125 </v>
   <v type="int" >        2       83      124      125      132 </v>
   <v type="int" >        2       83      124      131      132 </v>
   <v type="int" >        2       76       77       84      125 </v>
   <v type="int" >        2       76       83       84      125 </v>
   <v type="int" >        2       83       84      125      132 </v>
   <v type="int" >        2       77       84      125      126 </v>
   <v type="int" >        2       84      125      126      133 </v>
   <v type="int" >        2       84      125      132      133 </v>
   <v type="int" >        2       77       78       85      126 </v>
   <v type="int" >        2       77       84       85      126 </v>
   <v type="int" >        2       84       85      126      133 </v>
   <v type="int" >        2       78       85      126      127 </v>
   <v type="int" >        2       85      126      127      134 </v>
   <v type="int" >        2       85      126      133      134 </v>
   <v type="int" >        2       78       79       86      127 </v>
   <v type="int" >        2       78       85       86      127 </v>
   <v type="int" >        2       85       86      127      134 </v>
   <v type="int" >        2       79       86      127      128 </v>
   <v type="int" >        2       86      127      128      135 </v>
   <v type="int" >        2       86      127      134      135 </v>
   <v type="int" >        2       79       80       87      128 </v>
   <v type="int" >        2       79       86       87      128 </v>
   <v type="int" >        2       86       87      128      135 </v>
   <v type="int" >        2       80       87      128      129 </v>
   <v type="int" >        2       87      128      129      136 </v>
   <v type="int" >        2       87      128      135      136 </v>
   <v type="int" >        2       80       81       88      129 </v>
   <v type="int" >        2       80       87       88      129 </v>
   <v type="int" >        2       87       88      129      136 </v>
   <v type="int" >        2       81       88      129      130 </v>
   <v type="int" >        2       88      129      130      137 </v>
   <v type="int" >        2       88      129      136      137 </v>
   <v type="int" >        2       75       81       82      130 </v>
   <v type="int" >        2       81       82       88      130 </v>
   <v type="int" >        2       82       88      130      137 </v>
   <v type="int" >        2       75       82      124      130 </v>
   <v type="int" >        2       82      124      130      131 </v>
   <v type="int" >        2       82      130      131      137 </v>
   <v type="int" >        2       82       83       90      131 </v>
   <v type="int" >        2       82       89       90      131 </v>
   <v type="int" >        2       89       90      131      138 </v>
   <v type="int" >        2       83       90      131      132 </v>
   <v type="int" >        2       90      131      132      139 </v>
   <v type="int" >        2       90      131      138      139 </v>
   <v type="int" >        2       83       84       91      132 </v>
   <v type="int" >        2       83       90       91      132 </v>
   <v type="int" >        2       90       91      132      139 </v>
   <v type="int" >        2       84       91      132      133 </v>
   <v type="int" >        2       91      132      133      140 </v>
   <v type="int" >        2       91      132      139      140 </v>
   <v type="int" >        2       84       85       92      133 </v>
   <v type="int" >        2       84       91       92      133 </v>
   <v type="int" >        2       91       92      133      140 </v>
   <v type="int" >        2       85       92      133      134 </v>
   <v type="int" >        2       92      133      134      141 </v>
   <v type="int" >        2       92      133      140      141 </v>
   <v type="int" >        2       85       86       93      134 </v>
   <v type="int" >        2       85       92       93      134 </v>
   <v type="int" >        2       92       93      134      141 </v>
   <v type="int" >        2       86       93      134      135 </v>
   <v type="int" >        2       93      134      135      142 </v>
   <v type="int" >        2       93      134      141      142 </v>
   <v type="int" >        2       86       87       94      135 </v>
   <v type="int" >        2       86       93       94      135 </v>
   <v type="int" >        2       93       94      135      142 </v>
   <v type="int" >        2       87       94      135      136 </v>
   <v type="int" >        2       94      135      136      143 </v>
   <v type="int" >        2       94      135      142      143 </v>
   <v type="int" >        2       87       88       95      136 </v>
   <v type="int" >        2       87       94       95      136 </v>
   <v type="int" >        2       94       95      136      143 </v>
   <v type="int" >        2       88       95      136      137 </v>
   <v type="int" >        2       95      136      137      144 </v>
   <v type="int" >        2       95      136      143      144 </v>
   <v type="int" >        2       82       88       89      137 </v>
   <v type="int" >        2       88       89       95      137 </v>
   <v type="int" >        2       89       95      137      144 </v>
   <v type="int" >        2       82       89      131      137 </v>
   <v type="int" >        2       89      131      137      138 </v>
   <v type="int" >        2       89      137      138      144 </v>
   <v type="int" >        2       89       90       97      138 </v>
   <v type="int" >        2       89       96       97      138 </v>
   <v type="int" >        2       96       97      138      145 </v>
   <v type="int" >        2       90       97      138      139 </v>
   <v type="int" >        2       97      138      139      146 </v>
   <v type="int" >        2       97      138      145      146 </v>
   <v type="int" >        2       90       91       98      139 </v>
   <v type="int" >        2       90       97       98      139 </v>
   <v type="int" >        2       97       98      139      146 </v>
   <v type="int" >        2       91       98      139      140 </v>
   <v type="int" >        2       98      139      140      147 </v>
   <v type="int" >        2       98      139      146      147 </v>
   <v type="int" >        2       91       92       99      140 </v>
   <v type="int" >        2       91       98       99      140 </v>
   <v type="int" >        2       98       99      140      147 </v>
   <v type="int" >        2       92       99      140      141 </v>
   <v type="int" >        2       99      140      141      148 </v>
   <v type="int" >        2       99      140      147      148 </v>
   <v type="int" >        2       92       93      100      141 </v>
   <v type="int" >        2       92       99      100      141 </v>
   <v type="int" >        2       99      100      141      148 </v>
   <v type="int" >        2       93      100      141      142 </v>
   <v type="int" >        2      100      141      142      149 </v>
   <v type="int" >        2      100      141      148      149 </v>
   <v type="int" >        2       93       94      101      142 </v>
   <v type="int" >        2       93      100      101      142 </v>
   <v type="int" >        2      100      101      142      149 </v>
   <v type="int" >        2       94      101      142      143 </v>
   <v type="int" >        2      101      142      143      150 </v>
   <v type="int" >        2      101      142      149      150 </v>
   <v type="int" >        2       94       95      102      143 </v>
   <v type="int" >        2       94      101      102      143 </v>
   <v type="int" >        2      101      102      143      150 </v>
   <v type="int" >        2       95      102      143      144 </v>
   <v type="int" >        2      102      143      144      151 </v>
   <v type="int" >        2      102      143      150      151 </v>
   <v type="int" >        2       89       95       96      144 </v>
   <v type="int" >        2       95       96      102      144 </v>
   <v type="int" >        2       96      102      144      151 </v>
   <v type="int" >        2       89       96      138      144 </v>
   <v type="int" >        2       96      138      144      145 </v>
   <v type="int" >        2       96      144      145      151 </v>
   <v type="int" >        2       96       97      104      145 </v>
   <v type="int" >        2       96      103      104      145 </v>
   <v type="int" >        2      103      104      145      152 </v>
   <v type="int" >        2       97      104      145      146 </v>
   <v type="int" >        2      104      145      146      153 </v>
   <v type="int" >        2      104      145      152      153 </v>
   <v type="int" >        2       97       98      105      146 </v>
   <v type="int" >        2       97      104      105      146 </v>
   <v type="int" >        2      104      105      146      153 </v>
   <v type="int" >        2       98      105      146      147 </v>
   <v type="int" >        2      105      146      147      154 </v>
   <v type="int" >        2      105      146      153      154 </v>
   <v type="int" >        2       98       99      106      147 </v>
   <v type="int" >        2       98      105      106      147 </v>
   <v type="int" >        2      105      106      147      154 </v>
   <v type="int" >        2       99      106      147      148 </v>
   <v type="int" >        2      106      147      148      155 </v>
   <v type="int" >        2      106      147      154      155 </v>
   <v type="int" >        2       99      100      107      148 </v>
   <v type="int" >        2       99      106      107      148 </v>
   <v type="int" >        2      106      107      148      155 </v>
   <v type="int" >        2      100      107      148      149 </v>
   <v type="int" >        2      107      148      149      156 </v>
   <v type="int" >        2      107      148      155      156 </v>
   <v type="int" >        2      100      101      108      149 </v>
   <v type="int" >        2      100      107      108      149 </v>
   <v type="int" >        2      107      108      149      156 </v>
   <v type="int" >        2      101      108      149      150 </v>
   <v type="int" >        2      108      149      150      157 </v>
   <v type="int" >        2      108      149      156      157 </v>
   <v type="int" >        2      101      102      109      150 </v>
   <v type="int" >        2      101      108      109      150 </v>
   <v type="int" >        2      108      109      150      157 </v>
   <v type="int" >        2      102      109      150      151 </v>
   <v type="int" >        2      109      150      151      158 </v>
   <v type="int" >        2      109      150      157      158 </v>
   <v type="int" >        2       96      102      103      151 </v>
   <v type="int" >        2      102      103      109      151 </v>
   <v type="int" >        2      103      109      151      158 </v>
   <v type="int" >        2       96      103      145      151 </v>
   <v type="int" >        2      103      145      151      152 </v>
   <v type="int" >        2      103      151      152      158 </v>
   <v type="int" >        2      103      104      111      152 </v>
   <v type="int" >        2      103      110      111      152 </v>
   <v type="int" >        2      110      111      152      159 </v>
   <v type="int" >        2      104      111      152      153 </v>
   <v type="int" >        2      111      152      153      160 </v>
   <v type="int" >        2      111      152      159      160 </v>
   <v type="int" >        2      104      105      112      153 </v>
   <v type="int" >        2      104      111      112      153 </v>
   <v type="int" >        2      111      112      153      160 </v>
   <v type="int" >        2      105      112      153      154 </v>
   <v type="int" >        2      112      153      154      161 </v>
   <v type="int" >        2      112      153      160      161 </v>
   <v type="int" >        2      105      106      113      154 </v>
   <v type="int" >        2      105      112      113      154 </v>
   <v type="int" >        2      112      113      154      161 </v>
   <v type="int" >        2      106      113      154      155 </v>
   <v type="int" >        2      113      154      155      162 </v>
   <v type="int" >        2      113      154      161      162 </v>
   <v type="int" >        2      106      107      114      155 </v>
   <v type="int" >        2      106      113      114      155 </v>
   <v type="int" >        2      113      114      155      162 </v>
   <v type="int" >        2      107      114      155      156 </v>
   <v type="int" >        2      114      155      156      163 </v>
   <v type="int" >        2      114      155      162      163 </v>
   <v type="int" >        2      107      108      115      156 </v>
   <v type="int" >        2      107      114      115      156 </v>
   <v type="int" >        2      114      115      156      163 </v>
   <v type="int" >        2      108      115      156      157 </v>
   <v type="int" >        2      115      156      157      164 </v>
   <v type="int" >        2      115      156      163      164 </v>
   <v type="int" >        2      108      109      116      157 </v>
   <v type="int" >        2      108      115      116      157 </v>
   <v type="int" >        2      115      116      157      164 </v>
   <v type="int" >        2      109      116      157      158 </v>
   <v type="int" >        2      116      157      158      165 </v>
   <v type="int" >        2      116      157      164      165 </v>
   <v type="int" >        2      103      109      110      158 </v>
   <v type="int" >        2      109      110      116      158 </v>
   <v type="int" >        2      110      116      158      165 </v>
   <v type="int" >        2      103      110      152      158 </v>
   <v type="int" >        2      110      152      158      159 </v>
   <v type="int" >        2      110      158      159      165 </v>
   <v type="int" >        2      110      111      118      159 </v>
   <v type="int" >        2      110      117      118      159 </v>
   <v type="int" >        2      117      118      159      166 </v>
   <v type="int" >        2      111      118      159      160 </v>
   <v type="int" >        2      118      159      160      167 </v>
   <v type="int" >        2      118      159      166      167 </v>
   <v type="int" >        2      111      112      119      160 </v>
   <v type="int" >        2      111      118      119      160 </v>
   <v type="int" >        2      118      119      160      167 </v>
   <v type="int" >        2      112      119      160      161 </v>
   <v type="int" >        2      119      160      161      168 </v>
   <v type="int" >        2      119      160      167      168 </v>
   <v type="int" >        2      112      113      120      161 </v>
   <v type="int" >        2      112      119      120      161 </v>
   <v type="int" >        2      119      120      161      168 </v>
   <v type="int" >        2      113      120      161      162 </v>
   <v type="int" >        2      120      161      162      169 </v>
   <v type="int" >        2      120      161      168      169 </v>
   <v type="int" >        2      113      114      121      162 </v>
   <v type="int" >        2      113      120      121      162 </v>
   <v type="int" >        2      120      121      162      169 </v>
   <v type="int" >        2      114      121      162      163 </v>
   <v type="int" >        2      121      162      163      170 </v>
   <v type="int" >        2      121      162      169      170 </v>
   <v type="int" >        2      114      115      122      163 </v>
   <v type="int" >        2      114      121      122      163 </v>
   <v type="int" >        2      121      122      163      170 </v>
   <v type="int" >        2      115      122      163      164 </v>
   <v type="int" >        2      122      163      164      171 </v>
   <v type="int" >        2      122      163      170      171 </v>
   <v type="int" >        2      115      116      123      164 </v>
   <v type="int" >        2      115      122      123      164 </v>
   <v type="int" >        2      122      123      164      171 </v>
   <v type="int" >        2      116      123      164      165 </v>
   <v type="int" >        2      123      164      165      172 </v>
   <v type="int" >        2      123      164      171      172 </v>
   <v type="int" >        2      110      116      117      165 </v>
   <v type="int" >        2      116      117      123      165 </v>
   <v type="int" >        2      117      123      165      172 </v>
   <v type="int" >        2      110      117      159      165 </v>
   <v type="int" >        2      117      159      165      166 </v>
   <v type="int" >        2      117      165      166      172 </v>
   <v type="int" >        2       76      117      118      166 </v>
   <v type="int" >        2       75       76      117      166 </v>
   <v type="int" >        2       75       76      124      166 </v>
   <v type="int" >        2       76      118      166      167 </v>
   <v type="int" >        2       76      125      166      167 </v>
   <v type="int" >        2       76      124      125      166 </v>
   <v type="int" >        2       77      118      119      167 </v>
   <v type="int" >        2       76       77      118      167 </v>
   <v type="int" >        2       76       77      125      167 </v>
   <v type="int" >        2       77      119      167      168 </v>
   <v type="int" >        2       77      126      167      168 </v>
   <v type="int" >        2       77      125      126      167 </v>
   <v type="int" >        2       78      119      120      168 </v>
   <v type="int" >        2       77       78      119      168 </v>
   <v type="int" >        2       77       78      126      168 </v>
   <v type="int" >        2       78      120      168      169 </v>
   <v type="int" >        2       78      127      168      169 </v>
   <v type="int" >        2       78      126      127      168 </v>
   <v type="int" >        2       79      120      121      169 </v>
   <v type="int" >        2       78       79      120      169 </v>
   <v type="int" >        2       78       79      127      169 </v>
   <v type="int" >        2       79      121      169      170 </v>
   <v type="int" >        2       79      128      169      170 </v>
   <v type="int" >        2       79      127      128      169 </v>
   <v type="int" >        2       80      121      122      170 </v>
   <v type="int" >        2       79       80      121      170 </v>
   <v type="int" >        2       79       80      128      170 </v>
   <v type="int" >        2       80      122      170      171 </v>
   <v type="int" >        2       80      129      170      171 </v>
   <v type="int" >        2       80      128      129      170 </v>
   <v type="int" >        2       81      122      123      171 </v>
   <v type="int" >        2       80       81      122      171 </v>
   <v type="int" >        2       80       81      129      171 </v>
   <v type="int" >        2       81      123      171      172 </v>
   <v type="int" >        2       81      130      171      172 </v>
   <v type="int" >        2       81      129      130      171 </v>
   <v type="int" >        2       75      117      123      172 </v>
   <v type="int" >        2       75       81      123      172 </v>
   <v type="int" >        2       75       81      130      172 </v>
   <v type="int" >        2       75      117      166      172 </v>
   <v type="int" >        2       75      124      166      172 </v>
   <v type="int" >        2       75      124      130      172 </v>
   <v type="int" >        2      124      124      125      132 </v>
   <v type="int" >        2      124      124      131      132 </v>
   <v type="int" >        2      124      131      132      166 </v>
   <v type="int" >        2      124      125      130      132 </v>
   <v type="int" >        2      124      130      132      172 </v>
   <v type="int" >        2      124      132      166      172 </v>
   <v type="int" >        2      125      126      130      133 </v>
   <v type="int" >        2      125      130      132      133 </v>
   <v type="int" >        2      130      132      133      172 </v>
   <v type="int" >        2      126      129      130      133 </v>
   <v type="int" >        2      129      130      133      171 </v>
   <v type="int" >        2      130      133      171      172 </v>
   <v type="int" >        2      126      127      129      134 </v>
   <v type="int" >        2      126      129      133      134 </v>
   <v type="int" >        2      129      133      134      171 </v>
   <v type="int" >        2      127      128      129      134 </v>
   <v type="int" >        2      128      129      134      170 </v>
   <v type="int" >        2      129      134      170      171 </v>
   <v type="int" >        4      127      128      128      135 </v>
   <v type="int" >        2      127      128      134      135 </v>
   <v type="int" >        2      128      134      135      170 </v>
   <v type="int" >        2      127      128      135      169 </v>
   <v type="int" >        2      128      135      169      170 </v>
   <v type="int" >        2      127      128      129      136 </v>
   <v type="int" >        2      127      128      135      136 </v>
[...]
       <r>    8.4551    1.0000 </r>
       <r>    8.4772    1.0000 </r>
       <r>    8.4964    1.0000 </r>
       <r>    8.5283    1.0000 </r>
       <r>    8.5433    1.0000 </r>
       <r>    8.6697    1.0000 </r>
       <r>    8.6902    1.0000 </r>
       <r>    8.7067    1.0000 </r>
       <r>    8.7312    1.0000 </r>
       <r>    9.2253    1.0000 </r>
       <r>    9.2408    0.8491 </r>
       <r>    9.4173   -0.1587 </r>
       <r>    9.4292   -0.0162 </r>
       <r>    9.5046   -0.0095 </r>
       <r>    9.7148    0.0000 </r>
       <r>    9.7545    0.0000 </r>
       <r>    9.7894    0.0000 </r>
       <r>    9.8107    0.0000 </r>
       <r>    9.8230    0.0000 </r>
       <r>    9.8736    0.0000 </r>
       <r>    9.9416    0.0000 </r>
       <r>    9.9597    0.0000 </r>
       <r>    9.9866    0.0000 </r>
       <r>   10.0471    0.0000 </r>
       <r>   10.0681    0.0000 </r>
       <r>   10.0833    0.0000 </r>
       <r>   10.0992    0.0000 </r>
       <r>   10.1060    0.0000 </r>
       <r>   10.1263    0.0000 </r>
       <r>   10.1431    0.0000 </r>
       <r>   10.2770    0.0000 </r>
       <r>   10.3637    0.0000 </r>
       <r>   10.3728    0.0000 </r>
       <r>   10.4299    0.0000 </r>
       <r>   10.4332    0.0000 </r>
       <r>   10.4535    0.0000 </r>
       <r>   10.4687    0.0000 </r>
       <r>   10.4923    0.0000 </r>
       <r>   10.4970    0.0000 </r>
       <r>   10.5216    0.0000 </r>
       <r>   10.5245    0.0000 </r>
       <r>   10.5741    0.0000 </r>
       <r>   10.7763    0.0000 </r>
       <r>   10.7822    0.0000 </r>
       <r>   10.8087    0.0000 </r>
       <r>   10.9708    0.0000 </r>
       <r>   10.9808    0.0000 </r>
       <r>   11.5827    0.0000 </r>
       <r>   12.3356    0.0000 </r>
       <r>   12.3697    0.0000 </r>
       <r>   12.7134    0.0000 </r>
       <r>   12.7383    0.0000 </r>
       <r>   12.7690    0.0000 </r>
       <r>   12.8783    0.0000 </r>
       <r>   13.0032    0.0000 </r>
       <r>   15.3503    0.0000 </r>
      </set>
     </set>
    </set>
   </array>
  </eigenvalues>
  <separator name="orbital magnetization" >
   <v name="MAGDIPOLOUT">      0.00000000      0.00000000      0.00000000</v>
  </separator>
  <dos>
   <i name="efermi">      9.24096464 </i>
   <total>
    <array>
     <dimension dim="1">gridpoints</dimension>
     <dimension dim="2">spin</dimension>
     <field>energy</field>
     <field>total</field>
     <field>integrated</field>
     <set>
      <set comment="spin 1">
       <r>    -1.2782     0.0000     0.0000 </r>
       <r>    -1.2171     0.0000     0.0000 </r>
       <r>    -1.1560     0.0000     0.0000 </r>
       <r>    -1.0950     0.0000     0.0000 </r>
       <r>    -1.0339     0.0000     0.0000 </r>
       <r>    -0.9728     0.0000     0.0000 </r>
       <r>    -0.9117     0.0000     0.0000 </r>
       <r>    -0.8507     0.0000     0.0000 </r>
       <r>    -0.7896     0.0000     0.0000 </r>
       <r>    -0.7285     0.0000     0.0000 </r>
       <r>    -0.6674     0.0000     0.0000 </r>
       <r>    -0.6064     0.0000     0.0000 </r>
       <r>    -0.5453     0.0000     0.0000 </r>
       <r>    -0.4842     0.0000     0.0000 </r>
       <r>    -0.4231     0.0000     0.0000 </r>
       <r>    -0.3621     0.0000     0.0000 </r>
       <r>    -0.3010     0.0000     0.0000 </r>
       <r>    -0.2399     0.1276     0.0016 </r>
       <r>    -0.1788     0.6194     0.0262 </r>
       <r>    -0.1178     0.7569     0.0673 </r>
       <r>    -0.0567     0.9657     0.1203 </r>
       <r>     0.0044     1.1819     0.1861 </r>
       <r>     0.0654     1.3019     0.2618 </r>
       <r>     0.1265     1.4782     0.3466 </r>
       <r>     0.1876     1.6488     0.4422 </r>
       <r>     0.2487     1.8435     0.5485 </r>
       <r>     0.3097     2.1113     0.6689 </r>
       <r>     0.3708     2.5814     0.8113 </r>
       <r>     0.4319     3.2313     0.9880 </r>
       <r>     0.4930     3.4041     1.1928 </r>
       <r>     0.5540     3.2939     1.3998 </r>
       <r>     0.6151     2.4953     1.5774 </r>
       <r>     0.6762     2.1441     1.7151 </r>
       <r>     0.7373     1.8441     1.8385 </r>
       <r>     0.7983     1.6737     1.9447 </r>
       <r>     0.8594     1.4225     2.0405 </r>
       <r>     0.9205     1.1617     2.1168 </r>
       <r>     0.9816     1.7430     2.2032 </r>
       <r>     1.0426     2.3371     2.3308 </r>
       <r>     1.1037     2.6883     2.4816 </r>
       <r>     1.1648     3.3831     2.6751 </r>
       <r>     1.2258     3.8737     2.9027 </r>
       <r>     1.2869     3.5202     3.1331 </r>
       <r>     1.3480     2.5344     3.3202 </r>
       <r>     1.4091     2.1464     3.4621 </r>
       <r>     1.4701     2.3670     3.5961 </r>
       <r>     1.5312     3.5805     3.7703 </r>
       <r>     1.5923     5.5349     4.0470 </r>
       <r>     1.6534     5.6458     4.4025 </r>
       <r>     1.7144     5.5402     4.7458 </r>
       <r>     1.7755     6.2954     5.1013 </r>
       <r>     1.8366     6.3900     5.4928 </r>
       <r>     1.8977     6.4241     5.8744 </r>
       <r>     1.9587     6.9146     6.2798 </r>
       <r>     2.0198     7.8529     6.7358 </r>
       <r>     2.0809     7.9093     7.2312 </r>
       <r>     2.1420    10.5498     7.7744 </r>
       <r>     2.2030     8.9905     8.3733 </r>
       <r>     2.2641    10.8783     8.9904 </r>
       <r>     2.3252    14.1581     9.7132 </r>
       <r>     2.3862    17.2057    10.6711 </r>
       <r>     2.4473    15.0968    11.6656 </r>
       <r>     2.5084    21.0396    12.7343 </r>
       <r>     2.5695    19.5124    13.9425 </r>
       <r>     2.6305    21.2080    15.2246 </r>
       <r>     2.6916    26.5042    16.6992 </r>
       <r>     2.7527    25.8127    18.3036 </r>
       <r>     2.8138    31.5923    19.8894 </r>
       <r>     2.8748    30.7596    21.7844 </r>
       <r>     2.9359    30.6555    23.6946 </r>
       <r>     2.9970    30.9713    25.5391 </r>
       <r>     3.0581    39.5150    27.6322 </r>
       <r>     3.1191    35.3368    29.8550 </r>
       <r>     3.1802    33.3043    32.0241 </r>
       <r>     3.2413    40.4334    34.2788 </r>
       <r>     3.3024    36.0105    36.4550 </r>
       <r>     3.3634    38.2094    38.6402 </r>
       <r>     3.4245    42.3680    40.9591 </r>
       <r>     3.4856    44.3002    43.6312 </r>
       <r>     3.5467    49.3524    46.2526 </r>
       <r>     3.6077    45.4032    49.0044 </r>
       <r>     3.6688    47.2038    51.7940 </r>
       <r>     3.7299    39.9265    54.6174 </r>
       <r>     3.7909    44.3810    57.2950 </r>
       <r>     3.8520    42.6168    59.7695 </r>
       <r>     3.9131    44.3490    62.4788 </r>
       <r>     3.9742    45.9241    65.2040 </r>
       <r>     4.0352    41.6379    67.8537 </r>
       <r>     4.0963    39.6578    70.3118 </r>
       <r>     4.1574    38.4544    72.6884 </r>
       <r>     4.2185    32.4135    74.8112 </r>
       <r>     4.2795    30.8512    76.7606 </r>
       <r>     4.3406    31.4360    78.6771 </r>
       <r>     4.4017    33.3788    80.6370 </r>
       <r>     4.4628    32.2199    82.5579 </r>
       <r>     4.5238    26.2322    84.3911 </r>
       <r>     4.5849    31.5643    86.0811 </r>
       <r>     4.6460    39.9205    88.4350 </r>
       <r>     4.7071    38.6439    90.6956 </r>
       <r>     4.7681    41.6500    93.1219 </r>
       <r>     4.8292    40.8639    95.6468 </r>
       <r>     4.8903    38.2591    98.0054 </r>
       <r>     4.9513    34.5255   100.2025 </r>
       <r>     5.0124    34.5351   102.2366 </r>
       <r>     5.0735    37.8948   104.5455 </r>
       <r>     5.1346    35.7212   106.8451 </r>
       <r>     5.1956    35.5326   108.9705 </r>
       <r>     5.2567    35.0512   111.0884 </r>
       <r>     5.3178    41.3837   113.3691 </r>
       <r>     5.3789    33.9672   115.4406 </r>
       <r>     5.4399    36.5710   117.5434 </r>
       <r>     5.5010    38.8694   119.8694 </r>
       <r>     5.5621    38.3462   122.1434 </r>
       <r>     5.6232    38.8696   124.3641 </r>
       <r>     5.6842    38.0106   126.7421 </r>
       <r>     5.7453    41.7761   129.2534 </r>
       <r>     5.8064    45.6458   131.9678 </r>
       <r>     5.8675    44.7647   134.8167 </r>
       <r>     5.9285    42.0764   137.4723 </r>
       <r>     5.9896    41.9309   140.0738 </r>
       <r>     6.0507    43.7866   142.7271 </r>
       <r>     6.1117    48.1082   145.5683 </r>
       <r>     6.1728    53.2763   148.5959 </r>
       <r>     6.2339    53.6062   151.8797 </r>
       <r>     6.2950    53.5640   155.1574 </r>
       <r>     6.3560    54.5376   158.4468 </r>
       <r>     6.4171    58.9841   161.8426 </r>
       <r>     6.4782    61.9127   165.5468 </r>
       <r>     6.5393    61.2566   169.3276 </r>
       <r>     6.6003    55.1161   172.9500 </r>
       <r>     6.6614    56.4864   176.4412 </r>
       <r>     6.7225    51.8390   179.6730 </r>
       <r>     6.7836    47.3491   182.7871 </r>
       <r>     6.8446    47.8328   185.5272 </r>
       <r>     6.9057    44.9983   188.2568 </r>
       <r>     6.9668    39.9302   190.7884 </r>
       <r>     7.0279    36.3596   193.0473 </r>
       <r>     7.0889    39.4821   195.3596 </r>
       <r>     7.1500    41.0559   197.8423 </r>
       <r>     7.2111    35.9458   200.2345 </r>
       <r>     7.2721    30.1360   202.2152 </r>
       <r>     7.3332    32.1839   204.1131 </r>
       <r>     7.3943    35.4060   206.1787 </r>
       <r>     7.4554    36.6137   208.3677 </r>
       <r>     7.5164    36.1968   210.5665 </r>
       <r>     7.5775    34.1927   212.7224 </r>
       <r>     7.6386    33.8713   214.8040 </r>
       <r>     7.6997    33.9806   216.8619 </r>
       <r>     7.7607    36.1125   219.0099 </r>
       <r>     7.8218    38.2277   221.2811 </r>
       <r>     7.8829    39.6378   223.6415 </r>
       <r>     7.9440    35.7186   225.9197 </r>
       <r>     8.0050    35.0188   228.1063 </r>
       <r>     8.0661    36.4619   230.2402 </r>
       <r>     8.1272    39.3437   232.4858 </r>
       <r>     8.1883    46.4344   235.0288 </r>
       <r>     8.2493    45.3481   237.8541 </r>
       <r>     8.3104    42.1890   240.5335 </r>
       <r>     8.3715    41.4297   243.1469 </r>
       <r>     8.4326    36.6129   245.4904 </r>
       <r>     8.4936    34.4646   247.6259 </r>
       <r>     8.5547    34.3553   249.7168 </r>
       <r>     8.6158    33.5342   251.7608 </r>
       <r>     8.6768    34.9407   253.8474 </r>
       <r>     8.7379    33.7012   255.9439 </r>
       <r>     8.7990    33.0297   258.0077 </r>
       <r>     8.8601    31.2711   259.9378 </r>
       <r>     8.9211    33.9461   261.9149 </r>
       <r>     8.9822    30.6609   263.8550 </r>
       <r>     9.0433    30.1203   265.7449 </r>
       <r>     9.1044    29.3685   267.5402 </r>
       <r>     9.1654    34.3932   269.5040 </r>
       <r>     9.2265    32.7676   271.5313 </r>
       <r>     9.2876    30.9185   273.4625 </r>
       <r>     9.3487    29.0566   275.2918 </r>
       <r>     9.4097    28.8817   277.0244 </r>
       <r>     9.4708    29.2634   278.7815 </r>
       <r>     9.5319    28.9668   280.5857 </r>
       <r>     9.5930    31.3130   282.3949 </r>
       <r>     9.6540    37.2435   284.5607 </r>
       <r>     9.7151    34.1906   286.7485 </r>
       <r>     9.7762    37.9920   288.8772 </r>
       <r>     9.8372    31.9098   291.0064 </r>
       <r>     9.8983    28.0232   292.7897 </r>
       <r>     9.9594    30.9639   294.5631 </r>
       <r>    10.0205    33.6937   296.5284 </r>
       <r>    10.0815    41.2972   298.8496 </r>
       <r>    10.1426    43.5541   301.4394 </r>
       <r>    10.2037    48.9653   304.1907 </r>
       <r>    10.2648    55.7599   307.4428 </r>
       <r>    10.3258    56.7152   310.8642 </r>
       <r>    10.3869    53.7260   314.2742 </r>
       <r>    10.4480    54.9896   317.5501 </r>
       <r>    10.5091    49.6333   320.8213 </r>
       <r>    10.5701    47.7062   323.6912 </r>
       <r>    10.6312    55.0808   326.9671 </r>
       <r>    10.6923    39.1712   329.6309 </r>
       <r>    10.7534    33.0007   332.0950 </r>
       <r>    10.8144    25.4081   333.7709 </r>
       <r>    10.8755    25.3618   335.2614 </r>
       <r>    10.9366    25.1067   336.7998 </r>
       <r>    10.9976    16.0635   338.1696 </r>
       <r>    11.0587    10.7369   338.9679 </r>
       <r>    11.1198    10.2397   339.5882 </r>
       <r>    11.1809     9.3469   340.1942 </r>
       <r>    11.2419     9.3871   340.7616 </r>
       <r>    11.3030     9.3320   341.3421 </r>
       <r>    11.3641     8.5629   341.8852 </r>
       <r>    11.4252     8.3947   342.3980 </r>
       <r>    11.4862     7.9508   342.9000 </r>
       <r>    11.5473     8.0644   343.3883 </r>
       <r>    11.6084     8.1660   343.8865 </r>
       <r>    11.6695     8.0903   344.3833 </r>
       <r>    11.7305     7.6174   344.8646 </r>
       <r>    11.7916     7.9329   345.3504 </r>
       <r>    11.8527     7.6412   345.8203 </r>
       <r>    11.9138     7.4740   346.2791 </r>
       <r>    11.9748     7.8186   346.7508 </r>
       <r>    12.0359     7.9830   347.2311 </r>
       <r>    12.0970     9.2148   347.7603 </r>
       <r>    12.1581     8.6792   348.3089 </r>
       <r>    12.2191     8.1492   348.8210 </r>
       <r>    12.2802     8.0741   349.3131 </r>
       <r>    12.3413     8.5109   349.8129 </r>
       <r>    12.4023     7.8940   350.3112 </r>
       <r>    12.4634     7.3062   350.7739 </r>
       <r>    12.5245     7.0813   351.2096 </r>
       <r>    12.5856     7.0924   351.6444 </r>
       <r>    12.6466     7.2201   352.0787 </r>
       <r>    12.7077     7.5907   352.5423 </r>
       <r>    12.7688     7.7788   353.0135 </r>
       <r>    12.8299     8.2833   353.5024 </r>
       <r>    12.8909     8.4316   354.0140 </r>
       <r>    12.9520     8.3703   354.5313 </r>
       <r>    13.0131     6.5090   354.9761 </r>
       <r>    13.0742     5.7459   355.3470 </r>
       <r>    13.1352     5.3501   355.6854 </r>
       <r>    13.1963     5.0303   356.0023 </r>
       <r>    13.2574     4.7157   356.2995 </r>
       <r>    13.3185     4.2872   356.5750 </r>
       <r>    13.3795     3.9025   356.8252 </r>
       <r>    13.4406     3.5668   357.0530 </r>
       <r>    13.5017     3.2988   357.2625 </r>
       <r>    13.5627     3.3672   357.4616 </r>
       <r>    13.6238     3.7947   357.6798 </r>
       <r>    13.6849     4.1415   357.9213 </r>
       <r>    13.7460     4.6313   358.1881 </r>
       <r>    13.8070     2.9702   358.4055 </r>
       <r>    13.8681     2.8818   358.5978 </r>
       <r>    13.9292     2.4587   358.7577 </r>
       <r>    13.9903     2.2042   358.9022 </r>
       <r>    14.0513     1.7926   359.0230 </r>
       <r>    14.1124     1.6017   359.1263 </r>
       <r>    14.1735     1.4728   359.2200 </r>
       <r>    14.2346     1.3533   359.3063 </r>
       <r>    14.2956     1.2422   359.3854 </r>
       <r>    14.3567     1.1519   359.4585 </r>
       <r>    14.4178     1.0658   359.5262 </r>
       <r>    14.4789     0.9819   359.5887 </r>
       <r>    14.5399     0.9029   359.6462 </r>
       <r>    14.6010     0.8299   359.6991 </r>
       <r>    14.6621     0.7650   359.7478 </r>
       <r>    14.7231     0.7176   359.7928 </r>
       <r>    14.7842     0.6457   359.8350 </r>
       <r>    14.8453     0.5633   359.8716 </r>
       <r>    14.9064     0.4905   359.9040 </r>
       <r>    14.9674     0.3990   359.9310 </r>
       <r>    15.0285     0.3406   359.9535 </r>
       <r>    15.0896     0.2438   359.9719 </r>
       <r>    15.1507     0.1496   359.9838 </r>
       <r>    15.2117     0.0792   359.9906 </r>
       <r>    15.2728     0.0411   359.9942 </r>
       <r>    15.3339     0.0267   359.9962 </r>
       <r>    15.3950     0.0173   359.9975 </r>
       <r>    15.4560     0.0107   359.9983 </r>
       <r>    15.5171     0.0068   359.9989 </r>
       <r>    15.5782     0.0050   359.9992 </r>
       <r>    15.6393     0.0038   359.9995 </r>
       <r>    15.7003     0.0027   359.9997 </r>
       <r>    15.7614     0.0018   359.9998 </r>
       <r>    15.8225     0.0011   359.9999 </r>
       <r>    15.8835     0.0006   360.0000 </r>
       <r>    15.9446     0.0002   360.0000 </r>
       <r>    16.0057     0.0000   360.0000 </r>
       <r>    16.0668     0.0000   360.0000 </r>
       <r>    16.1278     0.0000   360.0000 </r>
       <r>    16.1889     0.0000   360.0000 </r>
       <r>    16.2500     0.0000   360.0000 </r>
       <r>    16.3111     0.0000   360.0000 </r>
       <r>    16.3721     0.0000   360.0000 </r>
       <r>    16.4332     0.0000   360.0000 </r>
       <r>    16.4943     0.0000   360.0000 </r>
       <r>    16.5554     0.0000   360.0000 </r>
       <r>    16.6164     0.0000   360.0000 </r>
       <r>    16.6775     0.0000   360.0000 </r>
       <r>    16.7386     0.0000   360.0000 </r>
       <r>    16.7997     0.0000   360.0000 </r>
       <r>    16.8607     0.0000   360.0000 </r>
       <r>    16.9218     0.0000   360.0000 </r>
       <r>    16.9829     0.0000   360.0000 </r>
       <r>    17.0440     0.0000   360.0000 </r>
      </set>
     </set>
    </array>
   </total>
  </dos>
 </calculation>
 <structure name="finalpos" >
  <crystal>
   <varray name="basis" >
    <v>      -7.68816799      -3.84233124       3.84520899 </v>
    <v>      -7.68678241       3.84320446      -3.84156585 </v>
    <v>       7.68860500      -3.84323380      -3.84523829 </v>
   </varray>
   <i name="volume">    454.15627521 </i>
   <varray name="rec_basis" >
    <v>      -0.06504825      -0.13011775      -0.00001493 </v>
    <v>      -0.06507169      -0.00000320      -0.13010851 </v>
    <v>      -0.00003822      -0.13011356      -0.13009259 </v>
   </varray>
  </crystal>
  <varray name="positions" >
   <v>       0.50152394       0.99803371       0.99948203 </v>
   <v>       0.25240356       0.75114669       0.00134367 </v>
   <v>       0.74997260       0.75098038       0.49843474 </v>
   <v>       0.50134151       0.50188042       0.50342242 </v>
   <v>       0.87427960       0.62475203       0.75230892 </v>
   <v>       0.62507966       0.37565686       0.75237809 </v>
   <v>       0.37471716       0.62722558       0.25089165 </v>
   <v>       0.12367071       0.37587674       0.25036298 </v>
   <v>       0.62536675       0.37324247       0.24740541 </v>
   <v>       0.37644055       0.12384022       0.25133231 </v>
   <v>       0.12465128       0.37216423       0.74782704 </v>
   <v>       0.87360092       0.12506753       0.74748183 </v>
   <v>       0.24852834       0.75211229       0.50049938 </v>
   <v>       0.00128535       0.49956410       0.49860518 </v>
   <v>       0.24854916       0.24793218       0.99661852 </v>
   <v>       0.99858352       0.00051676       0.00161231 </v>
   <v>       0.99879647       0.50183712       0.00078099 </v>
   <v>       0.74713411       0.24858136       0.99853619 </v>
   <v>       0.99853516       0.99803444       0.49676756 </v>
   <v>       0.25002753       0.24816421       0.50099499 </v>
   <v>       0.37636241       0.12595387       0.74773640 </v>
   <v>       0.12455013       0.87427590       0.74778810 </v>
   <v>       0.87534590       0.12329969       0.25028420 </v>
   <v>       0.62703576       0.87455244       0.24951271 </v>
   <v>       0.12399000       0.87652154       0.25194306 </v>
   <v>       0.87397800       0.62598770       0.24824109 </v>
   <v>       0.62579006       0.87801259       0.75224760 </v>
   <v>       0.37627128       0.62470159       0.75226093 </v>
   <v>       0.75109682       0.24813698       0.49921084 </v>
   <v>       0.49881463       0.99987672       0.50153534 </v>
   <v>       0.75113786       0.75155327       0.00321996 </v>
   <v>       0.50113928       0.50051837       0.99893355 </v>
  </varray>
 </structure>
</modeling>
