   4   4   0   0
  0.1435568E+02  0.3857991E-09  0.3857991E-09  0.3857991E-09  0.5000000E-15
  1.000000000000000E-004
  CAR 
 Ir_Ru                                   
     40.31874931     -2.48604568  301      9.60543548      1.00000000
     -2.486  0.0000E+00  0.0000E+00
     -2.343  0.0000E+00  0.0000E+00
     -2.201  0.0000E+00  0.0000E+00
     -2.058  0.0000E+00  0.0000E+00
     -1.915  0.0000E+00  0.0000E+00
     -1.773  0.0000E+00  0.0000E+00
     -1.630  0.0000E+00  0.0000E+00
     -1.487  0.0000E+00  0.0000E+00
     -1.345  0.0000E+00  0.0000E+00
     -1.202  0.0000E+00  0.0000E+00
     -1.059  0.0000E+00  0.0000E+00
     -0.917  0.0000E+00  0.0000E+00
     -0.774  0.0000E+00  0.0000E+00
     -0.631  0.0000E+00  0.0000E+00
     -0.488  0.1631E-01  0.2821E-03
     -0.346  0.8969E-01  0.9647E-02
     -0.203  0.1375E+00  0.2540E-01
     -0.060  0.1627E+00  0.4717E-01
      0.082  0.1939E+00  0.7263E-01
      0.225  0.2287E+00  0.1027E+00
      0.368  0.2529E+00  0.1370E+00
      0.510  0.2789E+00  0.1750E+00
      0.653  0.3119E+00  0.2171E+00
      0.796  0.3457E+00  0.2641E+00
      0.938  0.3771E+00  0.3155E+00
      1.081  0.4154E+00  0.3720E+00
      1.224  0.4564E+00  0.4342E+00
      1.366  0.5058E+00  0.5025E+00
      1.509  0.5741E+00  0.5795E+00
      1.652  0.6528E+00  0.6669E+00
      1.794  0.7409E+00  0.7661E+00
      1.937  0.9415E+00  0.8928E+00
      2.080  0.1093E+01  0.1039E+01
      2.222  0.2060E+01  0.1283E+01
      2.365  0.2140E+01  0.1592E+01
      2.508  0.1838E+01  0.1853E+01
      2.651  0.1998E+01  0.2123E+01
      2.793  0.2446E+01  0.2434E+01
      2.936  0.4139E+01  0.2892E+01
      3.079  0.5444E+01  0.3564E+01
      3.221  0.5896E+01  0.4369E+01
      3.364  0.5630E+01  0.5229E+01
      3.507  0.5802E+01  0.6031E+01
      3.649  0.5391E+01  0.6820E+01
      3.792  0.4934E+01  0.7562E+01
      3.935  0.4691E+01  0.8249E+01
      4.077  0.4649E+01  0.8926E+01
      4.220  0.3852E+01  0.9537E+01
      4.363  0.3383E+01  0.1004E+02
      4.505  0.3278E+01  0.1051E+02
      4.648  0.4312E+01  0.1102E+02
      4.791  0.4499E+01  0.1166E+02
      4.933  0.4440E+01  0.1229E+02
      5.076  0.4567E+01  0.1293E+02
      5.219  0.4753E+01  0.1361E+02
      5.362  0.4698E+01  0.1428E+02
      5.504  0.5250E+01  0.1498E+02
      5.647  0.5752E+01  0.1577E+02
      5.790  0.5296E+01  0.1654E+02
      5.932  0.4443E+01  0.1722E+02
      6.075  0.5489E+01  0.1787E+02
      6.218  0.6078E+01  0.1874E+02
      6.360  0.7500E+01  0.1974E+02
      6.503  0.7981E+01  0.2084E+02
      6.646  0.7908E+01  0.2208E+02
      6.788  0.5826E+01  0.2291E+02
      6.931  0.3375E+01  0.2359E+02
      7.074  0.4450E+01  0.2418E+02
      7.216  0.4642E+01  0.2483E+02
      7.359  0.4853E+01  0.2553E+02
      7.502  0.4286E+01  0.2618E+02
      7.644  0.3954E+01  0.2676E+02
      7.787  0.4338E+01  0.2735E+02
      7.930  0.5445E+01  0.2802E+02
      8.072  0.4711E+01  0.2881E+02
      8.215  0.3777E+01  0.2944E+02
      8.358  0.3791E+01  0.3000E+02
      8.501  0.3860E+01  0.3056E+02
      8.643  0.4139E+01  0.3111E+02
      8.786  0.4591E+01  0.3178E+02
      8.929  0.4708E+01  0.3245E+02
      9.071  0.3319E+01  0.3300E+02
      9.214  0.3527E+01  0.3348E+02
      9.357  0.3862E+01  0.3401E+02
      9.499  0.3993E+01  0.3458E+02
      9.642  0.4046E+01  0.3514E+02
      9.785  0.4129E+01  0.3571E+02
      9.927  0.4066E+01  0.3628E+02
     10.070  0.4348E+01  0.3688E+02
     10.213  0.5534E+01  0.3755E+02
     10.355  0.5650E+01  0.3831E+02
     10.498  0.7030E+01  0.3924E+02
     10.641  0.5852E+01  0.4022E+02
     10.783  0.4871E+01  0.4107E+02
     10.926  0.3484E+01  0.4166E+02
     11.069  0.2684E+01  0.4210E+02
     11.211  0.1639E+01  0.4244E+02
     11.354  0.1218E+01  0.4263E+02
     11.497  0.1113E+01  0.4280E+02
     11.640  0.1117E+01  0.4295E+02
     11.782  0.1109E+01  0.4311E+02
     11.925  0.1133E+01  0.4327E+02
     12.068  0.1248E+01  0.4345E+02
     12.210  0.1192E+01  0.4362E+02
     12.353  0.1113E+01  0.4379E+02
     12.496  0.1045E+01  0.4394E+02
     12.638  0.8488E+00  0.4408E+02
     12.781  0.8071E+00  0.4420E+02
     12.924  0.8620E+00  0.4432E+02
     13.066  0.9582E+00  0.4445E+02
     13.209  0.1038E+01  0.4459E+02
     13.352  0.1077E+01  0.4474E+02
     13.494  0.1187E+01  0.4491E+02
     13.637  0.1107E+01  0.4508E+02
     13.780  0.1079E+01  0.4523E+02
     13.922  0.1044E+01  0.4538E+02
     14.065  0.1009E+01  0.4553E+02
     14.208  0.9812E+00  0.4567E+02
     14.351  0.9652E+00  0.4581E+02
     14.493  0.9634E+00  0.4595E+02
     14.636  0.9749E+00  0.4609E+02
     14.779  0.9843E+00  0.4623E+02
     14.921  0.9339E+00  0.4636E+02
     15.064  0.8969E+00  0.4649E+02
     15.207  0.8611E+00  0.4662E+02
     15.349  0.8272E+00  0.4674E+02
     15.492  0.8142E+00  0.4686E+02
     15.635  0.8048E+00  0.4697E+02
     15.777  0.8003E+00  0.4709E+02
     15.920  0.8036E+00  0.4720E+02
     16.063  0.8053E+00  0.4732E+02
     16.205  0.7080E+00  0.4743E+02
     16.348  0.6469E+00  0.4752E+02
     16.491  0.6934E+00  0.4762E+02
     16.633  0.8805E+00  0.4773E+02
     16.776  0.1616E+01  0.4792E+02
     16.919  0.1222E+01  0.4812E+02
     17.061  0.1378E+01  0.4830E+02
     17.204  0.1060E+01  0.4846E+02
     17.347  0.1094E+01  0.4861E+02
     17.490  0.1433E+01  0.4878E+02
     17.632  0.1345E+01  0.4898E+02
     17.775  0.1304E+01  0.4917E+02
     17.918  0.1295E+01  0.4936E+02
     18.060  0.1292E+01  0.4954E+02
     18.203  0.1466E+01  0.4974E+02
     18.346  0.1257E+01  0.4993E+02
     18.488  0.1157E+01  0.5010E+02
     18.631  0.1087E+01  0.5026E+02
     18.774  0.1081E+01  0.5042E+02
     18.916  0.1091E+01  0.5057E+02
     19.059  0.1113E+01  0.5073E+02
     19.202  0.1142E+01  0.5089E+02
     19.344  0.1157E+01  0.5105E+02
     19.487  0.1217E+01  0.5123E+02
     19.630  0.1235E+01  0.5141E+02
     19.772  0.1233E+01  0.5158E+02
     19.915  0.1240E+01  0.5176E+02
     20.058  0.1337E+01  0.5194E+02
     20.200  0.1336E+01  0.5213E+02
     20.343  0.1155E+01  0.5231E+02
     20.486  0.1170E+01  0.5248E+02
     20.629  0.1182E+01  0.5264E+02
     20.771  0.1147E+01  0.5281E+02
     20.914  0.1107E+01  0.5297E+02
     21.057  0.1261E+01  0.5314E+02
     21.199  0.1684E+01  0.5335E+02
     21.342  0.2070E+01  0.5361E+02
     21.485  0.2188E+01  0.5393E+02
     21.627  0.1575E+01  0.5419E+02
     21.770  0.1583E+01  0.5440E+02
     21.913  0.1627E+01  0.5464E+02
     22.055  0.1566E+01  0.5490E+02
     22.198  0.1548E+01  0.5512E+02
     22.341  0.1573E+01  0.5534E+02
     22.483  0.1586E+01  0.5557E+02
     22.626  0.1661E+01  0.5580E+02
     22.769  0.1587E+01  0.5603E+02
     22.911  0.1797E+01  0.5626E+02
     23.054  0.1986E+01  0.5653E+02
     23.197  0.2060E+01  0.5682E+02
     23.340  0.1976E+01  0.5712E+02
     23.482  0.1905E+01  0.5739E+02
     23.625  0.2018E+01  0.5768E+02
     23.768  0.1955E+01  0.5796E+02
     23.910  0.1893E+01  0.5824E+02
     24.053  0.1934E+01  0.5851E+02
     24.196  0.2149E+01  0.5880E+02
     24.338  0.2572E+01  0.5914E+02
     24.481  0.2612E+01  0.5951E+02
     24.624  0.2902E+01  0.5991E+02
     24.766  0.2788E+01  0.6031E+02
     24.909  0.3059E+01  0.6073E+02
     25.052  0.3410E+01  0.6119E+02
     25.194  0.3257E+01  0.6167E+02
     25.337  0.3149E+01  0.6212E+02
     25.480  0.3278E+01  0.6258E+02
     25.622  0.3136E+01  0.6304E+02
     25.765  0.3407E+01  0.6352E+02
     25.908  0.3310E+01  0.6400E+02
     26.050  0.2883E+01  0.6443E+02
     26.193  0.2364E+01  0.6482E+02
     26.336  0.2070E+01  0.6512E+02
     26.479  0.1904E+01  0.6540E+02
     26.621  0.2358E+01  0.6569E+02
     26.764  0.3076E+01  0.6609E+02
     26.907  0.3223E+01  0.6653E+02
     27.049  0.3553E+01  0.6703E+02
     27.192  0.2716E+01  0.6748E+02
     27.335  0.2490E+01  0.6786E+02
     27.477  0.2136E+01  0.6818E+02
     27.620  0.2143E+01  0.6849E+02
     27.763  0.2385E+01  0.6881E+02
     27.905  0.1845E+01  0.6910E+02
     28.048  0.1567E+01  0.6935E+02
     28.191  0.1170E+01  0.6953E+02
     28.333  0.8880E+00  0.6968E+02
     28.476  0.7538E+00  0.6980E+02
     28.619  0.9836E+00  0.6991E+02
     28.761  0.9943E+00  0.7003E+02
     28.904  0.1286E+01  0.7020E+02
     29.047  0.1507E+01  0.7040E+02
     29.190  0.1626E+01  0.7063E+02
     29.332  0.1778E+01  0.7087E+02
     29.475  0.1602E+01  0.7113E+02
     29.618  0.1907E+01  0.7138E+02
     29.760  0.2207E+01  0.7169E+02
     29.903  0.2446E+01  0.7202E+02
     30.046  0.2964E+01  0.7244E+02
     30.188  0.3047E+01  0.7288E+02
     30.331  0.2958E+01  0.7331E+02
     30.474  0.3494E+01  0.7376E+02
     30.616  0.2715E+01  0.7422E+02
     30.759  0.2913E+01  0.7460E+02
     30.902  0.2963E+01  0.7502E+02
     31.044  0.2804E+01  0.7543E+02
     31.187  0.2400E+01  0.7581E+02
     31.330  0.2188E+01  0.7613E+02
     31.472  0.2273E+01  0.7646E+02
     31.615  0.2235E+01  0.7679E+02
     31.758  0.1965E+01  0.7708E+02
     31.900  0.1969E+01  0.7736E+02
     32.043  0.1826E+01  0.7764E+02
     32.186  0.1553E+01  0.7788E+02
     32.329  0.1368E+01  0.7808E+02
     32.471  0.1254E+01  0.7827E+02
     32.614  0.1154E+01  0.7844E+02
     32.757  0.1237E+01  0.7861E+02
     32.899  0.1153E+01  0.7878E+02
     33.042  0.1121E+01  0.7895E+02
     33.185  0.1047E+01  0.7910E+02
     33.327  0.8924E+00  0.7924E+02
     33.470  0.7937E+00  0.7936E+02
     33.613  0.7131E+00  0.7947E+02
     33.755  0.6197E+00  0.7956E+02
     33.898  0.4946E+00  0.7964E+02
     34.041  0.4251E+00  0.7971E+02
     34.183  0.3283E+00  0.7976E+02
     34.326  0.2488E+00  0.7980E+02
     34.469  0.2019E+00  0.7983E+02
     34.611  0.1775E+00  0.7986E+02
     34.754  0.1539E+00  0.7988E+02
     34.897  0.1262E+00  0.7990E+02
     35.039  0.1025E+00  0.7992E+02
     35.182  0.8680E-01  0.7993E+02
     35.325  0.7587E-01  0.7995E+02
     35.468  0.6616E-01  0.7996E+02
     35.610  0.5766E-01  0.7996E+02
     35.753  0.5067E-01  0.7997E+02
     35.896  0.4438E-01  0.7998E+02
     36.038  0.3454E-01  0.7998E+02
     36.181  0.1127E-01  0.7999E+02
     36.324  0.9458E-02  0.7999E+02
     36.466  0.8656E-02  0.7999E+02
     36.609  0.7907E-02  0.7999E+02
     36.752  0.7210E-02  0.7999E+02
     36.894  0.6564E-02  0.7999E+02
     37.037  0.5971E-02  0.7999E+02
     37.180  0.5429E-02  0.8000E+02
     37.322  0.4939E-02  0.8000E+02
     37.465  0.4502E-02  0.8000E+02
     37.608  0.4116E-02  0.8000E+02
     37.750  0.3782E-02  0.8000E+02
     37.893  0.3489E-02  0.8000E+02
     38.036  0.3235E-02  0.8000E+02
     38.179  0.3020E-02  0.8000E+02
     38.321  0.2845E-02  0.8000E+02
     38.464  0.0000E+00  0.8000E+02
     38.607  0.0000E+00  0.8000E+02
     38.749  0.0000E+00  0.8000E+02
     38.892  0.0000E+00  0.8000E+02
     39.035  0.0000E+00  0.8000E+02
     39.177  0.0000E+00  0.8000E+02
     39.320  0.0000E+00  0.8000E+02
     39.463  0.0000E+00  0.8000E+02
     39.605  0.0000E+00  0.8000E+02
     39.748  0.0000E+00  0.8000E+02
     39.891  0.0000E+00  0.8000E+02
     40.033  0.0000E+00  0.8000E+02
     40.176  0.0000E+00  0.8000E+02
     40.319  0.0000E+00  0.8000E+02
