       N       E                     dE             d eps       ncg     rms          rms(c)
RMM:   1     0.128827735619E+03    0.12883E+03   -0.53063E+03  3360   0.315E+02
RMM:   2    -0.707936884997E+01   -0.13591E+03   -0.11591E+03  3360   0.116E+02
RMM:   3    -0.337179220045E+02   -0.26639E+02   -0.10315E+02  3360   0.444E+01
RMM:   4    -0.373475535936E+02   -0.36296E+01   -0.14680E+01  3360   0.180E+01
RMM:   5    -0.376625856076E+02   -0.31503E+00   -0.27817E+00  3360   0.779E+00
RMM:   6    -0.377368552254E+02   -0.74270E-01   -0.70010E-01  3360   0.398E+00
RMM:   7    -0.377573217533E+02   -0.20467E-01   -0.19955E-01  3360   0.214E+00
RMM:   8    -0.377634578831E+02   -0.61361E-02   -0.59728E-02  3360   0.116E+00
RMM:   9    -0.377658493243E+02   -0.23914E-02   -0.23513E-02  6731   0.648E-01
RMM:  10    -0.377661275969E+02   -0.27827E-03   -0.27765E-03  6972   0.164E-01
RMM:  11    -0.377661405352E+02   -0.12938E-04   -0.12788E-04  6441   0.572E-02
RMM:  12    -0.377661420130E+02   -0.14779E-05   -0.14590E-05  6313   0.101E-02    0.932E+00
RMM:  13    -0.356694902710E+02    0.20967E+01   -0.25829E+00  6720   0.835E+00    0.459E+00
RMM:  14    -0.361496476562E+02   -0.48016E+00   -0.79567E-01  6720   0.416E+00    0.701E+00
RMM:  15    -0.352090157775E+02    0.94063E+00   -0.24697E-01  6720   0.236E+00    0.574E-01
RMM:  16    -0.351922685221E+02    0.16747E-01   -0.51487E-03  6720   0.263E-01    0.215E-01
RMM:  17    -0.351898833971E+02    0.23851E-02   -0.18518E-03  6720   0.230E-01    0.269E-02
RMM:  18    -0.351899027246E+02   -0.19328E-04   -0.53010E-05  6715   0.237E-02
   1 F= -.35189903E+02 E0= -.35189557E+02  d E =-.351899E+02
       N       E                     dE             d eps       ncg     rms          rms(c)
RMM:   1    -0.584538668216E+02   -0.23264E+02   -0.67605E+02  6720   0.137E+02    0.323E+01
RMM:   2    -0.303110343317E+02    0.28143E+02   -0.39581E+00  6720   0.114E+01    0.147E+01
RMM:   3    -0.240961601050E+02    0.62149E+01   -0.75019E+00  6720   0.165E+01    0.662E+00
RMM:   4    -0.227954470435E+02    0.13007E+01   -0.10131E+00  6723   0.540E+00    0.175E+00
RMM:   5    -0.228978991511E+02   -0.10245E+00   -0.99612E-02  6724   0.155E+00    0.581E-01
RMM:   6    -0.229287340789E+02   -0.30835E-01   -0.28272E-02  6720   0.642E-01    0.101E-01
RMM:   7    -0.229295411805E+02   -0.80710E-03   -0.28688E-03  7543   0.168E-01    0.374E-02
RMM:   8    -0.229295460295E+02   -0.48490E-05   -0.62925E-05  6764   0.408E-02
   2 F= -.22929546E+02 E0= -.22929465E+02  d E =0.122604E+02
       N       E                     dE             d eps       ncg     rms          rms(c)
RMM:   1    -0.605637141879E+02   -0.37634E+02   -0.74309E+02  6720   0.177E+02    0.273E+01
RMM:   2    -0.453013575964E+02    0.15262E+02   -0.31750E+01  6720   0.361E+01    0.183E+01
RMM:   3    -0.388978225180E+02    0.64035E+01   -0.29213E+00  6720   0.743E+00    0.123E+01
RMM:   4    -0.362803816651E+02    0.26174E+01   -0.16397E+00  6720   0.643E+00    0.363E+00
RMM:   5    -0.359895667820E+02    0.29081E+00   -0.66171E-02  6720   0.129E+00    0.108E+00
RMM:   6    -0.359343627714E+02    0.55204E-01   -0.68178E-02  6720   0.132E+00    0.192E-01
RMM:   7    -0.359346834186E+02   -0.32065E-03   -0.41669E-03  6720   0.198E-01    0.616E-02
RMM:   8    -0.359352584412E+02   -0.57502E-03   -0.49463E-04  6720   0.844E-02    0.525E-02
RMM:   9    -0.359352315490E+02    0.26892E-04   -0.10928E-04  6720   0.346E-02
   3 F= -.35935232E+02 E0= -.35934882E+02  d E =-.745329E+00
       N       E                     dE             d eps       ncg     rms          rms(c)
RMM:   1    -0.359623377408E+02   -0.27079E-01   -0.33317E-01  6720   0.349E+00    0.669E-01
RMM:   2    -0.359501317685E+02    0.12206E-01   -0.10114E-02  6720   0.605E-01    0.338E-01
RMM:   3    -0.359508347630E+02   -0.70299E-03   -0.27286E-03  6720   0.245E-01    0.418E-01
RMM:   4    -0.359474828953E+02    0.33519E-02   -0.10839E-03  6720   0.166E-01    0.318E-02
RMM:   5    -0.359474919144E+02   -0.90191E-05   -0.39307E-05  6717   0.253E-02
   4 F= -.35947492E+02 E0= -.35947144E+02  d E =-.757589E+00
       N       E                     dE             d eps       ncg     rms          rms(c)
RMM:   1    -0.359601142211E+02   -0.12631E-01   -0.21660E-01  6720   0.282E+00    0.534E-01
RMM:   2    -0.359522794663E+02    0.78348E-02   -0.63594E-03  6720   0.483E-01    0.263E-01
RMM:   3    -0.359527389934E+02   -0.45953E-03   -0.17129E-03  6720   0.195E-01    0.329E-01
RMM:   4    -0.359506489422E+02    0.20901E-02   -0.68144E-04  6720   0.132E-01    0.254E-02
RMM:   5    -0.359506598309E+02   -0.10889E-04   -0.26926E-05  6716   0.205E-02
   5 F= -.35950660E+02 E0= -.35950313E+02  d E =-.760757E+00
