 256 256   0   0
  0.1419206E+02  0.1537080E-08  0.1537218E-08  0.1537636E-08  0.5000000E-15
  1.000000000000000E-004
  CAR 
 Ir_Ru                                   
     12.68503120     -1.29522035  301      9.24212559      1.00000000
     -1.295  0.0000E+00  0.0000E+00
     -1.249  0.0000E+00  0.0000E+00
     -1.202  0.0000E+00  0.0000E+00
     -1.155  0.0000E+00  0.0000E+00
     -1.109 -0.2752E-28 -0.1282E-29
     -1.062 -0.4106E-25 -0.1915E-26
     -1.016 -0.3951E-22 -0.1843E-23
     -0.969 -0.2454E-19 -0.1145E-20
     -0.922 -0.9833E-17 -0.4594E-18
     -0.876 -0.2467E-14 -0.1154E-15
     -0.829 -0.4091E-12 -0.1918E-13
     -0.783 -0.4369E-10 -0.2055E-11
     -0.736 -0.3006E-08 -0.1422E-09
     -0.689 -0.1334E-06 -0.6358E-08
     -0.643 -0.3822E-05 -0.1845E-06
     -0.596 -0.7091E-04 -0.3489E-05
     -0.550 -0.8542E-03 -0.4330E-04
     -0.503 -0.6685E-02 -0.3548E-03
     -0.456 -0.3358E-01 -0.1920E-02
     -0.410 -0.1021E+00 -0.6676E-02
     -0.363 -0.1377E+00 -0.1309E-01
     -0.317  0.2242E+00 -0.2644E-02
     -0.270  0.1510E+01  0.6773E-01
     -0.223  0.3540E+01  0.2327E+00
     -0.177  0.5071E+01  0.4690E+00
     -0.130  0.5734E+01  0.7362E+00
     -0.084  0.7328E+01  0.1078E+01
     -0.037  0.1020E+02  0.1553E+01
      0.010  0.1102E+02  0.2067E+01
      0.056  0.9152E+01  0.2493E+01
      0.103  0.9388E+01  0.2931E+01
      0.149  0.1316E+02  0.3544E+01
      0.196  0.1591E+02  0.4285E+01
      0.243  0.1605E+02  0.5033E+01
      0.289  0.1674E+02  0.5813E+01
      0.336  0.1850E+02  0.6675E+01
      0.382  0.1833E+02  0.7529E+01
      0.429  0.1741E+02  0.8341E+01
      0.476  0.1978E+02  0.9262E+01
      0.522  0.2336E+02  0.1035E+02
      0.569  0.2406E+02  0.1147E+02
      0.615  0.2228E+02  0.1251E+02
      0.662  0.1874E+02  0.1338E+02
      0.709  0.1409E+02  0.1404E+02
      0.755  0.1113E+02  0.1456E+02
      0.802  0.1070E+02  0.1506E+02
      0.848  0.1115E+02  0.1558E+02
      0.895  0.1218E+02  0.1614E+02
      0.942  0.1466E+02  0.1683E+02
      0.988  0.1835E+02  0.1768E+02
      1.035  0.2287E+02  0.1875E+02
      1.081  0.2804E+02  0.2006E+02
      1.128  0.3123E+02  0.2151E+02
      1.175  0.2977E+02  0.2290E+02
      1.221  0.2595E+02  0.2411E+02
      1.268  0.2309E+02  0.2518E+02
      1.314  0.2097E+02  0.2616E+02
      1.361  0.2000E+02  0.2709E+02
      1.408  0.2159E+02  0.2810E+02
      1.454  0.2404E+02  0.2922E+02
      1.501  0.2563E+02  0.3041E+02
      1.547  0.2893E+02  0.3176E+02
      1.594  0.3506E+02  0.3339E+02
      1.641  0.3874E+02  0.3520E+02
      1.687  0.3789E+02  0.3697E+02
      1.734  0.3926E+02  0.3880E+02
      1.780  0.4549E+02  0.4091E+02
      1.827  0.4934E+02  0.4321E+02
      1.874  0.4787E+02  0.4544E+02
      1.920  0.4734E+02  0.4765E+02
      1.967  0.5092E+02  0.5002E+02
      2.013  0.5410E+02  0.5254E+02
      2.060  0.5545E+02  0.5513E+02
      2.107  0.6132E+02  0.5799E+02
      2.153  0.7448E+02  0.6146E+02
      2.200  0.8929E+02  0.6562E+02
      2.246  0.1030E+03  0.7042E+02
      2.293  0.1177E+03  0.7590E+02
      2.340  0.1309E+03  0.8200E+02
      2.386  0.1383E+03  0.8845E+02
      2.433  0.1433E+03  0.9512E+02
      2.479  0.1523E+03  0.1022E+03
      2.526  0.1610E+03  0.1097E+03
      2.573  0.1617E+03  0.1173E+03
      2.619  0.1613E+03  0.1248E+03
      2.666  0.1688E+03  0.1326E+03
      2.712  0.1784E+03  0.1410E+03
      2.759  0.1847E+03  0.1496E+03
      2.806  0.1976E+03  0.1588E+03
      2.852  0.2227E+03  0.1691E+03
      2.899  0.2475E+03  0.1807E+03
      2.945  0.2563E+03  0.1926E+03
      2.992  0.2499E+03  0.2043E+03
      3.039  0.2469E+03  0.2158E+03
      3.085  0.2621E+03  0.2280E+03
      3.132  0.2865E+03  0.2413E+03
      3.178  0.3014E+03  0.2554E+03
      3.225  0.3040E+03  0.2696E+03
      3.272  0.3052E+03  0.2838E+03
      3.318  0.3085E+03  0.2981E+03
      3.365  0.3110E+03  0.3126E+03
      3.411  0.3141E+03  0.3273E+03
      3.458  0.3213E+03  0.3423E+03
      3.505  0.3331E+03  0.3578E+03
      3.551  0.3440E+03  0.3738E+03
      3.598  0.3469E+03  0.3900E+03
      3.644  0.3448E+03  0.4060E+03
      3.691  0.3485E+03  0.4223E+03
      3.738  0.3575E+03  0.4389E+03
      3.784  0.3593E+03  0.4557E+03
      3.831  0.3523E+03  0.4721E+03
      3.877  0.3478E+03  0.4883E+03
      3.924  0.3496E+03  0.5046E+03
      3.971  0.3505E+03  0.5209E+03
      4.017  0.3414E+03  0.5368E+03
      4.064  0.3229E+03  0.5519E+03
      4.110  0.3068E+03  0.5662E+03
      4.157  0.2976E+03  0.5801E+03
      4.204  0.2874E+03  0.5934E+03
      4.250  0.2713E+03  0.6061E+03
      4.297  0.2538E+03  0.6179E+03
      4.343  0.2428E+03  0.6292E+03
      4.390  0.2451E+03  0.6406E+03
      4.437  0.2576E+03  0.6527E+03
      4.483  0.2619E+03  0.6649E+03
      4.530  0.2510E+03  0.6766E+03
      4.576  0.2477E+03  0.6881E+03
      4.623  0.2669E+03  0.7005E+03
      4.670  0.2917E+03  0.7141E+03
      4.716  0.3067E+03  0.7284E+03
      4.763  0.3136E+03  0.7430E+03
      4.809  0.3135E+03  0.7576E+03
      4.856  0.3050E+03  0.7719E+03
      4.903  0.2903E+03  0.7854E+03
      4.949  0.2785E+03  0.7984E+03
      4.996  0.2811E+03  0.8115E+03
      5.042  0.2952E+03  0.8252E+03
      5.089  0.3078E+03  0.8396E+03
      5.136  0.3092E+03  0.8540E+03
      5.182  0.2977E+03  0.8678E+03
      5.229  0.2857E+03  0.8812E+03
      5.275  0.2845E+03  0.8944E+03
      5.322  0.2904E+03  0.9079E+03
      5.369  0.2973E+03  0.9218E+03
      5.415  0.3018E+03  0.9359E+03
      5.462  0.2987E+03  0.9498E+03
      5.509  0.2888E+03  0.9632E+03
      5.555  0.2867E+03  0.9766E+03
      5.602  0.3026E+03  0.9907E+03
      5.648  0.3215E+03  0.1006E+04
      5.695  0.3253E+03  0.1021E+04
      5.742  0.3203E+03  0.1036E+04
      5.788  0.3200E+03  0.1051E+04
      5.835  0.3263E+03  0.1066E+04
      5.881  0.3367E+03  0.1082E+04
      5.928  0.3500E+03  0.1098E+04
      5.975  0.3652E+03  0.1115E+04
      6.021  0.3789E+03  0.1133E+04
      6.068  0.3857E+03  0.1151E+04
      6.114  0.3877E+03  0.1169E+04
      6.161  0.3917E+03  0.1187E+04
      6.208  0.3986E+03  0.1205E+04
      6.254  0.4096E+03  0.1225E+04
      6.301  0.4273E+03  0.1244E+04
      6.347  0.4465E+03  0.1265E+04
      6.394  0.4573E+03  0.1287E+04
      6.441  0.4571E+03  0.1308E+04
      6.487  0.4531E+03  0.1329E+04
      6.534  0.4499E+03  0.1350E+04
      6.580  0.4455E+03  0.1371E+04
      6.627  0.4390E+03  0.1391E+04
      6.674  0.4316E+03  0.1411E+04
      6.720  0.4246E+03  0.1431E+04
      6.767  0.4169E+03  0.1450E+04
      6.813  0.4016E+03  0.1469E+04
      6.860  0.3769E+03  0.1487E+04
      6.907  0.3544E+03  0.1503E+04
      6.953  0.3443E+03  0.1519E+04
      7.000  0.3393E+03  0.1535E+04
      7.046  0.3278E+03  0.1550E+04
      7.093  0.3149E+03  0.1565E+04
      7.140  0.3135E+03  0.1580E+04
      7.186  0.3193E+03  0.1595E+04
      7.233  0.3134E+03  0.1609E+04
      7.279  0.2876E+03  0.1623E+04
      7.326  0.2561E+03  0.1635E+04
      7.373  0.2402E+03  0.1646E+04
      7.419  0.2486E+03  0.1657E+04
      7.466  0.2711E+03  0.1670E+04
      7.512  0.2846E+03  0.1683E+04
      7.559  0.2766E+03  0.1696E+04
      7.606  0.2586E+03  0.1708E+04
      7.652  0.2483E+03  0.1720E+04
      7.699  0.2570E+03  0.1732E+04
      7.745  0.2827E+03  0.1745E+04
      7.792  0.3054E+03  0.1759E+04
      7.839  0.3120E+03  0.1774E+04
      7.885  0.3088E+03  0.1788E+04
      7.932  0.3031E+03  0.1802E+04
      7.978  0.2962E+03  0.1816E+04
      8.025  0.2911E+03  0.1829E+04
      8.072  0.2958E+03  0.1843E+04
      8.118  0.3093E+03  0.1858E+04
      8.165  0.3171E+03  0.1872E+04
      8.211  0.3177E+03  0.1887E+04
      8.258  0.3297E+03  0.1903E+04
      8.305  0.3535E+03  0.1919E+04
      8.351  0.3623E+03  0.1936E+04
      8.398  0.3400E+03  0.1952E+04
      8.444  0.3002E+03  0.1966E+04
      8.491  0.2670E+03  0.1978E+04
      8.538  0.2556E+03  0.1990E+04
      8.584  0.2708E+03  0.2003E+04
      8.631  0.2955E+03  0.2017E+04
      8.677  0.3003E+03  0.2031E+04
      8.724  0.2842E+03  0.2044E+04
      8.771  0.2676E+03  0.2056E+04
      8.817  0.2569E+03  0.2068E+04
      8.864  0.2489E+03  0.2080E+04
      8.910  0.2449E+03  0.2091E+04
      8.957  0.2452E+03  0.2103E+04
      9.004  0.2534E+03  0.2115E+04
      9.050  0.2734E+03  0.2127E+04
      9.097  0.2841E+03  0.2140E+04
      9.143  0.2662E+03  0.2153E+04
      9.190  0.2409E+03  0.2164E+04
      9.237  0.2283E+03  0.2175E+04
      9.283  0.2199E+03  0.2185E+04
      9.330  0.2138E+03  0.2195E+04
      9.376  0.2218E+03  0.2205E+04
      9.423  0.2424E+03  0.2217E+04
      9.470  0.2622E+03  0.2229E+04
      9.516  0.2735E+03  0.2242E+04
      9.563  0.2772E+03  0.2254E+04
      9.609  0.2762E+03  0.2267E+04
      9.656  0.2710E+03  0.2280E+04
      9.703  0.2611E+03  0.2292E+04
      9.749  0.2440E+03  0.2304E+04
      9.796  0.2244E+03  0.2314E+04
      9.842  0.2194E+03  0.2324E+04
      9.889  0.2364E+03  0.2335E+04
      9.936  0.2641E+03  0.2348E+04
      9.982  0.2950E+03  0.2361E+04
     10.029  0.3272E+03  0.2377E+04
     10.075  0.3491E+03  0.2393E+04
     10.122  0.3465E+03  0.2409E+04
     10.169  0.3241E+03  0.2424E+04
     10.215  0.3102E+03  0.2438E+04
     10.262  0.3289E+03  0.2454E+04
     10.308  0.3868E+03  0.2472E+04
     10.355  0.4661E+03  0.2494E+04
     10.402  0.5185E+03  0.2518E+04
     10.448  0.5093E+03  0.2541E+04
     10.495  0.4506E+03  0.2562E+04
     10.541  0.3741E+03  0.2580E+04
     10.588  0.3023E+03  0.2594E+04
     10.635  0.2482E+03  0.2606E+04
     10.681  0.2124E+03  0.2615E+04
     10.728  0.1811E+03  0.2624E+04
     10.774  0.1426E+03  0.2631E+04
     10.821  0.9786E+02  0.2635E+04
     10.868  0.5665E+02  0.2638E+04
     10.914  0.2702E+02  0.2639E+04
     10.961  0.1026E+02  0.2639E+04
     11.007  0.3200E+01  0.2640E+04
     11.054  0.1615E+01  0.2640E+04
     11.101  0.1825E+01  0.2640E+04
     11.147  0.1563E+01  0.2640E+04
     11.194  0.6495E+00  0.2640E+04
     11.240  0.3973E-02  0.2640E+04
     11.287 -0.1125E+00  0.2640E+04
     11.334 -0.4932E-01  0.2640E+04
     11.380 -0.1067E-01  0.2640E+04
     11.427 -0.3420E-02  0.2640E+04
     11.473 -0.1330E-01  0.2640E+04
     11.520 -0.4261E-01  0.2640E+04
     11.567 -0.3509E-01  0.2640E+04
     11.613  0.2032E+00  0.2640E+04
     11.660  0.7201E+00  0.2640E+04
     11.706  0.1026E+01  0.2640E+04
     11.753  0.7181E+00  0.2640E+04
     11.800  0.2016E+00  0.2640E+04
     11.846 -0.3541E-01  0.2640E+04
     11.893 -0.4248E-01  0.2640E+04
     11.939 -0.1313E-01  0.2640E+04
     11.986 -0.2119E-02  0.2640E+04
     12.033 -0.2009E-03  0.2640E+04
     12.079 -0.1166E-04  0.2640E+04
     12.126 -0.4235E-06  0.2640E+04
     12.172 -0.9720E-08  0.2640E+04
     12.219 -0.1420E-09  0.2640E+04
     12.266 -0.1326E-11  0.2640E+04
     12.312 -0.8041E-14  0.2640E+04
     12.359  0.0000E+00  0.2640E+04
     12.405  0.0000E+00  0.2640E+04
     12.452  0.0000E+00  0.2640E+04
     12.499  0.0000E+00  0.2640E+04
     12.545  0.0000E+00  0.2640E+04
     12.592  0.0000E+00  0.2640E+04
     12.638  0.0000E+00  0.2640E+04
     12.685  0.0000E+00  0.2640E+04
