       N       E                     dE             d eps       ncg     rms          rms(c)
RMM:   1     0.136790205290E+05    0.13679E+05   -0.47218E+05 25080   0.725E+02
RMM:   2     0.131334588027E+04   -0.12366E+05   -0.13120E+05 25080   0.260E+02
RMM:   3    -0.104568379516E+04   -0.23590E+04   -0.22855E+04 25080   0.111E+02
RMM:   4    -0.184599921891E+04   -0.80032E+03   -0.57406E+03 25080   0.768E+01
RMM:   5    -0.212911403138E+04   -0.28311E+03   -0.24896E+03 25080   0.451E+01
RMM:   6    -0.227483158306E+04   -0.14572E+03   -0.12952E+03 25080   0.349E+01
RMM:   7    -0.235269100462E+04   -0.77859E+02   -0.73850E+02 25080   0.235E+01
RMM:   8    -0.240018701607E+04   -0.47496E+02   -0.44555E+02 25080   0.195E+01
RMM:   9    -0.247907829109E+04   -0.78891E+02   -0.77970E+02 71888   0.137E+01
RMM:  10    -0.248863677312E+04   -0.95585E+01   -0.11980E+02 79675   0.283E+00
RMM:  11    -0.249087715599E+04   -0.22404E+01   -0.17842E+01 77263   0.686E-01
RMM:  12    -0.249118419895E+04   -0.30704E+00   -0.19889E+00 79558   0.198E-01    0.782E+01
RMM:  13    -0.241367410284E+04    0.77510E+02   -0.68490E+02 57182   0.246E+01    0.583E+01
RMM:  14    -0.236776573830E+04    0.45908E+02   -0.34121E+02 51433   0.174E+01    0.416E+01
RMM:  15    -0.233564153452E+04    0.32124E+02   -0.11847E+02 53333   0.101E+01    0.255E+01
RMM:  16    -0.232135931719E+04    0.14282E+02   -0.25847E+01 56038   0.434E+00    0.456E+00
RMM:  17    -0.232159495509E+04   -0.23564E+00   -0.65350E+00 74110   0.127E+00    0.457E+00
RMM:  18    -0.232113890709E+04    0.45605E+00   -0.11743E+00 64264   0.706E-01    0.336E+00
RMM:  19    -0.232074551595E+04    0.39339E+00   -0.69350E-01 59028   0.806E-01    0.161E+00
RMM:  20    -0.232069417412E+04    0.51342E-01   -0.24378E-01 63323   0.355E-01    0.151E+00
RMM:  21    -0.232065959536E+04    0.34579E-01   -0.10890E-01 63021   0.226E-01    0.123E+00
RMM:  22    -0.232063349050E+04    0.26105E-01   -0.47147E-02 61388   0.156E-01    0.694E-01
RMM:  23    -0.232062844397E+04    0.50465E-02   -0.13827E-02 67271   0.681E-02    0.469E-01
RMM:  24    -0.232062530221E+04    0.31418E-02   -0.98278E-03 62780   0.728E-02    0.245E-01
RMM:  25    -0.232062609055E+04   -0.78834E-03   -0.11811E-02 66339   0.744E-02    0.248E-01
RMM:  26    -0.232062630382E+04   -0.21327E-03   -0.33863E-03 73546   0.309E-02    0.259E-01
RMM:  27    -0.232062548155E+04    0.82227E-03   -0.65695E-04 60239   0.195E-02    0.176E-01
RMM:  28    -0.232062494769E+04    0.53386E-03   -0.87061E-04 63457   0.216E-02    0.831E-02
RMM:  29    -0.232062481765E+04    0.13004E-03   -0.60043E-04 69333   0.162E-02    0.281E-02
RMM:  30    -0.232062479896E+04    0.18687E-04   -0.12179E-04 71308   0.638E-03
   1 F= -.23206248E+04 E0= -.23206247E+04  d E =-.391719E-03
