 256 256   0   0
  0.1418917E+02  0.1588033E-08  0.1692661E-08  0.1693229E-08  0.5000000E-15
  1.000000000000000E-004
  CAR 
 Ir_Ru                                   
     14.27344970     -1.29192991  301      9.45692778      1.00000000
     -1.292  0.0000E+00  0.0000E+00
     -1.240  0.0000E+00  0.0000E+00
     -1.188  0.0000E+00  0.0000E+00
     -1.136 -0.2785E-30 -0.1445E-31
     -1.084 -0.1275E-26 -0.6616E-28
     -1.033 -0.3392E-23 -0.1761E-24
     -0.981 -0.5242E-20 -0.2722E-21
     -0.929 -0.4701E-17 -0.2442E-18
     -0.877 -0.2385E-14 -0.1240E-15
     -0.825 -0.7106E-12 -0.3699E-13
     -0.773 -0.1227E-09 -0.6404E-11
     -0.721 -0.1219E-07 -0.6391E-09
     -0.669 -0.6943E-06 -0.3666E-07
     -0.617 -0.2253E-04 -0.1206E-05
     -0.566 -0.4135E-03 -0.2266E-04
     -0.514 -0.4251E-02 -0.2432E-03
     -0.462 -0.2423E-01 -0.1500E-02
     -0.410 -0.7506E-01 -0.5395E-02
     -0.358 -0.1021E+00 -0.1069E-01
     -0.306  0.2042E+00 -0.9390E-04
     -0.254  0.1634E+01  0.8470E-01
     -0.202  0.4392E+01  0.3126E+00
     -0.150  0.6352E+01  0.6422E+00
     -0.099  0.6423E+01  0.9754E+00
     -0.047  0.6959E+01  0.1336E+01
      0.005  0.8853E+01  0.1796E+01
      0.057  0.1117E+02  0.2376E+01
      0.109  0.1360E+02  0.3081E+01
      0.161  0.1435E+02  0.3826E+01
      0.213  0.1171E+02  0.4434E+01
      0.265  0.1006E+02  0.4956E+01
      0.316  0.1425E+02  0.5695E+01
      0.368  0.2033E+02  0.6750E+01
      0.420  0.2252E+02  0.7919E+01
      0.472  0.2271E+02  0.9097E+01
      0.524  0.2351E+02  0.1032E+02
      0.576  0.2254E+02  0.1149E+02
      0.628  0.2046E+02  0.1255E+02
      0.680  0.2100E+02  0.1364E+02
      0.732  0.2038E+02  0.1469E+02
      0.783  0.1461E+02  0.1545E+02
      0.835  0.8880E+01  0.1591E+02
      0.887  0.8006E+01  0.1633E+02
      0.939  0.1167E+02  0.1693E+02
      0.991  0.1885E+02  0.1791E+02
      1.043  0.2779E+02  0.1935E+02
      1.095  0.3333E+02  0.2108E+02
      1.147  0.3310E+02  0.2280E+02
      1.199  0.2888E+02  0.2430E+02
      1.250  0.2288E+02  0.2549E+02
      1.302  0.1947E+02  0.2650E+02
      1.354  0.2163E+02  0.2762E+02
      1.406  0.2712E+02  0.2903E+02
      1.458  0.3035E+02  0.3060E+02
      1.510  0.2985E+02  0.3215E+02
      1.562  0.2934E+02  0.3367E+02
      1.614  0.3039E+02  0.3525E+02
      1.665  0.3111E+02  0.3686E+02
      1.717  0.3201E+02  0.3852E+02
      1.769  0.3498E+02  0.4034E+02
      1.821  0.3904E+02  0.4236E+02
      1.873  0.4539E+02  0.4472E+02
      1.925  0.5458E+02  0.4755E+02
      1.977  0.5937E+02  0.5063E+02
      2.029  0.5486E+02  0.5348E+02
      2.081  0.5047E+02  0.5610E+02
      2.132  0.6129E+02  0.5928E+02
      2.184  0.8650E+02  0.6376E+02
      2.236  0.1085E+03  0.6939E+02
      2.288  0.1196E+03  0.7560E+02
      2.340  0.1257E+03  0.8213E+02
      2.392  0.1315E+03  0.8895E+02
      2.444  0.1374E+03  0.9608E+02
      2.496  0.1470E+03  0.1037E+03
      2.548  0.1641E+03  0.1122E+03
      2.599  0.1826E+03  0.1217E+03
      2.651  0.1947E+03  0.1318E+03
      2.703  0.2065E+03  0.1425E+03
      2.755  0.2235E+03  0.1541E+03
      2.807  0.2309E+03  0.1661E+03
      2.859  0.2248E+03  0.1777E+03
      2.911  0.2276E+03  0.1895E+03
      2.963  0.2449E+03  0.2023E+03
      3.014  0.2578E+03  0.2156E+03
      3.066  0.2600E+03  0.2291E+03
      3.118  0.2604E+03  0.2426E+03
      3.170  0.2638E+03  0.2563E+03
      3.222  0.2727E+03  0.2705E+03
      3.274  0.2878E+03  0.2854E+03
      3.326  0.3071E+03  0.3013E+03
      3.378  0.3242E+03  0.3181E+03
      3.430  0.3308E+03  0.3353E+03
      3.481  0.3279E+03  0.3523E+03
      3.533  0.3215E+03  0.3690E+03
      3.585  0.3182E+03  0.3855E+03
      3.637  0.3167E+03  0.4019E+03
      3.689  0.3112E+03  0.4181E+03
      3.741  0.3052E+03  0.4339E+03
      3.793  0.3012E+03  0.4496E+03
      3.845  0.2969E+03  0.4650E+03
      3.897  0.2933E+03  0.4802E+03
      3.948  0.2887E+03  0.4952E+03
      4.000  0.2763E+03  0.5095E+03
      4.052  0.2664E+03  0.5233E+03
      4.104  0.2752E+03  0.5376E+03
      4.156  0.2938E+03  0.5528E+03
      4.208  0.3027E+03  0.5685E+03
      4.260  0.3051E+03  0.5844E+03
      4.312  0.3120E+03  0.6006E+03
      4.363  0.3186E+03  0.6171E+03
      4.415  0.3211E+03  0.6338E+03
      4.467  0.3236E+03  0.6505E+03
      4.519  0.3213E+03  0.6672E+03
      4.571  0.3099E+03  0.6833E+03
      4.623  0.2974E+03  0.6987E+03
      4.675  0.2935E+03  0.7140E+03
      4.727  0.2980E+03  0.7294E+03
      4.779  0.3056E+03  0.7453E+03
      4.830  0.3176E+03  0.7617E+03
      4.882  0.3313E+03  0.7789E+03
      4.934  0.3377E+03  0.7965E+03
      4.986  0.3450E+03  0.8144E+03
      5.038  0.3581E+03  0.8329E+03
      5.090  0.3655E+03  0.8519E+03
      5.142  0.3641E+03  0.8708E+03
      5.194  0.3551E+03  0.8892E+03
      5.246  0.3350E+03  0.9066E+03
      5.297  0.3030E+03  0.9223E+03
      5.349  0.2622E+03  0.9359E+03
      5.401  0.2190E+03  0.9473E+03
      5.453  0.1849E+03  0.9569E+03
      5.505  0.1726E+03  0.9658E+03
      5.557  0.1887E+03  0.9756E+03
      5.609  0.2267E+03  0.9874E+03
      5.661  0.2749E+03  0.1002E+04
      5.712  0.3250E+03  0.1019E+04
      5.764  0.3672E+03  0.1038E+04
      5.816  0.3950E+03  0.1058E+04
      5.868  0.4103E+03  0.1079E+04
      5.920  0.4190E+03  0.1101E+04
      5.972  0.4255E+03  0.1123E+04
      6.024  0.4281E+03  0.1145E+04
      6.076  0.4167E+03  0.1167E+04
      6.128  0.3924E+03  0.1187E+04
      6.179  0.3722E+03  0.1207E+04
      6.231  0.3615E+03  0.1225E+04
      6.283  0.3556E+03  0.1244E+04
      6.335  0.3563E+03  0.1262E+04
      6.387  0.3687E+03  0.1281E+04
      6.439  0.3817E+03  0.1301E+04
      6.491  0.3842E+03  0.1321E+04
      6.543  0.3913E+03  0.1342E+04
      6.595  0.4096E+03  0.1363E+04
      6.646  0.4240E+03  0.1385E+04
      6.698  0.4281E+03  0.1407E+04
      6.750  0.4252E+03  0.1429E+04
      6.802  0.4135E+03  0.1450E+04
      6.854  0.3926E+03  0.1471E+04
      6.906  0.3737E+03  0.1490E+04
      6.958  0.3665E+03  0.1509E+04
      7.010  0.3637E+03  0.1528E+04
      7.061  0.3677E+03  0.1547E+04
      7.113  0.3905E+03  0.1567E+04
      7.165  0.4145E+03  0.1589E+04
      7.217  0.4223E+03  0.1611E+04
      7.269  0.4224E+03  0.1633E+04
      7.321  0.4138E+03  0.1654E+04
      7.373  0.3887E+03  0.1674E+04
      7.425  0.3594E+03  0.1693E+04
      7.477  0.3405E+03  0.1711E+04
      7.528  0.3327E+03  0.1728E+04
      7.580  0.3289E+03  0.1745E+04
      7.632  0.3175E+03  0.1762E+04
      7.684  0.2963E+03  0.1777E+04
      7.736  0.2779E+03  0.1791E+04
      7.788  0.2688E+03  0.1805E+04
      7.840  0.2637E+03  0.1819E+04
      7.892  0.2577E+03  0.1832E+04
      7.944  0.2486E+03  0.1845E+04
      7.995  0.2428E+03  0.1858E+04
      8.047  0.2432E+03  0.1870E+04
      8.099  0.2394E+03  0.1883E+04
      8.151  0.2315E+03  0.1895E+04
      8.203  0.2290E+03  0.1907E+04
      8.255  0.2333E+03  0.1919E+04
      8.307  0.2377E+03  0.1931E+04
      8.359  0.2391E+03  0.1944E+04
      8.410  0.2371E+03  0.1956E+04
      8.462  0.2290E+03  0.1968E+04
      8.514  0.2187E+03  0.1979E+04
      8.566  0.2122E+03  0.1990E+04
      8.618  0.2073E+03  0.2001E+04
      8.670  0.2000E+03  0.2011E+04
      8.722  0.1916E+03  0.2021E+04
      8.774  0.1833E+03  0.2031E+04
      8.826  0.1794E+03  0.2040E+04
      8.877  0.1877E+03  0.2050E+04
      8.929  0.2123E+03  0.2061E+04
      8.981  0.2351E+03  0.2073E+04
      9.033  0.2366E+03  0.2085E+04
      9.085  0.2240E+03  0.2097E+04
      9.137  0.2070E+03  0.2108E+04
      9.189  0.1875E+03  0.2117E+04
      9.241  0.1788E+03  0.2127E+04
      9.293  0.1966E+03  0.2137E+04
      9.344  0.2276E+03  0.2149E+04
      9.396  0.2428E+03  0.2161E+04
      9.448  0.2428E+03  0.2174E+04
      9.500  0.2448E+03  0.2187E+04
      9.552  0.2445E+03  0.2199E+04
      9.604  0.2460E+03  0.2212E+04
      9.656  0.2732E+03  0.2226E+04
      9.708  0.3164E+03  0.2243E+04
      9.759  0.3356E+03  0.2260E+04
      9.811  0.3267E+03  0.2277E+04
      9.863  0.3167E+03  0.2293E+04
      9.915  0.3152E+03  0.2310E+04
      9.967  0.3214E+03  0.2326E+04
     10.019  0.3422E+03  0.2344E+04
     10.071  0.3788E+03  0.2364E+04
     10.123  0.4122E+03  0.2385E+04
     10.175  0.4282E+03  0.2407E+04
     10.226  0.4359E+03  0.2430E+04
     10.278  0.4480E+03  0.2453E+04
     10.330  0.4661E+03  0.2478E+04
     10.382  0.4841E+03  0.2503E+04
     10.434  0.4942E+03  0.2528E+04
     10.486  0.4866E+03  0.2554E+04
     10.538  0.4504E+03  0.2577E+04
     10.590  0.3916E+03  0.2597E+04
     10.642  0.3246E+03  0.2614E+04
     10.693  0.2437E+03  0.2627E+04
     10.745  0.1455E+03  0.2634E+04
     10.797  0.5614E+02  0.2637E+04
     10.849  0.6367E+01  0.2637E+04
     10.901 -0.5382E+01  0.2637E+04
     10.953 -0.2983E+01  0.2637E+04
     11.005 -0.7207E+00  0.2637E+04
     11.057 -0.1043E+00  0.2637E+04
     11.108 -0.1038E-01  0.2637E+04
     11.160 -0.7401E-03  0.2637E+04
     11.212 -0.3569E-04  0.2637E+04
     11.264 -0.1077E-05  0.2637E+04
     11.316 -0.1936E-07  0.2637E+04
     11.368 -0.2033E-09  0.2637E+04
     11.420 -0.1770E-11  0.2637E+04
     11.472 -0.1054E-09  0.2637E+04
     11.524 -0.1210E-07  0.2637E+04
     11.575 -0.8024E-06  0.2637E+04
     11.627 -0.3056E-04  0.2637E+04
     11.679 -0.6602E-03  0.2637E+04
     11.731 -0.7887E-02  0.2637E+04
     11.783 -0.4886E-01  0.2637E+04
     11.835 -0.1243E+00  0.2637E+04
     11.887  0.1032E+00  0.2637E+04
     11.939  0.1231E+01  0.2637E+04
     11.991  0.2525E+01  0.2637E+04
     12.042  0.2174E+01  0.2637E+04
     12.094  0.6320E+00  0.2637E+04
     12.146 -0.2266E+00  0.2637E+04
     12.198  0.3599E+00  0.2637E+04
     12.250  0.2263E+01  0.2637E+04
     12.302  0.3920E+01  0.2638E+04
     12.354  0.4102E+01  0.2638E+04
     12.406  0.3728E+01  0.2638E+04
     12.457  0.3237E+01  0.2638E+04
     12.509  0.2462E+01  0.2638E+04
     12.561  0.2277E+01  0.2638E+04
     12.613  0.2902E+01  0.2639E+04
     12.665  0.3810E+01  0.2639E+04
     12.717  0.4361E+01  0.2639E+04
     12.769  0.3331E+01  0.2639E+04
     12.821  0.1931E+01  0.2639E+04
     12.873  0.1996E+01  0.2639E+04
     12.924  0.2285E+01  0.2640E+04
     12.976  0.1766E+01  0.2640E+04
     13.028  0.1219E+01  0.2640E+04
     13.080  0.8947E+00  0.2640E+04
     13.132  0.6778E+00  0.2640E+04
     13.184  0.8777E+00  0.2640E+04
     13.236  0.1226E+01  0.2640E+04
     13.288  0.1187E+01  0.2640E+04
     13.340  0.6896E+00  0.2640E+04
     13.391  0.1513E+00  0.2640E+04
     13.443 -0.4716E-01  0.2640E+04
     13.495 -0.3341E-01  0.2640E+04
     13.547 -0.7269E-02  0.2640E+04
     13.599 -0.7688E-03  0.2640E+04
     13.651 -0.4348E-04  0.2640E+04
     13.703 -0.1364E-05  0.2640E+04
     13.755 -0.2416E-07  0.2640E+04
     13.806 -0.2442E-09  0.2640E+04
     13.858 -0.1417E-11  0.2640E+04
     13.910 -0.4755E-14  0.2640E+04
     13.962  0.0000E+00  0.2640E+04
     14.014  0.0000E+00  0.2640E+04
     14.066  0.0000E+00  0.2640E+04
     14.118  0.0000E+00  0.2640E+04
     14.170  0.0000E+00  0.2640E+04
     14.222  0.0000E+00  0.2640E+04
     14.273  0.0000E+00  0.2640E+04
