       N       E                     dE             d eps       ncg     rms          rms(c)
RMM:   1     0.136791159000E+05    0.13679E+05   -0.47218E+05 25080   0.725E+02
RMM:   2     0.131339266722E+04   -0.12366E+05   -0.13120E+05 25080   0.260E+02
RMM:   3    -0.104565484301E+04   -0.23590E+04   -0.22856E+04 25080   0.111E+02
RMM:   4    -0.184598575762E+04   -0.80033E+03   -0.57407E+03 25080   0.768E+01
RMM:   5    -0.212911076038E+04   -0.28313E+03   -0.24897E+03 25080   0.451E+01
RMM:   6    -0.227483112238E+04   -0.14572E+03   -0.12952E+03 25080   0.349E+01
RMM:   7    -0.235269347245E+04   -0.77862E+02   -0.73853E+02 25080   0.235E+01
RMM:   8    -0.240018942787E+04   -0.47496E+02   -0.44555E+02 25080   0.195E+01
RMM:   9    -0.247908196286E+04   -0.78893E+02   -0.77973E+02 71877   0.137E+01
RMM:  10    -0.248863556206E+04   -0.95536E+01   -0.11977E+02 79673   0.283E+00
RMM:  11    -0.249087637659E+04   -0.22408E+01   -0.17842E+01 77272   0.686E-01
RMM:  12    -0.249118343116E+04   -0.30705E+00   -0.19889E+00 79548   0.198E-01    0.782E+01
RMM:  13    -0.241362739463E+04    0.77556E+02   -0.68468E+02 57174   0.246E+01    0.583E+01
RMM:  14    -0.236777785171E+04    0.45850E+02   -0.34119E+02 51443   0.174E+01    0.416E+01
RMM:  15    -0.233562732973E+04    0.32151E+02   -0.11847E+02 53341   0.101E+01    0.255E+01
RMM:  16    -0.232133135380E+04    0.14296E+02   -0.25849E+01 56028   0.434E+00    0.442E+00
RMM:  17    -0.232152731231E+04   -0.19596E+00   -0.64761E+00 73789   0.130E+00    0.443E+00
RMM:  18    -0.232113924764E+04    0.38806E+00   -0.11746E+00 64659   0.688E-01    0.342E+00
RMM:  19    -0.232074732615E+04    0.39192E+00   -0.67096E-01 59421   0.772E-01    0.162E+00
RMM:  20    -0.232069199818E+04    0.55328E-01   -0.24214E-01 62707   0.365E-01    0.148E+00
RMM:  21    -0.232066348803E+04    0.28510E-01   -0.10835E-01 63727   0.221E-01    0.128E+00
RMM:  22    -0.232063512153E+04    0.28367E-01   -0.47445E-02 61528   0.156E-01    0.703E-01
RMM:  23    -0.232063000765E+04    0.51139E-02   -0.13774E-02 66702   0.694E-02    0.480E-01
RMM:  24    -0.232062663497E+04    0.33727E-02   -0.10245E-02 63025   0.742E-02    0.246E-01
RMM:  25    -0.232062755325E+04   -0.91828E-03   -0.13051E-02 65918   0.793E-02    0.256E-01
RMM:  26    -0.232062769715E+04   -0.14390E-03   -0.32523E-03 75035   0.286E-02    0.265E-01
RMM:  27    -0.232062677406E+04    0.92309E-03   -0.73118E-04 59935   0.210E-02    0.172E-01
RMM:  28    -0.232062620618E+04    0.56787E-03   -0.12420E-03 63290   0.259E-02    0.615E-02
RMM:  29    -0.232062615636E+04    0.49821E-04   -0.46794E-04 72740   0.126E-02
   1 F= -.23206262E+04 E0= -.23206261E+04  d E =-.369445E-04
