 256 256   0   0
  0.1419206E+02  0.1537080E-08  0.1537218E-08  0.1537636E-08  0.5000000E-15
  1.000000000000000E-004
  CAR 
 Ir_Ru                                   
     12.68362024     -1.29485511  301      9.24207634      1.00000000
     -1.295  0.0000E+00  0.0000E+00
     -1.248  0.0000E+00  0.0000E+00
     -1.202  0.0000E+00  0.0000E+00
     -1.155  0.0000E+00  0.0000E+00
     -1.108 -0.2741E-28 -0.1277E-29
     -1.062 -0.4088E-25 -0.1906E-26
     -1.015 -0.3932E-22 -0.1834E-23
     -0.969 -0.2441E-19 -0.1139E-20
     -0.922 -0.9777E-17 -0.4567E-18
     -0.876 -0.2452E-14 -0.1147E-15
     -0.829 -0.4066E-12 -0.1906E-13
     -0.782 -0.4342E-10 -0.2042E-11
     -0.736 -0.2988E-08 -0.1413E-09
     -0.689 -0.1326E-06 -0.6321E-08
     -0.643 -0.3801E-05 -0.1834E-06
     -0.596 -0.7055E-04 -0.3471E-05
     -0.549 -0.8503E-03 -0.4309E-04
     -0.503 -0.6659E-02 -0.3533E-03
     -0.456 -0.3347E-01 -0.1913E-02
     -0.410 -0.1019E+00 -0.6660E-02
     -0.363 -0.1379E+00 -0.1308E-01
     -0.316  0.2222E+00 -0.2729E-02
     -0.270  0.1505E+01  0.6740E-01
     -0.223  0.3534E+01  0.2321E+00
     -0.177  0.5068E+01  0.4682E+00
     -0.130  0.5731E+01  0.7353E+00
     -0.083  0.7320E+01  0.1076E+01
     -0.037  0.1019E+02  0.1551E+01
      0.010  0.1102E+02  0.2065E+01
      0.056  0.9158E+01  0.2491E+01
      0.103  0.9377E+01  0.2928E+01
      0.150  0.1314E+02  0.3541E+01
      0.196  0.1591E+02  0.4282E+01
      0.243  0.1605E+02  0.5030E+01
      0.289  0.1673E+02  0.5809E+01
      0.336  0.1849E+02  0.6671E+01
      0.383  0.1834E+02  0.7526E+01
      0.429  0.1742E+02  0.8337E+01
      0.476  0.1978E+02  0.9259E+01
      0.522  0.2336E+02  0.1035E+02
      0.569  0.2406E+02  0.1147E+02
      0.616  0.2230E+02  0.1251E+02
      0.662  0.1876E+02  0.1338E+02
      0.709  0.1410E+02  0.1404E+02
      0.755  0.1114E+02  0.1456E+02
      0.802  0.1070E+02  0.1506E+02
      0.849  0.1113E+02  0.1557E+02
      0.895  0.1212E+02  0.1614E+02
      0.942  0.1458E+02  0.1682E+02
      0.988  0.1827E+02  0.1767E+02
      1.035  0.2280E+02  0.1873E+02
      1.081  0.2798E+02  0.2004E+02
      1.128  0.3122E+02  0.2149E+02
      1.175  0.2980E+02  0.2288E+02
      1.221  0.2599E+02  0.2409E+02
      1.268  0.2312E+02  0.2517E+02
      1.314  0.2100E+02  0.2615E+02
      1.361  0.2002E+02  0.2708E+02
      1.408  0.2158E+02  0.2808E+02
      1.454  0.2403E+02  0.2920E+02
      1.501  0.2564E+02  0.3040E+02
      1.547  0.2893E+02  0.3175E+02
      1.594  0.3506E+02  0.3338E+02
      1.641  0.3875E+02  0.3519E+02
      1.687  0.3786E+02  0.3695E+02
      1.734  0.3917E+02  0.3878E+02
      1.780  0.4540E+02  0.4089E+02
      1.827  0.4933E+02  0.4319E+02
      1.874  0.4788E+02  0.4542E+02
      1.920  0.4727E+02  0.4762E+02
      1.967  0.5080E+02  0.4999E+02
      2.013  0.5404E+02  0.5251E+02
      2.060  0.5545E+02  0.5509E+02
      2.107  0.6128E+02  0.5795E+02
      2.153  0.7438E+02  0.6141E+02
      2.200  0.8917E+02  0.6557E+02
      2.246  0.1029E+03  0.7036E+02
      2.293  0.1176E+03  0.7584E+02
      2.340  0.1309E+03  0.8194E+02
      2.386  0.1382E+03  0.8838E+02
      2.433  0.1431E+03  0.9505E+02
      2.479  0.1521E+03  0.1021E+03
      2.526  0.1608E+03  0.1096E+03
      2.573  0.1617E+03  0.1172E+03
      2.619  0.1613E+03  0.1247E+03
      2.666  0.1688E+03  0.1325E+03
      2.712  0.1784E+03  0.1409E+03
      2.759  0.1847E+03  0.1495E+03
      2.805  0.1974E+03  0.1587E+03
      2.852  0.2224E+03  0.1690E+03
      2.899  0.2473E+03  0.1805E+03
      2.945  0.2563E+03  0.1925E+03
      2.992  0.2499E+03  0.2041E+03
      3.038  0.2467E+03  0.2156E+03
      3.085  0.2618E+03  0.2278E+03
      3.132  0.2862E+03  0.2412E+03
      3.178  0.3011E+03  0.2552E+03
      3.225  0.3039E+03  0.2694E+03
      3.271  0.3051E+03  0.2836E+03
      3.318  0.3086E+03  0.2980E+03
      3.365  0.3113E+03  0.3125E+03
      3.411  0.3144E+03  0.3271E+03
      3.458  0.3214E+03  0.3421E+03
      3.504  0.3331E+03  0.3576E+03
      3.551  0.3440E+03  0.3736E+03
      3.598  0.3470E+03  0.3898E+03
      3.644  0.3451E+03  0.4059E+03
      3.691  0.3488E+03  0.4221E+03
      3.737  0.3578E+03  0.4388E+03
      3.784  0.3595E+03  0.4556E+03
      3.831  0.3525E+03  0.4720E+03
      3.877  0.3479E+03  0.4882E+03
      3.924  0.3496E+03  0.5045E+03
      3.970  0.3507E+03  0.5208E+03
      4.017  0.3418E+03  0.5367E+03
      4.064  0.3232E+03  0.5518E+03
      4.110  0.3069E+03  0.5661E+03
      4.157  0.2977E+03  0.5800E+03
      4.203  0.2876E+03  0.5934E+03
      4.250  0.2715E+03  0.6060E+03
      4.297  0.2539E+03  0.6179E+03
      4.343  0.2428E+03  0.6292E+03
      4.390  0.2451E+03  0.6406E+03
      4.436  0.2576E+03  0.6526E+03
      4.483  0.2617E+03  0.6648E+03
      4.530  0.2507E+03  0.6765E+03
      4.576  0.2474E+03  0.6880E+03
      4.623  0.2668E+03  0.7004E+03
      4.669  0.2919E+03  0.7140E+03
      4.716  0.3070E+03  0.7283E+03
      4.762  0.3139E+03  0.7430E+03
      4.809  0.3137E+03  0.7576E+03
      4.856  0.3051E+03  0.7718E+03
      4.902  0.2904E+03  0.7853E+03
      4.949  0.2785E+03  0.7983E+03
      4.995  0.2809E+03  0.8114E+03
      5.042  0.2950E+03  0.8251E+03
      5.089  0.3079E+03  0.8395E+03
      5.135  0.3094E+03  0.8539E+03
      5.182  0.2979E+03  0.8678E+03
      5.228  0.2857E+03  0.8811E+03
      5.275  0.2844E+03  0.8943E+03
      5.322  0.2902E+03  0.9079E+03
      5.368  0.2971E+03  0.9217E+03
      5.415  0.3018E+03  0.9358E+03
      5.461  0.2987E+03  0.9497E+03
      5.508  0.2887E+03  0.9631E+03
      5.555  0.2864E+03  0.9765E+03
      5.601  0.3022E+03  0.9906E+03
      5.648  0.3214E+03  0.1006E+04
      5.694  0.3254E+03  0.1021E+04
      5.741  0.3203E+03  0.1036E+04
      5.788  0.3199E+03  0.1051E+04
      5.834  0.3260E+03  0.1066E+04
      5.881  0.3365E+03  0.1081E+04
      5.927  0.3499E+03  0.1098E+04
      5.974  0.3651E+03  0.1115E+04
      6.021  0.3788E+03  0.1132E+04
      6.067  0.3854E+03  0.1150E+04
      6.114  0.3875E+03  0.1168E+04
      6.160  0.3915E+03  0.1187E+04
      6.207  0.3984E+03  0.1205E+04
      6.254  0.4093E+03  0.1224E+04
      6.300  0.4270E+03  0.1244E+04
      6.347  0.4464E+03  0.1265E+04
      6.393  0.4573E+03  0.1286E+04
      6.440  0.4571E+03  0.1308E+04
      6.486  0.4530E+03  0.1329E+04
      6.533  0.4499E+03  0.1350E+04
      6.580  0.4457E+03  0.1370E+04
      6.626  0.4395E+03  0.1391E+04
      6.673  0.4321E+03  0.1411E+04
      6.719  0.4250E+03  0.1431E+04
      6.766  0.4172E+03  0.1450E+04
      6.813  0.4019E+03  0.1469E+04
      6.859  0.3772E+03  0.1487E+04
      6.906  0.3547E+03  0.1503E+04
      6.952  0.3445E+03  0.1519E+04
      6.999  0.3395E+03  0.1535E+04
      7.046  0.3279E+03  0.1550E+04
      7.092  0.3149E+03  0.1565E+04
      7.139  0.3134E+03  0.1579E+04
      7.185  0.3193E+03  0.1594E+04
      7.232  0.3136E+03  0.1609E+04
      7.279  0.2880E+03  0.1622E+04
      7.325  0.2564E+03  0.1634E+04
      7.372  0.2404E+03  0.1646E+04
      7.418  0.2484E+03  0.1657E+04
      7.465  0.2707E+03  0.1670E+04
      7.512  0.2845E+03  0.1683E+04
      7.558  0.2767E+03  0.1696E+04
      7.605  0.2588E+03  0.1708E+04
      7.651  0.2484E+03  0.1720E+04
      7.698  0.2568E+03  0.1731E+04
      7.745  0.2822E+03  0.1745E+04
      7.791  0.3051E+03  0.1759E+04
      7.838  0.3120E+03  0.1773E+04
      7.884  0.3089E+03  0.1788E+04
      7.931  0.3032E+03  0.1802E+04
      7.978  0.2962E+03  0.1816E+04
      8.024  0.2911E+03  0.1829E+04
      8.071  0.2956E+03  0.1843E+04
      8.117  0.3090E+03  0.1857E+04
      8.164  0.3170E+03  0.1872E+04
      8.211  0.3177E+03  0.1887E+04
      8.257  0.3294E+03  0.1902E+04
      8.304  0.3531E+03  0.1919E+04
      8.350  0.3622E+03  0.1936E+04
      8.397  0.3404E+03  0.1952E+04
      8.443  0.3009E+03  0.1966E+04
      8.490  0.2676E+03  0.1978E+04
      8.537  0.2557E+03  0.1990E+04
      8.583  0.2703E+03  0.2003E+04
      8.630  0.2950E+03  0.2016E+04
      8.676  0.3003E+03  0.2030E+04
      8.723  0.2844E+03  0.2044E+04
      8.770  0.2678E+03  0.2056E+04
      8.816  0.2572E+03  0.2068E+04
      8.863  0.2493E+03  0.2080E+04
      8.909  0.2452E+03  0.2091E+04
      8.956  0.2453E+03  0.2102E+04
      9.003  0.2531E+03  0.2114E+04
      9.049  0.2729E+03  0.2127E+04
      9.096  0.2841E+03  0.2140E+04
      9.142  0.2668E+03  0.2153E+04
      9.189  0.2413E+03  0.2164E+04
      9.236  0.2284E+03  0.2175E+04
      9.282  0.2201E+03  0.2185E+04
      9.329  0.2139E+03  0.2195E+04
      9.375  0.2215E+03  0.2205E+04
      9.422  0.2419E+03  0.2216E+04
      9.469  0.2618E+03  0.2229E+04
      9.515  0.2734E+03  0.2241E+04
      9.562  0.2773E+03  0.2254E+04
      9.608  0.2763E+03  0.2267E+04
      9.655  0.2711E+03  0.2280E+04
      9.702  0.2613E+03  0.2292E+04
      9.748  0.2444E+03  0.2303E+04
      9.795  0.2248E+03  0.2314E+04
      9.841  0.2194E+03  0.2324E+04
      9.888  0.2359E+03  0.2335E+04
      9.935  0.2634E+03  0.2347E+04
      9.981  0.2942E+03  0.2361E+04
     10.028  0.3263E+03  0.2376E+04
     10.074  0.3486E+03  0.2392E+04
     10.121  0.3467E+03  0.2409E+04
     10.167  0.3245E+03  0.2424E+04
     10.214  0.3102E+03  0.2438E+04
     10.261  0.3280E+03  0.2453E+04
     10.307  0.3849E+03  0.2471E+04
     10.354  0.4641E+03  0.2493E+04
     10.400  0.5177E+03  0.2517E+04
     10.447  0.5102E+03  0.2541E+04
     10.494  0.4525E+03  0.2562E+04
     10.540  0.3762E+03  0.2579E+04
     10.587  0.3041E+03  0.2594E+04
     10.633  0.2497E+03  0.2605E+04
     10.680  0.2134E+03  0.2615E+04
     10.727  0.1819E+03  0.2624E+04
     10.773  0.1434E+03  0.2630E+04
     10.820  0.9881E+02  0.2635E+04
     10.866  0.5761E+02  0.2638E+04
     10.913  0.2790E+02  0.2639E+04
     10.960  0.1072E+02  0.2639E+04
     11.006  0.3072E+01  0.2640E+04
     11.053  0.1345E+01  0.2640E+04
     11.099  0.1792E+01  0.2640E+04
     11.146  0.1680E+01  0.2640E+04
     11.193  0.7318E+00  0.2640E+04
     11.239  0.2127E-01  0.2640E+04
     11.286 -0.1175E+00  0.2640E+04
     11.332 -0.5323E-01  0.2640E+04
     11.379 -0.1170E-01  0.2640E+04
     11.426 -0.3505E-02  0.2640E+04
     11.472 -0.1303E-01  0.2640E+04
     11.519 -0.4219E-01  0.2640E+04
     11.565 -0.3636E-01  0.2640E+04
     11.612  0.1973E+00  0.2640E+04
     11.659  0.7129E+00  0.2640E+04
     11.705  0.1026E+01  0.2640E+04
     11.752  0.7257E+00  0.2640E+04
     11.798  0.2073E+00  0.2640E+04
     11.845 -0.3433E-01  0.2640E+04
     11.892 -0.4296E-01  0.2640E+04
     11.938 -0.1341E-01  0.2640E+04
     11.985 -0.2181E-02  0.2640E+04
     12.031 -0.2081E-03  0.2640E+04
     12.078 -0.1215E-04  0.2640E+04
     12.124 -0.4437E-06  0.2640E+04
     12.171 -0.1024E-07  0.2640E+04
     12.218 -0.1504E-09  0.2640E+04
     12.264 -0.1412E-11  0.2640E+04
     12.311 -0.8637E-14  0.2640E+04
     12.357  0.0000E+00  0.2640E+04
     12.404  0.0000E+00  0.2640E+04
     12.451  0.0000E+00  0.2640E+04
     12.497  0.0000E+00  0.2640E+04
     12.544  0.0000E+00  0.2640E+04
     12.590  0.0000E+00  0.2640E+04
     12.637  0.0000E+00  0.2640E+04
     12.684  0.0000E+00  0.2640E+04
