  96  96   0   0
  0.1460328E+02  0.1100386E-08  0.1100386E-08  0.1336923E-08  0.5000000E-15
  1.000000000000000E-004
  CAR 
 Ir_Ru                                   
     19.31282883     -1.85299208  301      9.97718337      1.00000000
     -1.853  0.0000E+00  0.0000E+00
     -1.782  0.0000E+00  0.0000E+00
     -1.712 -0.6294E-32 -0.4441E-33
     -1.641 -0.6441E-27 -0.4545E-28
     -1.571 -0.2416E-22 -0.1705E-23
     -1.500 -0.3317E-18 -0.2340E-19
     -1.430 -0.1615E-14 -0.1140E-15
     -1.359 -0.2918E-11 -0.2060E-12
     -1.289 -0.1904E-08 -0.1345E-09
     -1.218 -0.4442E-06 -0.3147E-07
     -1.147 -0.3653E-04 -0.2609E-05
     -1.077 -0.1039E-02 -0.7594E-04
     -1.006 -0.1005E-01 -0.7852E-03
     -0.936 -0.3046E-01 -0.2934E-02
     -0.865  0.5087E-01  0.6548E-03
     -0.795  0.6827E+00  0.4882E-01
     -0.724  0.1937E+01  0.1855E+00
     -0.654  0.2318E+01  0.3490E+00
     -0.583  0.1684E+01  0.4678E+00
     -0.512  0.3249E+01  0.6971E+00
     -0.442  0.5561E+01  0.1089E+01
     -0.371  0.3878E+01  0.1363E+01
     -0.301  0.1672E+01  0.1481E+01
     -0.230  0.3492E+01  0.1727E+01
     -0.160  0.7086E+01  0.2227E+01
     -0.089  0.7173E+01  0.2733E+01
     -0.019  0.3811E+01  0.3002E+01
      0.052  0.5281E+01  0.3375E+01
      0.122  0.7265E+01  0.3887E+01
      0.193  0.4613E+01  0.4213E+01
      0.264  0.4978E+01  0.4564E+01
      0.334  0.8018E+01  0.5130E+01
      0.405  0.9767E+01  0.5819E+01
      0.475  0.7479E+01  0.6346E+01
      0.546  0.8516E+01  0.6947E+01
      0.616  0.1109E+02  0.7729E+01
      0.687  0.4865E+01  0.8073E+01
      0.757  0.1746E+01  0.8196E+01
      0.828  0.9732E+01  0.8882E+01
      0.899  0.1663E+02  0.1006E+02
      0.969  0.1320E+02  0.1099E+02
      1.040  0.1068E+02  0.1174E+02
      1.110  0.1015E+02  0.1246E+02
      1.181  0.8706E+01  0.1307E+02
      1.251  0.7649E+01  0.1361E+02
      1.322  0.1022E+02  0.1433E+02
      1.392  0.1570E+02  0.1544E+02
      1.463  0.1803E+02  0.1671E+02
      1.534  0.1348E+02  0.1766E+02
      1.604  0.1433E+02  0.1867E+02
      1.675  0.1635E+02  0.1983E+02
      1.745  0.1546E+02  0.2092E+02
      1.816  0.1847E+02  0.2222E+02
      1.886  0.1988E+02  0.2362E+02
      1.957  0.1541E+02  0.2471E+02
      2.027  0.1155E+02  0.2553E+02
      2.098  0.2268E+02  0.2713E+02
      2.169  0.4180E+02  0.3008E+02
      2.239  0.5029E+02  0.3362E+02
      2.310  0.5852E+02  0.3775E+02
      2.380  0.6609E+02  0.4241E+02
      2.451  0.6877E+02  0.4727E+02
      2.521  0.8438E+02  0.5322E+02
      2.592  0.7819E+02  0.5874E+02
      2.662  0.7191E+02  0.6381E+02
      2.733  0.8770E+02  0.7000E+02
      2.803  0.9804E+02  0.7692E+02
      2.874  0.9569E+02  0.8367E+02
      2.945  0.8054E+02  0.8935E+02
      3.015  0.7906E+02  0.9493E+02
      3.086  0.1080E+03  0.1025E+03
      3.156  0.1331E+03  0.1119E+03
      3.227  0.1085E+03  0.1196E+03
      3.297  0.8204E+02  0.1254E+03
      3.368  0.9445E+02  0.1320E+03
      3.438  0.1340E+03  0.1415E+03
      3.509  0.1432E+03  0.1516E+03
      3.580  0.1149E+03  0.1597E+03
      3.650  0.9541E+02  0.1664E+03
      3.721  0.8218E+02  0.1722E+03
      3.791  0.9226E+02  0.1788E+03
      3.862  0.1010E+03  0.1859E+03
      3.932  0.8461E+02  0.1918E+03
      4.003  0.5959E+02  0.1960E+03
      4.073  0.7545E+02  0.2014E+03
      4.144  0.1284E+03  0.2104E+03
      4.215  0.1542E+03  0.2213E+03
      4.285  0.1314E+03  0.2306E+03
      4.356  0.1114E+03  0.2384E+03
      4.426  0.1005E+03  0.2455E+03
      4.497  0.9915E+02  0.2525E+03
      4.567  0.1034E+03  0.2598E+03
      4.638  0.1015E+03  0.2670E+03
      4.708  0.1054E+03  0.2744E+03
      4.779  0.1075E+03  0.2820E+03
      4.850  0.1197E+03  0.2904E+03
      4.920  0.1363E+03  0.3001E+03
      4.991  0.1420E+03  0.3101E+03
      5.061  0.1554E+03  0.3210E+03
      5.132  0.1477E+03  0.3315E+03
      5.202  0.1156E+03  0.3396E+03
      5.273  0.1061E+03  0.3471E+03
      5.343  0.9463E+02  0.3538E+03
      5.414  0.6835E+02  0.3586E+03
      5.484  0.5254E+02  0.3623E+03
      5.555  0.5031E+02  0.3659E+03
      5.626  0.6825E+02  0.3707E+03
      5.696  0.9796E+02  0.3776E+03
      5.767  0.1305E+03  0.3868E+03
      5.837  0.1707E+03  0.3989E+03
      5.908  0.1727E+03  0.4110E+03
      5.978  0.1752E+03  0.4234E+03
      6.049  0.1723E+03  0.4356E+03
      6.119  0.1394E+03  0.4454E+03
      6.190  0.1368E+03  0.4550E+03
      6.261  0.1639E+03  0.4666E+03
      6.331  0.1624E+03  0.4781E+03
      6.402  0.1320E+03  0.4874E+03
      6.472  0.1275E+03  0.4964E+03
      6.543  0.1430E+03  0.5065E+03
      6.613  0.1472E+03  0.5169E+03
      6.684  0.1432E+03  0.5270E+03
      6.754  0.1624E+03  0.5384E+03
      6.825  0.1772E+03  0.5509E+03
      6.896  0.1491E+03  0.5614E+03
      6.966  0.1407E+03  0.5714E+03
      7.037  0.1551E+03  0.5823E+03
      7.107  0.1699E+03  0.5943E+03
      7.178  0.1671E+03  0.6061E+03
      7.248  0.1538E+03  0.6169E+03
      7.319  0.1420E+03  0.6269E+03
      7.389  0.1293E+03  0.6361E+03
      7.460  0.1162E+03  0.6443E+03
      7.531  0.1210E+03  0.6528E+03
      7.601  0.1167E+03  0.6610E+03
      7.672  0.9353E+02  0.6676E+03
      7.742  0.8567E+02  0.6737E+03
      7.813  0.8292E+02  0.6795E+03
      7.883  0.8629E+02  0.6856E+03
      7.954  0.9823E+02  0.6925E+03
      8.024  0.1134E+03  0.7005E+03
      8.095  0.9889E+02  0.7075E+03
      8.165  0.6291E+02  0.7120E+03
      8.236  0.5819E+02  0.7161E+03
      8.307  0.7801E+02  0.7216E+03
      8.377  0.9180E+02  0.7280E+03
      8.448  0.9599E+02  0.7348E+03
      8.518  0.9121E+02  0.7413E+03
      8.589  0.7354E+02  0.7464E+03
      8.659  0.7190E+02  0.7515E+03
      8.730  0.5858E+02  0.7557E+03
      8.800  0.5362E+02  0.7594E+03
      8.871  0.6489E+02  0.7640E+03
      8.942  0.7698E+02  0.7694E+03
      9.012  0.9338E+02  0.7760E+03
      9.083  0.1011E+03  0.7832E+03
      9.153  0.8742E+02  0.7893E+03
      9.224  0.6362E+02  0.7938E+03
      9.294  0.5406E+02  0.7976E+03
      9.365  0.5500E+02  0.8015E+03
      9.435  0.6689E+02  0.8062E+03
      9.506  0.7682E+02  0.8117E+03
      9.577  0.1007E+03  0.8188E+03
      9.647  0.1222E+03  0.8274E+03
      9.718  0.1002E+03  0.8344E+03
      9.788  0.1068E+03  0.8420E+03
      9.859  0.1327E+03  0.8513E+03
      9.929  0.1151E+03  0.8595E+03
     10.000  0.9389E+02  0.8661E+03
     10.070  0.1025E+03  0.8733E+03
     10.141  0.1164E+03  0.8815E+03
     10.212  0.1373E+03  0.8912E+03
     10.282  0.1613E+03  0.9026E+03
     10.353  0.1662E+03  0.9143E+03
     10.423  0.1570E+03  0.9254E+03
     10.494  0.1560E+03  0.9364E+03
     10.564  0.1953E+03  0.9502E+03
     10.635  0.2136E+03  0.9653E+03
     10.705  0.1715E+03  0.9774E+03
     10.776  0.1540E+03  0.9882E+03
     10.847  0.1412E+03  0.9982E+03
     10.917  0.1361E+03  0.1008E+04
     10.988  0.1067E+03  0.1015E+04
     11.058  0.6105E+02  0.1020E+04
     11.129  0.3191E+02  0.1022E+04
     11.199  0.2567E+02  0.1024E+04
     11.270  0.3458E+02  0.1026E+04
     11.340  0.2446E+02  0.1028E+04
     11.411  0.9888E+01  0.1029E+04
     11.481  0.1126E+02  0.1029E+04
     11.552  0.3075E+02  0.1032E+04
     11.623  0.4874E+02  0.1035E+04
     11.693  0.3932E+02  0.1038E+04
     11.764  0.2901E+02  0.1040E+04
     11.834  0.2454E+02  0.1042E+04
     11.905  0.2684E+02  0.1043E+04
     11.975  0.2977E+02  0.1046E+04
     12.046  0.2586E+02  0.1047E+04
     12.116  0.2175E+02  0.1049E+04
     12.187  0.2114E+02  0.1050E+04
     12.258  0.2195E+02  0.1052E+04
     12.328  0.2039E+02  0.1053E+04
     12.399  0.1492E+02  0.1054E+04
     12.469  0.2798E+02  0.1056E+04
     12.540  0.4465E+02  0.1060E+04
     12.610  0.4336E+02  0.1063E+04
     12.681  0.3116E+02  0.1065E+04
     12.751  0.2338E+02  0.1066E+04
     12.822  0.2195E+02  0.1068E+04
     12.893  0.1910E+02  0.1069E+04
     12.963  0.1601E+02  0.1070E+04
     13.034  0.2126E+02  0.1072E+04
     13.104  0.2828E+02  0.1074E+04
     13.175  0.2155E+02  0.1075E+04
     13.245  0.2505E+02  0.1077E+04
     13.316  0.3416E+02  0.1080E+04
     13.386  0.2760E+02  0.1082E+04
     13.457  0.2124E+02  0.1083E+04
     13.528  0.2165E+02  0.1085E+04
     13.598  0.2689E+02  0.1087E+04
     13.669  0.2521E+02  0.1088E+04
     13.739  0.1525E+02  0.1089E+04
     13.810  0.1355E+02  0.1090E+04
     13.880  0.2255E+02  0.1092E+04
     13.951  0.2647E+02  0.1094E+04
     14.021  0.2471E+02  0.1096E+04
     14.092  0.2532E+02  0.1097E+04
     14.162  0.3146E+02  0.1100E+04
     14.233  0.2816E+02  0.1102E+04
     14.304  0.1559E+02  0.1103E+04
     14.374  0.1886E+02  0.1104E+04
     14.445  0.3101E+02  0.1106E+04
     14.515  0.2507E+02  0.1108E+04
     14.586  0.2089E+02  0.1109E+04
     14.656  0.2569E+02  0.1111E+04
     14.727  0.3253E+02  0.1113E+04
     14.797  0.4117E+02  0.1116E+04
     14.868  0.2943E+02  0.1118E+04
     14.939  0.1828E+02  0.1120E+04
     15.009  0.1743E+02  0.1121E+04
     15.080  0.9818E+01  0.1122E+04
     15.150  0.6449E+01  0.1122E+04
     15.221  0.2603E+02  0.1124E+04
     15.291  0.4609E+02  0.1127E+04
     15.362  0.4061E+02  0.1130E+04
     15.432  0.2130E+02  0.1132E+04
     15.503  0.4839E+01  0.1132E+04
     15.574  0.1682E+01  0.1132E+04
     15.644  0.9963E+01  0.1133E+04
     15.715  0.1647E+02  0.1134E+04
     15.785  0.1425E+02  0.1135E+04
     15.856  0.1852E+02  0.1136E+04
     15.926  0.2321E+02  0.1138E+04
     15.997  0.1716E+02  0.1139E+04
     16.067  0.1350E+02  0.1140E+04
     16.138  0.1320E+02  0.1141E+04
     16.209  0.1033E+02  0.1142E+04
     16.279  0.7312E+01  0.1142E+04
     16.350  0.8944E+01  0.1143E+04
     16.420  0.1260E+02  0.1144E+04
     16.491  0.1008E+02  0.1144E+04
     16.561  0.9293E+01  0.1145E+04
     16.632  0.1362E+02  0.1146E+04
     16.702  0.1412E+02  0.1147E+04
     16.773  0.8073E+01  0.1148E+04
     16.843  0.5184E+01  0.1148E+04
     16.914  0.5971E+01  0.1148E+04
     16.985  0.4703E+01  0.1149E+04
     17.055  0.3471E+01  0.1149E+04
     17.126  0.3968E+01  0.1149E+04
     17.196  0.3571E+01  0.1150E+04
     17.267  0.3050E+01  0.1150E+04
     17.337  0.3648E+01  0.1150E+04
     17.408  0.4676E+01  0.1150E+04
     17.478  0.4977E+01  0.1151E+04
     17.549  0.4519E+01  0.1151E+04
     17.620  0.3271E+01  0.1151E+04
     17.690  0.2192E+01  0.1151E+04
     17.761  0.1669E+01  0.1151E+04
     17.831  0.1770E+01  0.1152E+04
     17.902  0.1972E+01  0.1152E+04
     17.972  0.9755E+00  0.1152E+04
     18.043  0.1062E+00  0.1152E+04
     18.113  0.5423E-01  0.1152E+04
     18.184  0.1614E+00  0.1152E+04
     18.255  0.7864E+00  0.1152E+04
     18.325  0.1077E+01  0.1152E+04
     18.396  0.4003E+00  0.1152E+04
     18.466 -0.2062E-01  0.1152E+04
     18.537 -0.2481E-01  0.1152E+04
     18.607 -0.2679E-02  0.1152E+04
     18.678 -0.8895E-04  0.1152E+04
     18.748 -0.1022E-05  0.1152E+04
     18.819 -0.4196E-08  0.1152E+04
     18.890 -0.6240E-11  0.1152E+04
     18.960 -0.3273E-14  0.1152E+04
     19.031  0.0000E+00  0.1152E+04
     19.101  0.0000E+00  0.1152E+04
     19.172  0.0000E+00  0.1152E+04
     19.242  0.0000E+00  0.1152E+04
     19.313  0.0000E+00  0.1152E+04
