 256 256   0   0
  0.1418917E+02  0.1588033E-08  0.1692661E-08  0.1693229E-08  0.5000000E-15
  1.000000000000000E-004
  CAR 
 Ir_Ru                                   
     14.27359414     -1.29193090  301      9.45698602      1.00000000
     -1.292  0.0000E+00  0.0000E+00
     -1.240  0.0000E+00  0.0000E+00
     -1.188  0.0000E+00  0.0000E+00
     -1.136 -0.2786E-30 -0.1445E-31
     -1.084 -0.1275E-26 -0.6618E-28
     -1.033 -0.3394E-23 -0.1761E-24
     -0.981 -0.5244E-20 -0.2723E-21
     -0.929 -0.4703E-17 -0.2443E-18
     -0.877 -0.2386E-14 -0.1241E-15
     -0.825 -0.7109E-12 -0.3701E-13
     -0.773 -0.1228E-09 -0.6407E-11
     -0.721 -0.1220E-07 -0.6394E-09
     -0.669 -0.6946E-06 -0.3668E-07
     -0.617 -0.2254E-04 -0.1206E-05
     -0.566 -0.4136E-03 -0.2266E-04
     -0.514 -0.4252E-02 -0.2433E-03
     -0.462 -0.2423E-01 -0.1501E-02
     -0.410 -0.7507E-01 -0.5395E-02
     -0.358 -0.1021E+00 -0.1069E-01
     -0.306  0.2043E+00 -0.8998E-04
     -0.254  0.1635E+01  0.8474E-01
     -0.202  0.4393E+01  0.3127E+00
     -0.150  0.6352E+01  0.6422E+00
     -0.099  0.6422E+01  0.9755E+00
     -0.047  0.6959E+01  0.1337E+01
      0.005  0.8855E+01  0.1796E+01
      0.057  0.1118E+02  0.2376E+01
      0.109  0.1360E+02  0.3082E+01
      0.161  0.1434E+02  0.3826E+01
      0.213  0.1171E+02  0.4433E+01
      0.265  0.1007E+02  0.4956E+01
      0.317  0.1426E+02  0.5696E+01
      0.368  0.2034E+02  0.6751E+01
      0.420  0.2251E+02  0.7919E+01
      0.472  0.2268E+02  0.9095E+01
      0.524  0.2350E+02  0.1031E+02
      0.576  0.2253E+02  0.1148E+02
      0.628  0.2043E+02  0.1254E+02
      0.680  0.2097E+02  0.1363E+02
      0.732  0.2039E+02  0.1469E+02
      0.783  0.1464E+02  0.1545E+02
      0.835  0.8894E+01  0.1591E+02
      0.887  0.8026E+01  0.1633E+02
      0.939  0.1171E+02  0.1693E+02
      0.991  0.1891E+02  0.1792E+02
      1.043  0.2783E+02  0.1936E+02
      1.095  0.3334E+02  0.2109E+02
      1.147  0.3308E+02  0.2281E+02
      1.199  0.2881E+02  0.2430E+02
      1.250  0.2281E+02  0.2548E+02
      1.302  0.1946E+02  0.2649E+02
      1.354  0.2170E+02  0.2762E+02
      1.406  0.2718E+02  0.2903E+02
      1.458  0.3034E+02  0.3060E+02
      1.510  0.2983E+02  0.3215E+02
      1.562  0.2934E+02  0.3368E+02
      1.614  0.3038E+02  0.3525E+02
      1.666  0.3106E+02  0.3686E+02
      1.717  0.3197E+02  0.3852E+02
      1.769  0.3496E+02  0.4034E+02
      1.821  0.3904E+02  0.4236E+02
      1.873  0.4535E+02  0.4471E+02
      1.925  0.5449E+02  0.4754E+02
      1.977  0.5933E+02  0.5062E+02
      2.029  0.5486E+02  0.5347E+02
      2.081  0.5046E+02  0.5608E+02
      2.132  0.6125E+02  0.5926E+02
      2.184  0.8650E+02  0.6375E+02
      2.236  0.1086E+03  0.6938E+02
      2.288  0.1197E+03  0.7560E+02
      2.340  0.1258E+03  0.8212E+02
      2.392  0.1314E+03  0.8894E+02
      2.444  0.1374E+03  0.9607E+02
      2.496  0.1470E+03  0.1037E+03
      2.548  0.1642E+03  0.1122E+03
      2.599  0.1828E+03  0.1217E+03
      2.651  0.1948E+03  0.1318E+03
      2.703  0.2065E+03  0.1425E+03
      2.755  0.2233E+03  0.1541E+03
      2.807  0.2307E+03  0.1661E+03
      2.859  0.2247E+03  0.1777E+03
      2.911  0.2275E+03  0.1895E+03
      2.963  0.2449E+03  0.2022E+03
      3.015  0.2579E+03  0.2156E+03
      3.066  0.2601E+03  0.2291E+03
      3.118  0.2604E+03  0.2426E+03
      3.170  0.2636E+03  0.2563E+03
      3.222  0.2724E+03  0.2704E+03
      3.274  0.2876E+03  0.2854E+03
      3.326  0.3072E+03  0.3013E+03
      3.378  0.3244E+03  0.3181E+03
      3.430  0.3309E+03  0.3353E+03
      3.481  0.3280E+03  0.3523E+03
      3.533  0.3214E+03  0.3690E+03
      3.585  0.3180E+03  0.3855E+03
      3.637  0.3163E+03  0.4019E+03
      3.689  0.3110E+03  0.4180E+03
      3.741  0.3052E+03  0.4339E+03
      3.793  0.3012E+03  0.4495E+03
      3.845  0.2970E+03  0.4649E+03
      3.897  0.2934E+03  0.4801E+03
      3.948  0.2888E+03  0.4951E+03
      4.000  0.2765E+03  0.5095E+03
      4.052  0.2665E+03  0.5233E+03
      4.104  0.2751E+03  0.5376E+03
      4.156  0.2936E+03  0.5528E+03
      4.208  0.3026E+03  0.5685E+03
      4.260  0.3052E+03  0.5843E+03
      4.312  0.3122E+03  0.6005E+03
      4.364  0.3187E+03  0.6171E+03
      4.415  0.3212E+03  0.6337E+03
      4.467  0.3235E+03  0.6505E+03
      4.519  0.3211E+03  0.6672E+03
      4.571  0.3099E+03  0.6833E+03
      4.623  0.2975E+03  0.6987E+03
      4.675  0.2935E+03  0.7139E+03
      4.727  0.2981E+03  0.7294E+03
      4.779  0.3059E+03  0.7453E+03
      4.831  0.3177E+03  0.7617E+03
      4.882  0.3312E+03  0.7789E+03
      4.934  0.3376E+03  0.7964E+03
      4.986  0.3450E+03  0.8143E+03
      5.038  0.3580E+03  0.8329E+03
      5.090  0.3654E+03  0.8519E+03
      5.142  0.3643E+03  0.8708E+03
      5.194  0.3554E+03  0.8892E+03
      5.246  0.3351E+03  0.9066E+03
      5.297  0.3029E+03  0.9223E+03
      5.349  0.2621E+03  0.9359E+03
      5.401  0.2190E+03  0.9473E+03
      5.453  0.1849E+03  0.9569E+03
      5.505  0.1726E+03  0.9658E+03
      5.557  0.1887E+03  0.9756E+03
      5.609  0.2266E+03  0.9874E+03
      5.661  0.2748E+03  0.1002E+04
      5.713  0.3249E+03  0.1018E+04
      5.764  0.3672E+03  0.1038E+04
      5.816  0.3952E+03  0.1058E+04
      5.868  0.4105E+03  0.1079E+04
      5.920  0.4191E+03  0.1101E+04
      5.972  0.4254E+03  0.1123E+04
      6.024  0.4279E+03  0.1145E+04
      6.076  0.4164E+03  0.1167E+04
      6.128  0.3922E+03  0.1187E+04
      6.180  0.3722E+03  0.1207E+04
      6.231  0.3615E+03  0.1225E+04
      6.283  0.3556E+03  0.1244E+04
      6.335  0.3563E+03  0.1262E+04
      6.387  0.3689E+03  0.1281E+04
      6.439  0.3818E+03  0.1301E+04
      6.491  0.3842E+03  0.1321E+04
      6.543  0.3912E+03  0.1342E+04
      6.595  0.4093E+03  0.1363E+04
      6.646  0.4236E+03  0.1385E+04
      6.698  0.4281E+03  0.1407E+04
      6.750  0.4256E+03  0.1429E+04
      6.802  0.4139E+03  0.1450E+04
      6.854  0.3927E+03  0.1471E+04
      6.906  0.3738E+03  0.1490E+04
      6.958  0.3666E+03  0.1509E+04
      7.010  0.3637E+03  0.1528E+04
      7.062  0.3677E+03  0.1547E+04
      7.113  0.3905E+03  0.1567E+04
      7.165  0.4145E+03  0.1589E+04
      7.217  0.4222E+03  0.1611E+04
      7.269  0.4224E+03  0.1633E+04
      7.321  0.4137E+03  0.1654E+04
      7.373  0.3886E+03  0.1674E+04
      7.425  0.3593E+03  0.1693E+04
      7.477  0.3404E+03  0.1711E+04
      7.529  0.3328E+03  0.1728E+04
      7.580  0.3290E+03  0.1745E+04
      7.632  0.3175E+03  0.1762E+04
      7.684  0.2962E+03  0.1777E+04
      7.736  0.2778E+03  0.1791E+04
      7.788  0.2688E+03  0.1805E+04
      7.840  0.2637E+03  0.1819E+04
      7.892  0.2578E+03  0.1832E+04
      7.944  0.2488E+03  0.1845E+04
      7.995  0.2429E+03  0.1858E+04
      8.047  0.2432E+03  0.1870E+04
      8.099  0.2395E+03  0.1883E+04
      8.151  0.2316E+03  0.1895E+04
      8.203  0.2290E+03  0.1907E+04
      8.255  0.2333E+03  0.1919E+04
      8.307  0.2376E+03  0.1931E+04
      8.359  0.2390E+03  0.1944E+04
      8.411  0.2370E+03  0.1956E+04
      8.462  0.2290E+03  0.1968E+04
      8.514  0.2187E+03  0.1979E+04
      8.566  0.2122E+03  0.1990E+04
      8.618  0.2074E+03  0.2001E+04
      8.670  0.2001E+03  0.2011E+04
      8.722  0.1917E+03  0.2021E+04
      8.774  0.1833E+03  0.2031E+04
      8.826  0.1793E+03  0.2040E+04
      8.878  0.1877E+03  0.2050E+04
      8.929  0.2123E+03  0.2061E+04
      8.981  0.2351E+03  0.2073E+04
      9.033  0.2367E+03  0.2085E+04
      9.085  0.2240E+03  0.2097E+04
      9.137  0.2070E+03  0.2108E+04
      9.189  0.1875E+03  0.2117E+04
      9.241  0.1788E+03  0.2127E+04
      9.293  0.1966E+03  0.2137E+04
      9.345  0.2276E+03  0.2149E+04
      9.396  0.2429E+03  0.2161E+04
      9.448  0.2429E+03  0.2174E+04
      9.500  0.2449E+03  0.2187E+04
      9.552  0.2445E+03  0.2199E+04
      9.604  0.2459E+03  0.2212E+04
      9.656  0.2731E+03  0.2226E+04
      9.708  0.3164E+03  0.2243E+04
      9.760  0.3356E+03  0.2260E+04
      9.811  0.3268E+03  0.2277E+04
      9.863  0.3166E+03  0.2293E+04
      9.915  0.3152E+03  0.2310E+04
      9.967  0.3214E+03  0.2326E+04
     10.019  0.3420E+03  0.2344E+04
     10.071  0.3787E+03  0.2364E+04
     10.123  0.4123E+03  0.2385E+04
     10.175  0.4283E+03  0.2407E+04
     10.227  0.4359E+03  0.2430E+04
     10.278  0.4482E+03  0.2453E+04
     10.330  0.4666E+03  0.2478E+04
     10.382  0.4857E+03  0.2503E+04
     10.434  0.4974E+03  0.2529E+04
     10.486  0.4907E+03  0.2554E+04
     10.538  0.4540E+03  0.2578E+04
     10.590  0.3941E+03  0.2598E+04
     10.642  0.3257E+03  0.2615E+04
     10.694  0.2426E+03  0.2627E+04
     10.745  0.1415E+03  0.2635E+04
     10.797  0.5141E+02  0.2638E+04
     10.849  0.3870E+01  0.2638E+04
     10.901 -0.5748E+01  0.2637E+04
     10.953 -0.2807E+01  0.2637E+04
     11.005 -0.6268E+00  0.2637E+04
     11.057 -0.8217E-01  0.2637E+04
     11.109 -0.7011E-02  0.2637E+04
     11.160 -0.4069E-03  0.2637E+04
     11.212 -0.1577E-04  0.2637E+04
     11.264 -0.3879E-06  0.2637E+04
     11.316 -0.5790E-08  0.2637E+04
     11.368 -0.5112E-10  0.2637E+04
     11.420 -0.4283E-12  0.2637E+04
     11.472 -0.3576E-10  0.2637E+04
     11.524 -0.4449E-08  0.2637E+04
     11.576 -0.3186E-06  0.2637E+04
     11.627 -0.1306E-04  0.2637E+04
     11.679 -0.3034E-03  0.2637E+04
     11.731 -0.3923E-02  0.2637E+04
     11.783 -0.2698E-01  0.2637E+04
     11.835 -0.8518E-01  0.2637E+04
     11.887 -0.1952E-01  0.2637E+04
     11.939  0.6220E+00  0.2637E+04
     11.991  0.1778E+01  0.2637E+04
     12.043  0.2290E+01  0.2637E+04
     12.094  0.1736E+01  0.2638E+04
     12.146  0.1300E+01  0.2638E+04
     12.198  0.1468E+01  0.2638E+04
     12.250  0.1757E+01  0.2638E+04
     12.302  0.2118E+01  0.2638E+04
     12.354  0.2459E+01  0.2638E+04
     12.406  0.2681E+01  0.2638E+04
     12.458  0.2519E+01  0.2638E+04
     12.510  0.1991E+01  0.2638E+04
     12.561  0.2207E+01  0.2639E+04
     12.613  0.2981E+01  0.2639E+04
     12.665  0.3333E+01  0.2639E+04
     12.717  0.3430E+01  0.2639E+04
     12.769  0.3094E+01  0.2639E+04
     12.821  0.2533E+01  0.2639E+04
     12.873  0.2620E+01  0.2639E+04
     12.925  0.2538E+01  0.2640E+04
     12.976  0.1590E+01  0.2640E+04
     13.028  0.9132E+00  0.2640E+04
     13.080  0.8169E+00  0.2640E+04
     13.132  0.7472E+00  0.2640E+04
     13.184  0.9130E+00  0.2640E+04
     13.236  0.1256E+01  0.2640E+04
     13.288  0.1223E+01  0.2640E+04
     13.340  0.7009E+00  0.2640E+04
     13.392  0.1491E+00  0.2640E+04
     13.443 -0.4887E-01  0.2640E+04
     13.495 -0.3374E-01  0.2640E+04
     13.547 -0.7299E-02  0.2640E+04
     13.599 -0.7703E-03  0.2640E+04
     13.651 -0.4352E-04  0.2640E+04
     13.703 -0.1365E-05  0.2640E+04
     13.755 -0.2417E-07  0.2640E+04
     13.807 -0.2444E-09  0.2640E+04
     13.859 -0.1418E-11  0.2640E+04
     13.910 -0.4755E-14  0.2640E+04
     13.962  0.0000E+00  0.2640E+04
     14.014  0.0000E+00  0.2640E+04
     14.066  0.0000E+00  0.2640E+04
     14.118  0.0000E+00  0.2640E+04
     14.170  0.0000E+00  0.2640E+04
     14.222  0.0000E+00  0.2640E+04
     14.274  0.0000E+00  0.2640E+04
