       N       E                     dE             d eps       ncg     rms          rms(c)
RMM:   1     0.136790560791E+05    0.13679E+05   -0.47218E+05 25080   0.725E+02
RMM:   2     0.131335464785E+04   -0.12366E+05   -0.13120E+05 25080   0.260E+02
RMM:   3    -0.104569062360E+04   -0.23590E+04   -0.22856E+04 25080   0.111E+02
RMM:   4    -0.184599946934E+04   -0.80031E+03   -0.57408E+03 25080   0.768E+01
RMM:   5    -0.212911579980E+04   -0.28312E+03   -0.24896E+03 25080   0.451E+01
RMM:   6    -0.227483562542E+04   -0.14572E+03   -0.12952E+03 25080   0.349E+01
RMM:   7    -0.235269818936E+04   -0.77863E+02   -0.73852E+02 25080   0.235E+01
RMM:   8    -0.240019477853E+04   -0.47497E+02   -0.44555E+02 25080   0.195E+01
RMM:   9    -0.247908354002E+04   -0.78889E+02   -0.77969E+02 71859   0.137E+01
RMM:  10    -0.248863630544E+04   -0.95528E+01   -0.11976E+02 79676   0.283E+00
RMM:  11    -0.249087649541E+04   -0.22402E+01   -0.17838E+01 77285   0.686E-01
RMM:  12    -0.249118368217E+04   -0.30719E+00   -0.19896E+00 79565   0.198E-01    0.782E+01
RMM:  13    -0.241367280602E+04    0.77511E+02   -0.68496E+02 57198   0.246E+01    0.583E+01
RMM:  14    -0.236779856224E+04    0.45874E+02   -0.34137E+02 51437   0.174E+01    0.416E+01
RMM:  15    -0.233563550573E+04    0.32163E+02   -0.11849E+02 53328   0.101E+01    0.255E+01
RMM:  16    -0.232131988537E+04    0.14316E+02   -0.25856E+01 56025   0.435E+00    0.438E+00
RMM:  17    -0.232147664699E+04   -0.15676E+00   -0.64452E+00 73616   0.131E+00    0.428E+00
RMM:  18    -0.232112478017E+04    0.35187E+00   -0.11759E+00 64459   0.698E-01    0.342E+00
RMM:  19    -0.232075042693E+04    0.37435E+00   -0.63683E-01 60006   0.728E-01    0.167E+00
RMM:  20    -0.232069649158E+04    0.53935E-01   -0.23908E-01 63256   0.356E-01    0.152E+00
RMM:  21    -0.232065968666E+04    0.36805E-01   -0.11117E-01 62744   0.234E-01    0.122E+00
RMM:  22    -0.232063416988E+04    0.25517E-01   -0.47442E-02 61124   0.159E-01    0.705E-01
RMM:  23    -0.232062907200E+04    0.50979E-02   -0.13387E-02 66884   0.685E-02    0.486E-01
RMM:  24    -0.232062559427E+04    0.34777E-02   -0.10389E-02 62632   0.755E-02    0.246E-01
RMM:  25    -0.232062654125E+04   -0.94698E-03   -0.12860E-02 66253   0.781E-02    0.259E-01
RMM:  26    -0.232062669903E+04   -0.15778E-03   -0.33178E-03 74735   0.293E-02    0.268E-01
RMM:  27    -0.232062578849E+04    0.91054E-03   -0.70549E-04 60076   0.204E-02    0.179E-01
RMM:  28    -0.232062521678E+04    0.57172E-03   -0.10488E-03 63790   0.236E-02    0.777E-02
RMM:  29    -0.232062511016E+04    0.10662E-03   -0.59390E-04 70504   0.155E-02    0.282E-02
RMM:  30    -0.232062508778E+04    0.22386E-04   -0.11103E-04 68943   0.643E-03
   1 F= -.23206251E+04 E0= -.23206250E+04  d E =-.325736E-03
