 256 256   0   0
  0.1419206E+02  0.1537080E-08  0.1537218E-08  0.1537636E-08  0.5000000E-15
  1.000000000000000E-004
  CAR 
 Ir_Ru                                   
     12.68341261     -1.29470351  301      9.24209270      1.00000000
     -1.295  0.0000E+00  0.0000E+00
     -1.248  0.0000E+00  0.0000E+00
     -1.202  0.0000E+00  0.0000E+00
     -1.155  0.0000E+00  0.0000E+00
     -1.108 -0.2739E-28 -0.1276E-29
     -1.062 -0.4084E-25 -0.1904E-26
     -1.015 -0.3928E-22 -0.1832E-23
     -0.969 -0.2438E-19 -0.1138E-20
     -0.922 -0.9765E-17 -0.4561E-18
     -0.875 -0.2449E-14 -0.1145E-15
     -0.829 -0.4061E-12 -0.1904E-13
     -0.782 -0.4337E-10 -0.2040E-11
     -0.736 -0.2985E-08 -0.1411E-09
     -0.689 -0.1325E-06 -0.6313E-08
     -0.642 -0.3797E-05 -0.1832E-06
     -0.596 -0.7047E-04 -0.3466E-05
     -0.549 -0.8494E-03 -0.4304E-04
     -0.503 -0.6652E-02 -0.3530E-03
     -0.456 -0.3344E-01 -0.1911E-02
     -0.409 -0.1018E+00 -0.6655E-02
     -0.363 -0.1379E+00 -0.1308E-01
     -0.316  0.2218E+00 -0.2747E-02
     -0.270  0.1504E+01  0.6731E-01
     -0.223  0.3532E+01  0.2319E+00
     -0.176  0.5067E+01  0.4680E+00
     -0.130  0.5729E+01  0.7349E+00
     -0.083  0.7314E+01  0.1076E+01
     -0.037  0.1018E+02  0.1550E+01
      0.010  0.1103E+02  0.2064E+01
      0.057  0.9158E+01  0.2491E+01
      0.103  0.9365E+01  0.2927E+01
      0.150  0.1312E+02  0.3538E+01
      0.196  0.1590E+02  0.4279E+01
      0.243  0.1604E+02  0.5027E+01
      0.289  0.1671E+02  0.5805E+01
      0.336  0.1848E+02  0.6666E+01
      0.383  0.1834E+02  0.7520E+01
      0.429  0.1739E+02  0.8331E+01
      0.476  0.1971E+02  0.9249E+01
      0.522  0.2331E+02  0.1034E+02
      0.569  0.2404E+02  0.1146E+02
      0.616  0.2229E+02  0.1249E+02
      0.662  0.1879E+02  0.1337E+02
      0.709  0.1414E+02  0.1403E+02
      0.755  0.1114E+02  0.1455E+02
      0.802  0.1070E+02  0.1505E+02
      0.849  0.1118E+02  0.1557E+02
      0.895  0.1225E+02  0.1614E+02
      0.942  0.1473E+02  0.1682E+02
      0.988  0.1837E+02  0.1768E+02
      1.035  0.2285E+02  0.1874E+02
      1.082  0.2800E+02  0.2005E+02
      1.128  0.3122E+02  0.2150E+02
      1.175  0.2978E+02  0.2289E+02
      1.221  0.2595E+02  0.2410E+02
      1.268  0.2306E+02  0.2517E+02
      1.315  0.2093E+02  0.2615E+02
      1.361  0.1998E+02  0.2708E+02
      1.408  0.2158E+02  0.2809E+02
      1.454  0.2406E+02  0.2921E+02
      1.501  0.2565E+02  0.3040E+02
      1.548  0.2893E+02  0.3175E+02
      1.594  0.3507E+02  0.3338E+02
      1.641  0.3876E+02  0.3519E+02
      1.687  0.3790E+02  0.3696E+02
      1.734  0.3924E+02  0.3878E+02
      1.780  0.4546E+02  0.4090E+02
      1.827  0.4935E+02  0.4320E+02
      1.874  0.4786E+02  0.4543E+02
      1.920  0.4722E+02  0.4763E+02
      1.967  0.5076E+02  0.5000E+02
      2.013  0.5399E+02  0.5251E+02
      2.060  0.5539E+02  0.5509E+02
      2.107  0.6122E+02  0.5795E+02
      2.153  0.7431E+02  0.6141E+02
      2.200  0.8910E+02  0.6556E+02
      2.246  0.1028E+03  0.7035E+02
      2.293  0.1176E+03  0.7583E+02
      2.340  0.1309E+03  0.8193E+02
      2.386  0.1383E+03  0.8838E+02
      2.433  0.1433E+03  0.9505E+02
      2.479  0.1523E+03  0.1021E+03
      2.526  0.1610E+03  0.1096E+03
      2.573  0.1618E+03  0.1172E+03
      2.619  0.1613E+03  0.1247E+03
      2.666  0.1688E+03  0.1326E+03
      2.712  0.1784E+03  0.1409E+03
      2.759  0.1848E+03  0.1495E+03
      2.806  0.1976E+03  0.1587E+03
      2.852  0.2224E+03  0.1691E+03
      2.899  0.2471E+03  0.1806E+03
      2.945  0.2561E+03  0.1925E+03
      2.992  0.2498E+03  0.2041E+03
      3.039  0.2468E+03  0.2156E+03
      3.085  0.2619E+03  0.2278E+03
      3.132  0.2864E+03  0.2412E+03
      3.178  0.3012E+03  0.2552E+03
      3.225  0.3038E+03  0.2694E+03
      3.271  0.3050E+03  0.2836E+03
      3.318  0.3087E+03  0.2980E+03
      3.365  0.3116E+03  0.3125E+03
      3.411  0.3148E+03  0.3272E+03
      3.458  0.3218E+03  0.3422E+03
      3.504  0.3334E+03  0.3577E+03
      3.551  0.3441E+03  0.3737E+03
      3.598  0.3471E+03  0.3899E+03
      3.644  0.3450E+03  0.4060E+03
      3.691  0.3486E+03  0.4222E+03
      3.737  0.3575E+03  0.4389E+03
      3.784  0.3592E+03  0.4556E+03
      3.831  0.3524E+03  0.4720E+03
      3.877  0.3479E+03  0.4882E+03
      3.924  0.3497E+03  0.5045E+03
      3.970  0.3506E+03  0.5209E+03
      4.017  0.3415E+03  0.5368E+03
      4.064  0.3229E+03  0.5518E+03
      4.110  0.3067E+03  0.5661E+03
      4.157  0.2977E+03  0.5800E+03
      4.203  0.2877E+03  0.5934E+03
      4.250  0.2715E+03  0.6060E+03
      4.297  0.2538E+03  0.6179E+03
      4.343  0.2427E+03  0.6292E+03
      4.390  0.2452E+03  0.6406E+03
      4.436  0.2578E+03  0.6526E+03
      4.483  0.2619E+03  0.6648E+03
      4.530  0.2507E+03  0.6765E+03
      4.576  0.2473E+03  0.6880E+03
      4.623  0.2667E+03  0.7004E+03
      4.669  0.2917E+03  0.7140E+03
      4.716  0.3068E+03  0.7283E+03
      4.762  0.3137E+03  0.7429E+03
      4.809  0.3135E+03  0.7576E+03
      4.856  0.3051E+03  0.7718E+03
      4.902  0.2904E+03  0.7853E+03
      4.949  0.2786E+03  0.7983E+03
      4.995  0.2810E+03  0.8114E+03
      5.042  0.2950E+03  0.8251E+03
      5.089  0.3078E+03  0.8395E+03
      5.135  0.3094E+03  0.8539E+03
      5.182  0.2979E+03  0.8678E+03
      5.228  0.2857E+03  0.8811E+03
      5.275  0.2843E+03  0.8943E+03
      5.322  0.2902E+03  0.9078E+03
      5.368  0.2971E+03  0.9217E+03
      5.415  0.3017E+03  0.9357E+03
      5.461  0.2988E+03  0.9497E+03
      5.508  0.2889E+03  0.9631E+03
      5.555  0.2866E+03  0.9765E+03
      5.601  0.3023E+03  0.9906E+03
      5.648  0.3213E+03  0.1006E+04
      5.694  0.3252E+03  0.1021E+04
      5.741  0.3203E+03  0.1036E+04
      5.788  0.3199E+03  0.1051E+04
      5.834  0.3262E+03  0.1066E+04
      5.881  0.3365E+03  0.1081E+04
      5.927  0.3498E+03  0.1098E+04
      5.974  0.3651E+03  0.1115E+04
      6.021  0.3788E+03  0.1132E+04
      6.067  0.3855E+03  0.1150E+04
      6.114  0.3875E+03  0.1168E+04
      6.160  0.3914E+03  0.1187E+04
      6.207  0.3982E+03  0.1205E+04
      6.253  0.4091E+03  0.1224E+04
      6.300  0.4267E+03  0.1244E+04
      6.347  0.4461E+03  0.1265E+04
      6.393  0.4573E+03  0.1286E+04
      6.440  0.4573E+03  0.1307E+04
      6.486  0.4533E+03  0.1329E+04
      6.533  0.4502E+03  0.1350E+04
      6.580  0.4459E+03  0.1370E+04
      6.626  0.4394E+03  0.1391E+04
      6.673  0.4319E+03  0.1411E+04
      6.719  0.4248E+03  0.1431E+04
      6.766  0.4171E+03  0.1450E+04
      6.813  0.4021E+03  0.1469E+04
      6.859  0.3775E+03  0.1487E+04
      6.906  0.3548E+03  0.1503E+04
      6.952  0.3444E+03  0.1519E+04
      6.999  0.3394E+03  0.1535E+04
      7.046  0.3281E+03  0.1550E+04
      7.092  0.3150E+03  0.1565E+04
      7.139  0.3133E+03  0.1579E+04
      7.185  0.3192E+03  0.1594E+04
      7.232  0.3136E+03  0.1609E+04
      7.279  0.2882E+03  0.1622E+04
      7.325  0.2566E+03  0.1634E+04
      7.372  0.2403E+03  0.1646E+04
      7.418  0.2483E+03  0.1657E+04
      7.465  0.2707E+03  0.1670E+04
      7.512  0.2845E+03  0.1683E+04
      7.558  0.2767E+03  0.1696E+04
      7.605  0.2588E+03  0.1708E+04
      7.651  0.2484E+03  0.1720E+04
      7.698  0.2568E+03  0.1731E+04
      7.744  0.2822E+03  0.1745E+04
      7.791  0.3050E+03  0.1759E+04
      7.838  0.3119E+03  0.1773E+04
      7.884  0.3088E+03  0.1788E+04
      7.931  0.3032E+03  0.1802E+04
      7.977  0.2962E+03  0.1816E+04
      8.024  0.2911E+03  0.1829E+04
      8.071  0.2955E+03  0.1843E+04
      8.117  0.3089E+03  0.1857E+04
      8.164  0.3170E+03  0.1872E+04
      8.210  0.3177E+03  0.1887E+04
      8.257  0.3294E+03  0.1902E+04
      8.304  0.3532E+03  0.1919E+04
      8.350  0.3626E+03  0.1936E+04
      8.397  0.3407E+03  0.1952E+04
      8.443  0.3010E+03  0.1966E+04
      8.490  0.2675E+03  0.1978E+04
      8.537  0.2556E+03  0.1990E+04
      8.583  0.2701E+03  0.2003E+04
      8.630  0.2949E+03  0.2016E+04
      8.676  0.3004E+03  0.2030E+04
      8.723  0.2846E+03  0.2044E+04
      8.770  0.2679E+03  0.2056E+04
      8.816  0.2571E+03  0.2068E+04
      8.863  0.2492E+03  0.2080E+04
      8.909  0.2452E+03  0.2091E+04
      8.956  0.2453E+03  0.2102E+04
      9.003  0.2530E+03  0.2114E+04
      9.049  0.2728E+03  0.2127E+04
      9.096  0.2841E+03  0.2140E+04
      9.142  0.2669E+03  0.2153E+04
      9.189  0.2414E+03  0.2164E+04
      9.235  0.2285E+03  0.2175E+04
      9.282  0.2201E+03  0.2185E+04
      9.329  0.2138E+03  0.2195E+04
      9.375  0.2214E+03  0.2205E+04
      9.422  0.2418E+03  0.2216E+04
      9.468  0.2619E+03  0.2229E+04
      9.515  0.2734E+03  0.2241E+04
      9.562  0.2772E+03  0.2254E+04
      9.608  0.2763E+03  0.2267E+04
      9.655  0.2711E+03  0.2280E+04
      9.701  0.2613E+03  0.2292E+04
      9.748  0.2444E+03  0.2303E+04
      9.795  0.2247E+03  0.2314E+04
      9.841  0.2193E+03  0.2324E+04
      9.888  0.2359E+03  0.2335E+04
      9.934  0.2633E+03  0.2347E+04
      9.981  0.2941E+03  0.2361E+04
     10.028  0.3263E+03  0.2376E+04
     10.074  0.3487E+03  0.2392E+04
     10.121  0.3469E+03  0.2409E+04
     10.167  0.3247E+03  0.2424E+04
     10.214  0.3102E+03  0.2438E+04
     10.261  0.3279E+03  0.2453E+04
     10.307  0.3847E+03  0.2471E+04
     10.354  0.4639E+03  0.2493E+04
     10.400  0.5177E+03  0.2517E+04
     10.447  0.5103E+03  0.2541E+04
     10.494  0.4529E+03  0.2562E+04
     10.540  0.3767E+03  0.2579E+04
     10.587  0.3045E+03  0.2594E+04
     10.633  0.2498E+03  0.2605E+04
     10.680  0.2136E+03  0.2615E+04
     10.726  0.1821E+03  0.2624E+04
     10.773  0.1433E+03  0.2630E+04
     10.820  0.9842E+02  0.2635E+04
     10.866  0.5731E+02  0.2638E+04
     10.913  0.2784E+02  0.2639E+04
     10.959  0.1072E+02  0.2639E+04
     11.006  0.3084E+01  0.2640E+04
     11.053  0.1430E+01  0.2640E+04
     11.099  0.1929E+01  0.2640E+04
     11.146  0.1787E+01  0.2640E+04
     11.192  0.7692E+00  0.2640E+04
     11.239  0.1847E-01  0.2640E+04
     11.286 -0.1243E+00  0.2640E+04
     11.332 -0.5550E-01  0.2640E+04
     11.379 -0.1205E-01  0.2640E+04
     11.425 -0.3525E-02  0.2640E+04
     11.472 -0.1300E-01  0.2640E+04
     11.519 -0.4213E-01  0.2640E+04
     11.565 -0.3651E-01  0.2640E+04
     11.612  0.1966E+00  0.2640E+04
     11.658  0.7119E+00  0.2640E+04
     11.705  0.1026E+01  0.2640E+04
     11.752  0.7266E+00  0.2640E+04
     11.798  0.2081E+00  0.2640E+04
     11.845 -0.3419E-01  0.2640E+04
     11.891 -0.4302E-01  0.2640E+04
     11.938 -0.1345E-01  0.2640E+04
     11.985 -0.2189E-02  0.2640E+04
     12.031 -0.2090E-03  0.2640E+04
     12.078 -0.1222E-04  0.2640E+04
     12.124 -0.4466E-06  0.2640E+04
     12.171 -0.1031E-07  0.2640E+04
     12.217 -0.1516E-09  0.2640E+04
     12.264 -0.1425E-11  0.2640E+04
     12.311 -0.8340E-14  0.2640E+04
     12.357  0.0000E+00  0.2640E+04
     12.404  0.0000E+00  0.2640E+04
     12.450  0.0000E+00  0.2640E+04
     12.497  0.0000E+00  0.2640E+04
     12.544  0.0000E+00  0.2640E+04
     12.590  0.0000E+00  0.2640E+04
     12.637  0.0000E+00  0.2640E+04
     12.683  0.0000E+00  0.2640E+04
