  40  40   0   0
  0.1459365E+02  0.4758675E-09  0.8528403E-09  0.1524423E-08  0.5000000E-15
  1.000000000000000E-004
  CAR 
 Ir_Ru                                   
     16.44887577     -1.85253330  301     10.00324135      1.00000000
     -1.853  0.0000E+00  0.0000E+00
     -1.792  0.0000E+00  0.0000E+00
     -1.731  0.0000E+00  0.0000E+00
     -1.670 -0.3683E-29 -0.2247E-30
     -1.609 -0.5056E-25 -0.3085E-26
     -1.548 -0.3287E-21 -0.2006E-22
     -1.487 -0.1012E-17 -0.6175E-19
     -1.426 -0.1433E-14 -0.8749E-16
     -1.364 -0.9807E-12 -0.5991E-13
     -1.303 -0.3170E-09 -0.1940E-10
     -1.242 -0.4817E-07 -0.2958E-08
     -1.181 -0.3417E-05 -0.2114E-06
     -1.120 -0.1114E-03 -0.7005E-05
     -1.059 -0.1610E-02 -0.1052E-03
     -0.998 -0.9354E-02 -0.6759E-03
     -0.937 -0.1227E-01 -0.1425E-02
     -0.876  0.6471E-01  0.2523E-02
     -0.815  0.2925E+00  0.2036E-01
     -0.754  0.5889E+00  0.5629E-01
     -0.693  0.6640E+00  0.9679E-01
     -0.632  0.6016E+00  0.1335E+00
     -0.571  0.9751E+00  0.1930E+00
     -0.510  0.1566E+01  0.2885E+00
     -0.449  0.1866E+01  0.4024E+00
     -0.388  0.2157E+01  0.5340E+00
     -0.327  0.2154E+01  0.6654E+00
     -0.266  0.1781E+01  0.7740E+00
     -0.205  0.1529E+01  0.8673E+00
     -0.144  0.1295E+01  0.9463E+00
     -0.083  0.1715E+01  0.1051E+01
     -0.022  0.2742E+01  0.1218E+01
      0.039  0.2700E+01  0.1383E+01
      0.100  0.1943E+01  0.1501E+01
      0.161  0.2099E+01  0.1629E+01
      0.222  0.3007E+01  0.1813E+01
      0.283  0.3155E+01  0.2005E+01
      0.344  0.2549E+01  0.2161E+01
      0.405  0.2656E+01  0.2323E+01
      0.466  0.3981E+01  0.2566E+01
      0.527  0.5108E+01  0.2877E+01
      0.588  0.4419E+01  0.3147E+01
      0.649  0.2934E+01  0.3326E+01
      0.710  0.2566E+01  0.3482E+01
      0.771  0.3491E+01  0.3695E+01
      0.832  0.4046E+01  0.3942E+01
      0.893  0.3484E+01  0.4155E+01
      0.954  0.3209E+01  0.4351E+01
      1.015  0.3977E+01  0.4593E+01
      1.076  0.4507E+01  0.4868E+01
      1.137  0.4411E+01  0.5137E+01
      1.198  0.4424E+01  0.5407E+01
      1.259  0.5237E+01  0.5727E+01
      1.320  0.6217E+01  0.6106E+01
      1.381  0.6174E+01  0.6483E+01
      1.442  0.5701E+01  0.6830E+01
      1.503  0.5664E+01  0.7176E+01
      1.564  0.5866E+01  0.7534E+01
      1.625  0.6473E+01  0.7929E+01
      1.686  0.6888E+01  0.8349E+01
      1.747  0.6944E+01  0.8772E+01
      1.808  0.7553E+01  0.9233E+01
      1.869  0.7701E+01  0.9703E+01
      1.930  0.7556E+01  0.1016E+02
      1.991  0.7794E+01  0.1064E+02
      2.052  0.7730E+01  0.1111E+02
      2.113  0.9789E+01  0.1171E+02
      2.174  0.1426E+02  0.1258E+02
      2.235  0.1798E+02  0.1367E+02
      2.296  0.2310E+02  0.1508E+02
      2.357  0.2940E+02  0.1688E+02
      2.418  0.3370E+02  0.1893E+02
      2.479  0.3582E+02  0.2112E+02
      2.540  0.3551E+02  0.2328E+02
      2.601  0.3309E+02  0.2530E+02
      2.662  0.3134E+02  0.2721E+02
      2.723  0.3157E+02  0.2914E+02
      2.784  0.3306E+02  0.3116E+02
      2.845  0.3442E+02  0.3326E+02
      2.906  0.3786E+02  0.3557E+02
      2.967  0.4243E+02  0.3815E+02
      3.028  0.4517E+02  0.4091E+02
      3.089  0.4642E+02  0.4374E+02
      3.150  0.4597E+02  0.4655E+02
      3.211  0.4335E+02  0.4919E+02
      3.272  0.4212E+02  0.5176E+02
      3.333  0.4296E+02  0.5438E+02
      3.394  0.4480E+02  0.5711E+02
      3.455  0.4818E+02  0.6005E+02
      3.516  0.5045E+02  0.6313E+02
      3.577  0.4905E+02  0.6612E+02
      3.638  0.4602E+02  0.6893E+02
      3.699  0.4215E+02  0.7150E+02
      3.760  0.3799E+02  0.7382E+02
      3.821  0.3464E+02  0.7593E+02
      3.882  0.3296E+02  0.7794E+02
      3.943  0.3211E+02  0.7990E+02
      4.004  0.3242E+02  0.8188E+02
      4.065  0.3864E+02  0.8424E+02
      4.126  0.4899E+02  0.8723E+02
      4.187  0.5649E+02  0.9067E+02
      4.248  0.5696E+02  0.9415E+02
      4.309  0.5040E+02  0.9722E+02
      4.370  0.4355E+02  0.9988E+02
      4.431  0.4223E+02  0.1025E+03
      4.492  0.4370E+02  0.1051E+03
      4.553  0.4445E+02  0.1078E+03
      4.614  0.4448E+02  0.1105E+03
      4.675  0.4487E+02  0.1133E+03
      4.736  0.4653E+02  0.1161E+03
      4.797  0.4787E+02  0.1190E+03
      4.858  0.4956E+02  0.1221E+03
      4.919  0.5304E+02  0.1253E+03
      4.980  0.5563E+02  0.1287E+03
      5.041  0.5760E+02  0.1322E+03
      5.102  0.5781E+02  0.1357E+03
      5.163  0.5389E+02  0.1390E+03
      5.224  0.4902E+02  0.1420E+03
      5.285  0.4467E+02  0.1447E+03
      5.346  0.3946E+02  0.1471E+03
      5.407  0.3223E+02  0.1491E+03
      5.468  0.2596E+02  0.1507E+03
      5.529  0.2406E+02  0.1522E+03
      5.590  0.2750E+02  0.1538E+03
      5.651  0.3592E+02  0.1560E+03
      5.712  0.4703E+02  0.1589E+03
      5.773  0.5614E+02  0.1623E+03
      5.834  0.6099E+02  0.1660E+03
      5.895  0.6503E+02  0.1700E+03
      5.956  0.7026E+02  0.1743E+03
      6.017  0.7235E+02  0.1787E+03
      6.078  0.6860E+02  0.1829E+03
      6.139  0.6314E+02  0.1867E+03
      6.200  0.6041E+02  0.1904E+03
      6.261  0.6043E+02  0.1941E+03
      6.322  0.6069E+02  0.1978E+03
      6.383  0.5880E+02  0.2014E+03
      6.444  0.5709E+02  0.2049E+03
      6.505  0.5824E+02  0.2084E+03
      6.566  0.6018E+02  0.2121E+03
      6.627  0.6144E+02  0.2159E+03
      6.688  0.6090E+02  0.2196E+03
      6.749  0.6121E+02  0.2233E+03
      6.810  0.6395E+02  0.2272E+03
      6.871  0.6556E+02  0.2312E+03
      6.932  0.6530E+02  0.2352E+03
      6.993  0.6641E+02  0.2393E+03
      7.054  0.6724E+02  0.2434E+03
      7.115  0.6611E+02  0.2474E+03
      7.176  0.6603E+02  0.2514E+03
      7.237  0.6456E+02  0.2554E+03
      7.298  0.5935E+02  0.2590E+03
      7.359  0.5355E+02  0.2622E+03
      7.420  0.5079E+02  0.2653E+03
      7.481  0.5033E+02  0.2684E+03
      7.542  0.4887E+02  0.2714E+03
      7.603  0.4652E+02  0.2742E+03
      7.664  0.4337E+02  0.2769E+03
      7.725  0.3839E+02  0.2792E+03
      7.786  0.3560E+02  0.2814E+03
      7.847  0.3654E+02  0.2836E+03
      7.908  0.3843E+02  0.2860E+03
      7.969  0.3946E+02  0.2884E+03
      8.030  0.3866E+02  0.2907E+03
      8.091  0.3708E+02  0.2930E+03
      8.152  0.3646E+02  0.2952E+03
      8.213  0.3635E+02  0.2974E+03
      8.274  0.3474E+02  0.2995E+03
      8.335  0.3220E+02  0.3015E+03
      8.396  0.3109E+02  0.3034E+03
      8.457  0.3198E+02  0.3054E+03
      8.518  0.3325E+02  0.3074E+03
      8.579  0.3305E+02  0.3094E+03
      8.640  0.3287E+02  0.3114E+03
      8.701  0.3341E+02  0.3134E+03
      8.762  0.3275E+02  0.3154E+03
      8.823  0.3145E+02  0.3174E+03
      8.884  0.3034E+02  0.3192E+03
      8.945  0.2968E+02  0.3210E+03
      9.006  0.2929E+02  0.3228E+03
      9.067  0.2817E+02  0.3245E+03
      9.128  0.2780E+02  0.3262E+03
      9.189  0.3065E+02  0.3281E+03
      9.250  0.3329E+02  0.3301E+03
      9.311  0.3318E+02  0.3322E+03
      9.372  0.3332E+02  0.3342E+03
      9.433  0.3352E+02  0.3362E+03
      9.494  0.3307E+02  0.3382E+03
      9.555  0.3396E+02  0.3403E+03
      9.616  0.3853E+02  0.3427E+03
      9.677  0.4379E+02  0.3453E+03
      9.738  0.4493E+02  0.3481E+03
      9.799  0.4527E+02  0.3508E+03
      9.860  0.4521E+02  0.3536E+03
      9.921  0.4328E+02  0.3562E+03
      9.982  0.4496E+02  0.3590E+03
     10.043  0.4984E+02  0.3620E+03
     10.104  0.4991E+02  0.3651E+03
     10.165  0.4866E+02  0.3680E+03
     10.226  0.5396E+02  0.3713E+03
     10.287  0.6138E+02  0.3751E+03
     10.348  0.6626E+02  0.3791E+03
     10.409  0.6898E+02  0.3833E+03
     10.470  0.7203E+02  0.3877E+03
     10.531  0.7546E+02  0.3923E+03
     10.592  0.7612E+02  0.3970E+03
     10.653  0.7569E+02  0.4016E+03
     10.714  0.7290E+02  0.4060E+03
     10.775  0.6684E+02  0.4101E+03
     10.836  0.6076E+02  0.4138E+03
     10.897  0.5345E+02  0.4171E+03
     10.958  0.4538E+02  0.4198E+03
     11.019  0.3842E+02  0.4222E+03
     11.080  0.2971E+02  0.4240E+03
     11.141  0.1957E+02  0.4252E+03
     11.202  0.1354E+02  0.4260E+03
     11.263  0.1140E+02  0.4267E+03
     11.324  0.9816E+01  0.4273E+03
     11.385  0.9017E+01  0.4279E+03
     11.446  0.9552E+01  0.4284E+03
     11.507  0.1021E+02  0.4291E+03
     11.569  0.9740E+01  0.4297E+03
     11.630  0.8165E+01  0.4302E+03
     11.691  0.6453E+01  0.4306E+03
     11.752  0.6362E+01  0.4309E+03
     11.813  0.7508E+01  0.4314E+03
     11.874  0.8172E+01  0.4319E+03
     11.935  0.7565E+01  0.4324E+03
     11.996  0.5907E+01  0.4327E+03
     12.057  0.5110E+01  0.4330E+03
     12.118  0.5499E+01  0.4334E+03
     12.179  0.5978E+01  0.4337E+03
     12.240  0.6213E+01  0.4341E+03
     12.301  0.5465E+01  0.4344E+03
     12.362  0.4197E+01  0.4347E+03
     12.423  0.3605E+01  0.4349E+03
     12.484  0.3288E+01  0.4351E+03
     12.545  0.3047E+01  0.4353E+03
     12.606  0.3322E+01  0.4355E+03
     12.667  0.3740E+01  0.4357E+03
     12.728  0.4006E+01  0.4360E+03
     12.789  0.4130E+01  0.4362E+03
     12.850  0.3869E+01  0.4365E+03
     12.911  0.3329E+01  0.4367E+03
     12.972  0.2807E+01  0.4368E+03
     13.033  0.2963E+01  0.4370E+03
     13.094  0.3174E+01  0.4372E+03
     13.155  0.2610E+01  0.4374E+03
     13.216  0.2238E+01  0.4375E+03
     13.277  0.2119E+01  0.4376E+03
     13.338  0.1625E+01  0.4377E+03
     13.399  0.1419E+01  0.4378E+03
     13.460  0.1799E+01  0.4379E+03
     13.521  0.2042E+01  0.4381E+03
     13.582  0.1599E+01  0.4382E+03
     13.643  0.9958E+00  0.4382E+03
     13.704  0.1076E+01  0.4383E+03
     13.765  0.1472E+01  0.4384E+03
     13.826  0.1569E+01  0.4385E+03
     13.887  0.1496E+01  0.4386E+03
     13.948  0.1477E+01  0.4387E+03
     14.009  0.1750E+01  0.4388E+03
     14.070  0.2173E+01  0.4389E+03
     14.131  0.1907E+01  0.4390E+03
     14.192  0.1379E+01  0.4391E+03
     14.253  0.1491E+01  0.4392E+03
     14.314  0.1327E+01  0.4393E+03
     14.375  0.7950E+00  0.4393E+03
     14.436  0.8132E+00  0.4394E+03
     14.497  0.1131E+01  0.4394E+03
     14.558  0.1343E+01  0.4395E+03
     14.619  0.1324E+01  0.4396E+03
     14.680  0.9999E+00  0.4397E+03
     14.741  0.9538E+00  0.4397E+03
     14.802  0.9538E+00  0.4398E+03
     14.863  0.7418E+00  0.4398E+03
     14.924  0.4829E+00  0.4399E+03
     14.985  0.2487E+00  0.4399E+03
     15.046  0.2483E+00  0.4399E+03
     15.107  0.4271E+00  0.4399E+03
     15.168  0.4508E+00  0.4399E+03
     15.229  0.2935E+00  0.4400E+03
     15.290  0.1356E+00  0.4400E+03
     15.351  0.1152E+00  0.4400E+03
     15.412  0.2052E+00  0.4400E+03
     15.473  0.2057E+00  0.4400E+03
     15.534  0.9007E-01  0.4400E+03
     15.595  0.3038E-02  0.4400E+03
     15.656 -0.7921E-02  0.4400E+03
     15.717 -0.1832E-02  0.4400E+03
     15.778 -0.1483E-03  0.4400E+03
     15.839 -0.5070E-05  0.4400E+03
     15.900 -0.7736E-07  0.4400E+03
     15.961 -0.5398E-09  0.4400E+03
     16.022 -0.1744E-11  0.4400E+03
     16.083 -0.2629E-14  0.4400E+03
     16.144  0.0000E+00  0.4400E+03
     16.205  0.0000E+00  0.4400E+03
     16.266  0.0000E+00  0.4400E+03
     16.327  0.0000E+00  0.4400E+03
     16.388  0.0000E+00  0.4400E+03
     16.449  0.0000E+00  0.4400E+03
