 256 256   0   0
  0.1419206E+02  0.1537080E-08  0.1537218E-08  0.1537636E-08  0.5000000E-15
  1.000000000000000E-004
  CAR 
 Ir_Ru                                   
     12.68426275     -1.29489127  301      9.24206141      1.00000000
     -1.295  0.0000E+00  0.0000E+00
     -1.248  0.0000E+00  0.0000E+00
     -1.202  0.0000E+00  0.0000E+00
     -1.155  0.0000E+00  0.0000E+00
     -1.109 -0.2745E-28 -0.1279E-29
     -1.062 -0.4095E-25 -0.1909E-26
     -1.015 -0.3939E-22 -0.1838E-23
     -0.969 -0.2446E-19 -0.1142E-20
     -0.922 -0.9798E-17 -0.4577E-18
     -0.876 -0.2458E-14 -0.1150E-15
     -0.829 -0.4076E-12 -0.1911E-13
     -0.782 -0.4353E-10 -0.2047E-11
     -0.736 -0.2995E-08 -0.1416E-09
     -0.689 -0.1329E-06 -0.6335E-08
     -0.643 -0.3809E-05 -0.1838E-06
     -0.596 -0.7068E-04 -0.3477E-05
     -0.549 -0.8518E-03 -0.4317E-04
     -0.503 -0.6668E-02 -0.3539E-03
     -0.456 -0.3351E-01 -0.1915E-02
     -0.410 -0.1019E+00 -0.6666E-02
     -0.363 -0.1378E+00 -0.1309E-01
     -0.316  0.2230E+00 -0.2697E-02
     -0.270  0.1507E+01  0.6752E-01
     -0.223  0.3536E+01  0.2323E+00
     -0.177  0.5069E+01  0.4685E+00
     -0.130  0.5732E+01  0.7356E+00
     -0.083  0.7322E+01  0.1077E+01
     -0.037  0.1019E+02  0.1552E+01
      0.010  0.1102E+02  0.2065E+01
      0.056  0.9155E+01  0.2492E+01
      0.103  0.9379E+01  0.2929E+01
      0.150  0.1314E+02  0.3541E+01
      0.196  0.1591E+02  0.4283E+01
      0.243  0.1605E+02  0.5031E+01
      0.289  0.1673E+02  0.5810E+01
      0.336  0.1849E+02  0.6672E+01
      0.383  0.1834E+02  0.7526E+01
      0.429  0.1742E+02  0.8338E+01
      0.476  0.1977E+02  0.9260E+01
      0.522  0.2335E+02  0.1035E+02
      0.569  0.2405E+02  0.1147E+02
      0.616  0.2229E+02  0.1251E+02
      0.662  0.1875E+02  0.1338E+02
      0.709  0.1410E+02  0.1404E+02
      0.755  0.1114E+02  0.1456E+02
      0.802  0.1071E+02  0.1506E+02
      0.849  0.1114E+02  0.1558E+02
      0.895  0.1216E+02  0.1614E+02
      0.942  0.1463E+02  0.1682E+02
      0.988  0.1830E+02  0.1768E+02
      1.035  0.2283E+02  0.1874E+02
      1.082  0.2802E+02  0.2005E+02
      1.128  0.3122E+02  0.2150E+02
      1.175  0.2977E+02  0.2289E+02
      1.221  0.2595E+02  0.2410E+02
      1.268  0.2310E+02  0.2517E+02
      1.315  0.2098E+02  0.2615E+02
      1.361  0.2001E+02  0.2708E+02
      1.408  0.2158E+02  0.2809E+02
      1.454  0.2404E+02  0.2921E+02
      1.501  0.2566E+02  0.3041E+02
      1.548  0.2896E+02  0.3175E+02
      1.594  0.3508E+02  0.3339E+02
      1.641  0.3873E+02  0.3519E+02
      1.687  0.3785E+02  0.3696E+02
      1.734  0.3920E+02  0.3878E+02
      1.781  0.4544E+02  0.4090E+02
      1.827  0.4934E+02  0.4320E+02
      1.874  0.4787E+02  0.4543E+02
      1.920  0.4728E+02  0.4763E+02
      1.967  0.5083E+02  0.5000E+02
      2.014  0.5406E+02  0.5252E+02
      2.060  0.5546E+02  0.5511E+02
      2.107  0.6130E+02  0.5796E+02
      2.153  0.7441E+02  0.6143E+02
      2.200  0.8921E+02  0.6559E+02
      2.246  0.1029E+03  0.7038E+02
      2.293  0.1176E+03  0.7586E+02
      2.340  0.1309E+03  0.8196E+02
      2.386  0.1382E+03  0.8840E+02
      2.433  0.1431E+03  0.9507E+02
      2.479  0.1521E+03  0.1022E+03
      2.526  0.1609E+03  0.1097E+03
      2.573  0.1617E+03  0.1172E+03
      2.619  0.1614E+03  0.1247E+03
      2.666  0.1689E+03  0.1326E+03
      2.712  0.1784E+03  0.1409E+03
      2.759  0.1848E+03  0.1495E+03
      2.806  0.1977E+03  0.1587E+03
      2.852  0.2227E+03  0.1691E+03
      2.899  0.2475E+03  0.1806E+03
      2.945  0.2564E+03  0.1926E+03
      2.992  0.2499E+03  0.2042E+03
      3.039  0.2467E+03  0.2157E+03
      3.085  0.2618E+03  0.2279E+03
      3.132  0.2862E+03  0.2412E+03
      3.178  0.3011E+03  0.2553E+03
      3.225  0.3038E+03  0.2694E+03
      3.272  0.3052E+03  0.2837E+03
      3.318  0.3087E+03  0.2980E+03
      3.365  0.3113E+03  0.3125E+03
      3.411  0.3144E+03  0.3272E+03
      3.458  0.3215E+03  0.3422E+03
      3.505  0.3331E+03  0.3577E+03
      3.551  0.3439E+03  0.3737E+03
      3.598  0.3470E+03  0.3899E+03
      3.644  0.3451E+03  0.4060E+03
      3.691  0.3488E+03  0.4222E+03
      3.738  0.3577E+03  0.4389E+03
      3.784  0.3594E+03  0.4556E+03
      3.831  0.3523E+03  0.4721E+03
      3.877  0.3478E+03  0.4883E+03
      3.924  0.3496E+03  0.5046E+03
      3.971  0.3506E+03  0.5209E+03
      4.017  0.3416E+03  0.5368E+03
      4.064  0.3231E+03  0.5519E+03
      4.110  0.3069E+03  0.5662E+03
      4.157  0.2976E+03  0.5800E+03
      4.204  0.2875E+03  0.5934E+03
      4.250  0.2714E+03  0.6061E+03
      4.297  0.2538E+03  0.6179E+03
      4.343  0.2428E+03  0.6292E+03
      4.390  0.2452E+03  0.6406E+03
      4.437  0.2577E+03  0.6526E+03
      4.483  0.2619E+03  0.6648E+03
      4.530  0.2508E+03  0.6765E+03
      4.576  0.2475E+03  0.6881E+03
      4.623  0.2669E+03  0.7005E+03
      4.670  0.2919E+03  0.7141E+03
      4.716  0.3069E+03  0.7284E+03
      4.763  0.3138E+03  0.7430E+03
      4.809  0.3136E+03  0.7576E+03
      4.856  0.3050E+03  0.7719E+03
      4.903  0.2902E+03  0.7854E+03
      4.949  0.2785E+03  0.7984E+03
      4.996  0.2810E+03  0.8114E+03
      5.042  0.2951E+03  0.8252E+03
      5.089  0.3079E+03  0.8395E+03
      5.136  0.3093E+03  0.8540E+03
      5.182  0.2977E+03  0.8678E+03
      5.229  0.2856E+03  0.8811E+03
      5.275  0.2844E+03  0.8944E+03
      5.322  0.2904E+03  0.9079E+03
      5.369  0.2973E+03  0.9218E+03
      5.415  0.3018E+03  0.9358E+03
      5.462  0.2986E+03  0.9497E+03
      5.508  0.2887E+03  0.9632E+03
      5.555  0.2865E+03  0.9766E+03
      5.601  0.3024E+03  0.9906E+03
      5.648  0.3214E+03  0.1006E+04
      5.695  0.3254E+03  0.1021E+04
      5.741  0.3204E+03  0.1036E+04
      5.788  0.3200E+03  0.1051E+04
      5.834  0.3262E+03  0.1066E+04
      5.881  0.3366E+03  0.1082E+04
      5.928  0.3499E+03  0.1098E+04
      5.974  0.3652E+03  0.1115E+04
      6.021  0.3788E+03  0.1132E+04
      6.067  0.3854E+03  0.1150E+04
      6.114  0.3874E+03  0.1168E+04
      6.161  0.3915E+03  0.1187E+04
      6.207  0.3985E+03  0.1205E+04
      6.254  0.4094E+03  0.1224E+04
      6.300  0.4270E+03  0.1244E+04
      6.347  0.4463E+03  0.1265E+04
      6.394  0.4573E+03  0.1286E+04
      6.440  0.4571E+03  0.1308E+04
      6.487  0.4531E+03  0.1329E+04
      6.533  0.4501E+03  0.1350E+04
      6.580  0.4459E+03  0.1371E+04
      6.627  0.4395E+03  0.1391E+04
      6.673  0.4320E+03  0.1411E+04
      6.720  0.4249E+03  0.1431E+04
      6.766  0.4170E+03  0.1450E+04
      6.813  0.4017E+03  0.1469E+04
      6.860  0.3770E+03  0.1487E+04
      6.906  0.3546E+03  0.1503E+04
      6.953  0.3444E+03  0.1519E+04
      6.999  0.3393E+03  0.1535E+04
      7.046  0.3278E+03  0.1550E+04
      7.093  0.3150E+03  0.1565E+04
      7.139  0.3135E+03  0.1580E+04
      7.186  0.3193E+03  0.1594E+04
      7.232  0.3135E+03  0.1609E+04
      7.279  0.2878E+03  0.1623E+04
      7.326  0.2563E+03  0.1634E+04
      7.372  0.2403E+03  0.1646E+04
      7.419  0.2485E+03  0.1657E+04
      7.465  0.2709E+03  0.1670E+04
      7.512  0.2845E+03  0.1683E+04
      7.559  0.2766E+03  0.1696E+04
      7.605  0.2587E+03  0.1708E+04
      7.652  0.2483E+03  0.1720E+04
      7.698  0.2569E+03  0.1732E+04
      7.745  0.2825E+03  0.1745E+04
      7.792  0.3052E+03  0.1759E+04
      7.838  0.3120E+03  0.1774E+04
      7.885  0.3089E+03  0.1788E+04
      7.931  0.3032E+03  0.1802E+04
      7.978  0.2961E+03  0.1816E+04
      8.025  0.2910E+03  0.1829E+04
      8.071  0.2956E+03  0.1843E+04
      8.118  0.3091E+03  0.1858E+04
      8.164  0.3171E+03  0.1872E+04
      8.211  0.3178E+03  0.1887E+04
      8.258  0.3296E+03  0.1903E+04
      8.304  0.3533E+03  0.1919E+04
      8.351  0.3624E+03  0.1936E+04
      8.397  0.3402E+03  0.1952E+04
      8.444  0.3004E+03  0.1966E+04
      8.491  0.2672E+03  0.1978E+04
      8.537  0.2557E+03  0.1990E+04
      8.584  0.2706E+03  0.2003E+04
      8.630  0.2953E+03  0.2016E+04
      8.677  0.3003E+03  0.2030E+04
      8.724  0.2842E+03  0.2044E+04
      8.770  0.2677E+03  0.2056E+04
      8.817  0.2571E+03  0.2068E+04
      8.863  0.2492E+03  0.2080E+04
      8.910  0.2452E+03  0.2091E+04
      8.956  0.2453E+03  0.2103E+04
      9.003  0.2532E+03  0.2114E+04
      9.050  0.2731E+03  0.2127E+04
      9.096  0.2841E+03  0.2140E+04
      9.143  0.2665E+03  0.2153E+04
      9.189  0.2411E+03  0.2164E+04
      9.236  0.2284E+03  0.2175E+04
      9.283  0.2200E+03  0.2185E+04
      9.329  0.2138E+03  0.2195E+04
      9.376  0.2216E+03  0.2205E+04
      9.422  0.2421E+03  0.2216E+04
      9.469  0.2621E+03  0.2229E+04
      9.516  0.2735E+03  0.2241E+04
      9.562  0.2773E+03  0.2254E+04
      9.609  0.2763E+03  0.2267E+04
      9.655  0.2711E+03  0.2280E+04
      9.702  0.2612E+03  0.2292E+04
      9.749  0.2442E+03  0.2303E+04
      9.795  0.2245E+03  0.2314E+04
      9.842  0.2194E+03  0.2324E+04
      9.888  0.2362E+03  0.2335E+04
      9.935  0.2637E+03  0.2347E+04
      9.982  0.2945E+03  0.2361E+04
     10.028  0.3267E+03  0.2376E+04
     10.075  0.3489E+03  0.2393E+04
     10.121  0.3466E+03  0.2409E+04
     10.168  0.3243E+03  0.2424E+04
     10.215  0.3102E+03  0.2438E+04
     10.261  0.3284E+03  0.2454E+04
     10.308  0.3858E+03  0.2472E+04
     10.354  0.4650E+03  0.2493E+04
     10.401  0.5181E+03  0.2517E+04
     10.448  0.5098E+03  0.2541E+04
     10.494  0.4518E+03  0.2562E+04
     10.541  0.3754E+03  0.2580E+04
     10.587  0.3034E+03  0.2594E+04
     10.634  0.2490E+03  0.2605E+04
     10.681  0.2129E+03  0.2615E+04
     10.727  0.1814E+03  0.2624E+04
     10.774  0.1429E+03  0.2630E+04
     10.820  0.9828E+02  0.2635E+04
     10.867  0.5713E+02  0.2638E+04
     10.914  0.2771E+02  0.2639E+04
     10.960  0.1076E+02  0.2639E+04
     11.007  0.3110E+01  0.2640E+04
     11.053  0.1296E+01  0.2640E+04
     11.100  0.1638E+01  0.2640E+04
     11.147  0.1505E+01  0.2640E+04
     11.193  0.6498E+00  0.2640E+04
     11.240  0.1695E-01  0.2640E+04
     11.286 -0.1068E+00  0.2640E+04
     11.333 -0.4873E-01  0.2640E+04
     11.380 -0.1084E-01  0.2640E+04
     11.426 -0.3453E-02  0.2640E+04
     11.473 -0.1320E-01  0.2640E+04
     11.519 -0.4245E-01  0.2640E+04
     11.566 -0.3560E-01  0.2640E+04
     11.613  0.2009E+00  0.2640E+04
     11.659  0.7173E+00  0.2640E+04
     11.706  0.1026E+01  0.2640E+04
     11.752  0.7211E+00  0.2640E+04
     11.799  0.2038E+00  0.2640E+04
     11.846 -0.3500E-01  0.2640E+04
     11.892 -0.4267E-01  0.2640E+04
     11.939 -0.1324E-01  0.2640E+04
     11.985 -0.2144E-02  0.2640E+04
     12.032 -0.2037E-03  0.2640E+04
     12.078 -0.1186E-04  0.2640E+04
     12.125 -0.4314E-06  0.2640E+04
     12.172 -0.9924E-08  0.2640E+04
     12.218 -0.1453E-09  0.2640E+04
     12.265 -0.1360E-11  0.2640E+04
     12.311 -0.8041E-14  0.2640E+04
     12.358  0.0000E+00  0.2640E+04
     12.405  0.0000E+00  0.2640E+04
     12.451  0.0000E+00  0.2640E+04
     12.498  0.0000E+00  0.2640E+04
     12.544  0.0000E+00  0.2640E+04
     12.591  0.0000E+00  0.2640E+04
     12.638  0.0000E+00  0.2640E+04
     12.684  0.0000E+00  0.2640E+04
