       N       E                     dE             d eps       ncg     rms          rms(c)
DAV:   1     0.112829834003E+05    0.11283E+05   -0.55466E+05 95400   0.810E+02
DAV:   2    -0.143894138841E+04   -0.12722E+05   -0.12145E+05 95800   0.337E+02
DAV:   3    -0.241083744790E+04   -0.97190E+03   -0.89384E+03135140   0.780E+01
DAV:   4    -0.248227953271E+04   -0.71442E+02   -0.69016E+02132100   0.209E+01
DAV:   5    -0.248512248792E+04   -0.28430E+01   -0.27869E+01139800   0.332E+00    0.779E+01
RMM:   6    -0.241648639533E+04    0.68636E+02   -0.68095E+02105895   0.245E+01    0.623E+01
RMM:   7    -0.236997052053E+04    0.46516E+02   -0.35221E+02 97776   0.172E+01    0.455E+01
RMM:   8    -0.233987914328E+04    0.30091E+02   -0.15709E+02 97684   0.114E+01    0.321E+01
RMM:   9    -0.231564516365E+04    0.24234E+02   -0.34500E+01 98730   0.532E+00    0.624E+00
RMM:  10    -0.231546705658E+04    0.17811E+00   -0.73494E+00136753   0.152E+00    0.366E+00
RMM:  11    -0.231536000444E+04    0.10705E+00   -0.13296E+00122573   0.719E-01    0.402E+00
RMM:  12    -0.231489314981E+04    0.46685E+00   -0.57726E-01113023   0.683E-01    0.201E+00
RMM:  13    -0.231477834158E+04    0.11481E+00   -0.25568E-01112134   0.440E-01    0.131E+00
RMM:  14    -0.231475690582E+04    0.21436E-01   -0.15483E-01113118   0.320E-01    0.142E+00
RMM:  15    -0.231473114214E+04    0.25764E-01   -0.50368E-02120837   0.138E-01    0.966E-01
RMM:  16    -0.231471646047E+04    0.14682E-01   -0.20132E-02112840   0.113E-01    0.460E-01
RMM:  17    -0.231471361080E+04    0.28497E-02   -0.14833E-02120457   0.864E-02    0.202E-01
RMM:  18    -0.231471449725E+04   -0.88645E-03   -0.89726E-03131940   0.590E-02    0.230E-01
RMM:  19    -0.231471431937E+04    0.17788E-03   -0.18190E-03137714   0.217E-02    0.215E-01
RMM:  20    -0.231471363509E+04    0.68428E-03   -0.60886E-04112483   0.192E-02    0.130E-01
RMM:  21    -0.231471327816E+04    0.35692E-03   -0.10602E-03121109   0.232E-02    0.350E-02
RMM:  22    -0.231471325736E+04    0.20806E-04   -0.25424E-04138459   0.887E-03
   1 F= -.23147133E+04 E0= -.23147209E+04  d E =0.229612E-01
