 256 256   0   0
  0.1418917E+02  0.1588033E-08  0.1692661E-08  0.1693229E-08  0.5000000E-15
  1.000000000000000E-004
  CAR 
 Ir_Ru                                   
     14.28108473     -1.29216821  301      9.45687767      1.00000000
     -1.292  0.0000E+00  0.0000E+00
     -1.240  0.0000E+00  0.0000E+00
     -1.188  0.0000E+00  0.0000E+00
     -1.136 -0.2821E-30 -0.1464E-31
     -1.085 -0.1295E-26 -0.6726E-28
     -1.033 -0.3457E-23 -0.1795E-24
     -0.981 -0.5353E-20 -0.2781E-21
     -0.929 -0.4809E-17 -0.2499E-18
     -0.877 -0.2444E-14 -0.1271E-15
     -0.825 -0.7280E-12 -0.3792E-13
     -0.773 -0.1257E-09 -0.6564E-11
     -0.721 -0.1248E-07 -0.6547E-09
     -0.669 -0.7100E-06 -0.3751E-07
     -0.617 -0.2300E-04 -0.1231E-05
     -0.565 -0.4210E-03 -0.2309E-04
     -0.514 -0.4316E-02 -0.2471E-03
     -0.462 -0.2451E-01 -0.1520E-02
     -0.410 -0.7558E-01 -0.5443E-02
     -0.358 -0.1017E+00 -0.1072E-01
     -0.306  0.2110E+00  0.2331E-03
     -0.254  0.1657E+01  0.8626E-01
     -0.202  0.4422E+01  0.3158E+00
     -0.150  0.6362E+01  0.6461E+00
     -0.098  0.6423E+01  0.9795E+00
     -0.046  0.6978E+01  0.1342E+01
      0.006  0.8884E+01  0.1803E+01
      0.058  0.1121E+02  0.2385E+01
      0.109  0.1364E+02  0.3093E+01
      0.161  0.1433E+02  0.3837E+01
      0.213  0.1166E+02  0.4442E+01
      0.265  0.1009E+02  0.4966E+01
      0.317  0.1437E+02  0.5712E+01
      0.369  0.2042E+02  0.6772E+01
      0.421  0.2254E+02  0.7942E+01
      0.473  0.2273E+02  0.9122E+01
      0.525  0.2353E+02  0.1034E+02
      0.577  0.2250E+02  0.1151E+02
      0.629  0.2045E+02  0.1257E+02
      0.680  0.2104E+02  0.1367E+02
      0.732  0.2030E+02  0.1472E+02
      0.784  0.1442E+02  0.1547E+02
      0.836  0.8739E+01  0.1592E+02
      0.888  0.7963E+01  0.1633E+02
      0.940  0.1171E+02  0.1694E+02
      0.992  0.1900E+02  0.1793E+02
      1.044  0.2798E+02  0.1938E+02
      1.096  0.3343E+02  0.2112E+02
      1.148  0.3307E+02  0.2283E+02
      1.200  0.2875E+02  0.2433E+02
      1.251  0.2274E+02  0.2551E+02
      1.303  0.1944E+02  0.2652E+02
      1.355  0.2175E+02  0.2764E+02
      1.407  0.2727E+02  0.2906E+02
      1.459  0.3035E+02  0.3064E+02
      1.511  0.2978E+02  0.3218E+02
      1.563  0.2937E+02  0.3371E+02
      1.615  0.3049E+02  0.3529E+02
      1.667  0.3114E+02  0.3691E+02
      1.719  0.3202E+02  0.3857E+02
      1.771  0.3508E+02  0.4039E+02
      1.822  0.3929E+02  0.4243E+02
      1.874  0.4576E+02  0.4480E+02
      1.926  0.5481E+02  0.4765E+02
      1.978  0.5925E+02  0.5072E+02
      2.030  0.5457E+02  0.5356E+02
      2.082  0.5053E+02  0.5618E+02
      2.134  0.6195E+02  0.5940E+02
      2.186  0.8730E+02  0.6393E+02
      2.238  0.1089E+03  0.6958E+02
      2.290  0.1198E+03  0.7580E+02
      2.342  0.1259E+03  0.8234E+02
      2.394  0.1317E+03  0.8918E+02
      2.445  0.1378E+03  0.9633E+02
      2.497  0.1477E+03  0.1040E+03
      2.549  0.1649E+03  0.1126E+03
      2.601  0.1833E+03  0.1221E+03
      2.653  0.1952E+03  0.1322E+03
      2.705  0.2072E+03  0.1430E+03
      2.757  0.2241E+03  0.1546E+03
      2.809  0.2306E+03  0.1666E+03
      2.861  0.2242E+03  0.1782E+03
      2.913  0.2278E+03  0.1900E+03
      2.965  0.2453E+03  0.2028E+03
      3.016  0.2577E+03  0.2161E+03
      3.068  0.2598E+03  0.2296E+03
      3.120  0.2605E+03  0.2432E+03
      3.172  0.2640E+03  0.2569E+03
      3.224  0.2731E+03  0.2710E+03
      3.276  0.2883E+03  0.2860E+03
      3.328  0.3077E+03  0.3020E+03
      3.380  0.3245E+03  0.3188E+03
      3.432  0.3307E+03  0.3360E+03
      3.484  0.3277E+03  0.3530E+03
      3.536  0.3213E+03  0.3697E+03
      3.587  0.3183E+03  0.3862E+03
      3.639  0.3166E+03  0.4026E+03
      3.691  0.3110E+03  0.4188E+03
      3.743  0.3051E+03  0.4346E+03
      3.795  0.3010E+03  0.4503E+03
      3.847  0.2966E+03  0.4656E+03
      3.899  0.2931E+03  0.4809E+03
      3.951  0.2883E+03  0.4958E+03
      4.003  0.2758E+03  0.5101E+03
      4.055  0.2665E+03  0.5240E+03
      4.107  0.2762E+03  0.5383E+03
      4.158  0.2946E+03  0.5536E+03
      4.210  0.3028E+03  0.5693E+03
      4.262  0.3052E+03  0.5852E+03
      4.314  0.3121E+03  0.6014E+03
      4.366  0.3185E+03  0.6179E+03
      4.418  0.3212E+03  0.6346E+03
      4.470  0.3237E+03  0.6514E+03
      4.522  0.3209E+03  0.6680E+03
      4.574  0.3091E+03  0.6841E+03
      4.626  0.2969E+03  0.6995E+03
      4.678  0.2936E+03  0.7147E+03
      4.729  0.2986E+03  0.7302E+03
      4.781  0.3063E+03  0.7461E+03
      4.833  0.3184E+03  0.7627E+03
      4.885  0.3318E+03  0.7799E+03
      4.937  0.3379E+03  0.7974E+03
      4.989  0.3456E+03  0.8154E+03
      5.041  0.3587E+03  0.8340E+03
      5.093  0.3657E+03  0.8530E+03
      5.145  0.3640E+03  0.8719E+03
      5.197  0.3544E+03  0.8903E+03
      5.249  0.3334E+03  0.9076E+03
      5.301  0.3007E+03  0.9232E+03
      5.352  0.2595E+03  0.9367E+03
      5.404  0.2165E+03  0.9479E+03
      5.456  0.1834E+03  0.9574E+03
      5.508  0.1728E+03  0.9664E+03
      5.560  0.1906E+03  0.9763E+03
      5.612  0.2295E+03  0.9882E+03
      5.664  0.2781E+03  0.1003E+04
      5.716  0.3280E+03  0.1020E+04
      5.768  0.3695E+03  0.1039E+04
      5.820  0.3963E+03  0.1059E+04
      5.872  0.4110E+03  0.1081E+04
      5.923  0.4195E+03  0.1103E+04
      5.975  0.4259E+03  0.1125E+04
      6.027  0.4280E+03  0.1147E+04
      6.079  0.4153E+03  0.1168E+04
      6.131  0.3906E+03  0.1189E+04
      6.183  0.3711E+03  0.1208E+04
      6.235  0.3607E+03  0.1227E+04
      6.287  0.3551E+03  0.1245E+04
      6.339  0.3568E+03  0.1264E+04
      6.391  0.3700E+03  0.1283E+04
      6.443  0.3822E+03  0.1303E+04
      6.494  0.3843E+03  0.1323E+04
      6.546  0.3924E+03  0.1343E+04
      6.598  0.4109E+03  0.1364E+04
      6.650  0.4243E+03  0.1386E+04
      6.702  0.4281E+03  0.1409E+04
      6.754  0.4250E+03  0.1431E+04
      6.806  0.4124E+03  0.1452E+04
      6.858  0.3908E+03  0.1472E+04
      6.910  0.3727E+03  0.1492E+04
      6.962  0.3664E+03  0.1511E+04
      7.014  0.3635E+03  0.1530E+04
      7.065  0.3687E+03  0.1549E+04
      7.117  0.3926E+03  0.1569E+04
      7.169  0.4156E+03  0.1591E+04
      7.221  0.4224E+03  0.1613E+04
      7.273  0.4222E+03  0.1635E+04
      7.325  0.4124E+03  0.1656E+04
      7.377  0.3864E+03  0.1676E+04
      7.429  0.3575E+03  0.1695E+04
      7.481  0.3394E+03  0.1712E+04
      7.533  0.3322E+03  0.1729E+04
      7.585  0.3283E+03  0.1746E+04
      7.636  0.3161E+03  0.1763E+04
      7.688  0.2945E+03  0.1778E+04
      7.740  0.2768E+03  0.1793E+04
      7.792  0.2684E+03  0.1806E+04
      7.844  0.2634E+03  0.1820E+04
      7.896  0.2571E+03  0.1833E+04
      7.948  0.2479E+03  0.1846E+04
      8.000  0.2428E+03  0.1859E+04
      8.052  0.2432E+03  0.1872E+04
      8.104  0.2388E+03  0.1884E+04
      8.156  0.2309E+03  0.1896E+04
      8.208  0.2291E+03  0.1908E+04
      8.259  0.2338E+03  0.1920E+04
      8.311  0.2381E+03  0.1932E+04
      8.363  0.2391E+03  0.1945E+04
      8.415  0.2365E+03  0.1957E+04
      8.467  0.2281E+03  0.1969E+04
      8.519  0.2180E+03  0.1980E+04
      8.571  0.2119E+03  0.1991E+04
      8.623  0.2068E+03  0.2002E+04
      8.675  0.1993E+03  0.2012E+04
      8.727  0.1907E+03  0.2022E+04
      8.779  0.1826E+03  0.2032E+04
      8.830  0.1795E+03  0.2041E+04
      8.882  0.1895E+03  0.2051E+04
      8.934  0.2151E+03  0.2062E+04
      8.986  0.2363E+03  0.2074E+04
      9.038  0.2357E+03  0.2086E+04
      9.090  0.2223E+03  0.2098E+04
      9.142  0.2050E+03  0.2109E+04
      9.194  0.1858E+03  0.2118E+04
      9.246  0.1793E+03  0.2128E+04
      9.298  0.1996E+03  0.2138E+04
      9.350  0.2302E+03  0.2150E+04
      9.401  0.2432E+03  0.2163E+04
      9.453  0.2429E+03  0.2175E+04
      9.505  0.2451E+03  0.2188E+04
      9.557  0.2441E+03  0.2201E+04
      9.609  0.2473E+03  0.2213E+04
      9.661  0.2776E+03  0.2228E+04
      9.713  0.3200E+03  0.2244E+04
      9.765  0.3354E+03  0.2262E+04
      9.817  0.3253E+03  0.2279E+04
      9.869  0.3163E+03  0.2295E+04
      9.921  0.3156E+03  0.2311E+04
      9.972  0.3228E+03  0.2328E+04
     10.024  0.3455E+03  0.2346E+04
     10.076  0.3828E+03  0.2366E+04
     10.128  0.4146E+03  0.2388E+04
     10.180  0.4290E+03  0.2410E+04
     10.232  0.4369E+03  0.2433E+04
     10.284  0.4500E+03  0.2456E+04
     10.336  0.4682E+03  0.2480E+04
     10.388  0.4857E+03  0.2505E+04
     10.440  0.4945E+03  0.2531E+04
     10.492  0.4842E+03  0.2556E+04
     10.544  0.4450E+03  0.2579E+04
     10.595  0.3853E+03  0.2599E+04
     10.647  0.3180E+03  0.2616E+04
     10.699  0.2348E+03  0.2628E+04
     10.751  0.1344E+03  0.2635E+04
     10.803  0.4698E+02  0.2637E+04
     10.855  0.2605E+01  0.2638E+04
     10.907 -0.5511E+01  0.2637E+04
     10.959 -0.2512E+01  0.2637E+04
     11.011 -0.5501E+00  0.2637E+04
     11.063 -0.7905E-01  0.2637E+04
     11.115 -0.8841E-02  0.2637E+04
     11.166 -0.7470E-03  0.2637E+04
     11.218 -0.4140E-04  0.2637E+04
     11.270 -0.1375E-05  0.2637E+04
     11.322 -0.2649E-07  0.2637E+04
     11.374 -0.2937E-09  0.2637E+04
     11.426 -0.1879E-11  0.2637E+04
     11.478 -0.1779E-11  0.2637E+04
     11.530 -0.3315E-09  0.2637E+04
     11.582 -0.3567E-07  0.2637E+04
     11.634 -0.2195E-05  0.2637E+04
     11.686 -0.7650E-04  0.2637E+04
     11.737 -0.1484E-02  0.2637E+04
     11.789 -0.1546E-01  0.2637E+04
     11.841 -0.7894E-01  0.2637E+04
     11.893 -0.1294E+00  0.2637E+04
     11.945  0.3758E+00  0.2637E+04
     11.997  0.1806E+01  0.2637E+04
     12.049  0.2667E+01  0.2637E+04
     12.101  0.1810E+01  0.2637E+04
     12.153  0.8233E+00  0.2637E+04
     12.205  0.6520E+00  0.2638E+04
     12.257  0.1312E+01  0.2638E+04
     12.308  0.3020E+01  0.2638E+04
     12.360  0.4130E+01  0.2638E+04
     12.412  0.3429E+01  0.2638E+04
     12.464  0.2235E+01  0.2638E+04
     12.516  0.1751E+01  0.2638E+04
     12.568  0.2159E+01  0.2638E+04
     12.620  0.3099E+01  0.2639E+04
     12.672  0.4036E+01  0.2639E+04
     12.724  0.4353E+01  0.2639E+04
     12.776  0.3334E+01  0.2639E+04
     12.828  0.2045E+01  0.2639E+04
     12.879  0.1965E+01  0.2639E+04
     12.931  0.2332E+01  0.2640E+04
     12.983  0.2122E+01  0.2640E+04
     13.035  0.1438E+01  0.2640E+04
     13.087  0.7955E+00  0.2640E+04
     13.139  0.6954E+00  0.2640E+04
     13.191  0.8712E+00  0.2640E+04
     13.243  0.9238E+00  0.2640E+04
     13.295  0.9410E+00  0.2640E+04
     13.347  0.6572E+00  0.2640E+04
     13.399  0.1757E+00  0.2640E+04
     13.451 -0.3810E-01  0.2640E+04
     13.502 -0.3242E-01  0.2640E+04
     13.554 -0.7280E-02  0.2640E+04
     13.606 -0.7790E-03  0.2640E+04
     13.658 -0.4430E-04  0.2640E+04
     13.710 -0.1394E-05  0.2640E+04
     13.762 -0.2473E-07  0.2640E+04
     13.814 -0.2502E-09  0.2640E+04
     13.866 -0.1452E-11  0.2640E+04
     13.918 -0.5228E-14  0.2640E+04
     13.970  0.0000E+00  0.2640E+04
     14.022  0.0000E+00  0.2640E+04
     14.073  0.0000E+00  0.2640E+04
     14.125  0.0000E+00  0.2640E+04
     14.177  0.0000E+00  0.2640E+04
     14.229  0.0000E+00  0.2640E+04
     14.281  0.0000E+00  0.2640E+04
