       N       E                     dE             d eps       ncg     rms          rms(c)
RMM:   1     0.136790763216E+05    0.13679E+05   -0.47218E+05 25080   0.725E+02
RMM:   2     0.131336603337E+04   -0.12366E+05   -0.13120E+05 25080   0.260E+02
RMM:   3    -0.104566563747E+04   -0.23590E+04   -0.22855E+04 25080   0.111E+02
RMM:   4    -0.184601322998E+04   -0.80035E+03   -0.57408E+03 25080   0.768E+01
RMM:   5    -0.212912540526E+04   -0.28311E+03   -0.24896E+03 25080   0.451E+01
RMM:   6    -0.227484069221E+04   -0.14572E+03   -0.12951E+03 25080   0.349E+01
RMM:   7    -0.235269974154E+04   -0.77859E+02   -0.73850E+02 25080   0.235E+01
RMM:   8    -0.240019446992E+04   -0.47495E+02   -0.44554E+02 25080   0.195E+01
RMM:   9    -0.247908377606E+04   -0.78889E+02   -0.77970E+02 71851   0.137E+01
RMM:  10    -0.248863940438E+04   -0.95556E+01   -0.11978E+02 79662   0.283E+00
RMM:  11    -0.249088005855E+04   -0.22407E+01   -0.17846E+01 77272   0.686E-01
RMM:  12    -0.249118636247E+04   -0.30630E+00   -0.19829E+00 79549   0.198E-01    0.782E+01
RMM:  13    -0.241366794597E+04    0.77518E+02   -0.68491E+02 57187   0.246E+01    0.583E+01
RMM:  14    -0.236779646042E+04    0.45871E+02   -0.34134E+02 51436   0.174E+01    0.416E+01
RMM:  15    -0.233564226665E+04    0.32154E+02   -0.11852E+02 53331   0.101E+01    0.255E+01
RMM:  16    -0.232131696577E+04    0.14325E+02   -0.25866E+01 56012   0.435E+00    0.437E+00
RMM:  17    -0.232147878237E+04   -0.16182E+00   -0.64523E+00 73611   0.131E+00    0.429E+00
RMM:  18    -0.232112604965E+04    0.35273E+00   -0.11785E+00 64479   0.695E-01    0.343E+00
RMM:  19    -0.232074794939E+04    0.37810E+00   -0.64151E-01 59934   0.733E-01    0.165E+00
RMM:  20    -0.232069206021E+04    0.55889E-01   -0.23913E-01 62810   0.362E-01    0.150E+00
RMM:  21    -0.232065968102E+04    0.32379E-01   -0.10957E-01 63175   0.228E-01    0.125E+00
RMM:  22    -0.232063306934E+04    0.26612E-01   -0.47144E-02 61341   0.157E-01    0.705E-01
RMM:  23    -0.232062796037E+04    0.51090E-02   -0.13503E-02 66767   0.688E-02    0.486E-01
RMM:  24    -0.232062447879E+04    0.34816E-02   -0.10464E-02 62849   0.754E-02    0.247E-01
RMM:  25    -0.232062544455E+04   -0.96576E-03   -0.13044E-02 66158   0.789E-02    0.260E-01
RMM:  26    -0.232062558799E+04   -0.14344E-03   -0.33078E-03 74957   0.289E-02    0.269E-01
RMM:  27    -0.232062463995E+04    0.94803E-03   -0.74411E-04 59902   0.212E-02    0.175E-01
RMM:  28    -0.232062406420E+04    0.57575E-03   -0.12060E-03 63598   0.254E-02    0.666E-02
RMM:  29    -0.232062399664E+04    0.67560E-04   -0.51857E-04 71939   0.137E-02
   1 F= -.23206240E+04 E0= -.23206239E+04  d E =-.307159E-03
