 256 256   0   0
  0.1419206E+02  0.1537080E-08  0.1537218E-08  0.1537636E-08  0.5000000E-15
  1.000000000000000E-004
  CAR 
 Ir_Ru                                   
     12.68548072     -1.29500448  301      9.24208594      1.00000000
     -1.295  0.0000E+00  0.0000E+00
     -1.248  0.0000E+00  0.0000E+00
     -1.202  0.0000E+00  0.0000E+00
     -1.155  0.0000E+00  0.0000E+00
     -1.109 -0.2753E-28 -0.1283E-29
     -1.062 -0.4108E-25 -0.1916E-26
     -1.015 -0.3954E-22 -0.1845E-23
     -0.969 -0.2456E-19 -0.1146E-20
     -0.922 -0.9841E-17 -0.4597E-18
     -0.876 -0.2469E-14 -0.1155E-15
     -0.829 -0.4094E-12 -0.1920E-13
     -0.782 -0.4373E-10 -0.2057E-11
     -0.736 -0.3009E-08 -0.1423E-09
     -0.689 -0.1335E-06 -0.6363E-08
     -0.643 -0.3825E-05 -0.1846E-06
     -0.596 -0.7095E-04 -0.3491E-05
     -0.549 -0.8547E-03 -0.4332E-04
     -0.503 -0.6688E-02 -0.3550E-03
     -0.456 -0.3359E-01 -0.1920E-02
     -0.410 -0.1021E+00 -0.6678E-02
     -0.363 -0.1377E+00 -0.1309E-01
     -0.316  0.2245E+00 -0.2633E-02
     -0.270  0.1511E+01  0.6777E-01
     -0.223  0.3541E+01  0.2328E+00
     -0.177  0.5072E+01  0.4691E+00
     -0.130  0.5734E+01  0.7363E+00
     -0.083  0.7330E+01  0.1078E+01
     -0.037  0.1020E+02  0.1553E+01
      0.010  0.1102E+02  0.2067E+01
      0.056  0.9151E+01  0.2493E+01
      0.103  0.9388E+01  0.2931E+01
      0.150  0.1316E+02  0.3544E+01
      0.196  0.1592E+02  0.4286E+01
      0.243  0.1605E+02  0.5034E+01
      0.289  0.1674E+02  0.5814E+01
      0.336  0.1850E+02  0.6676E+01
      0.383  0.1833E+02  0.7530E+01
      0.429  0.1743E+02  0.8342E+01
      0.476  0.1980E+02  0.9265E+01
      0.522  0.2337E+02  0.1035E+02
      0.569  0.2406E+02  0.1148E+02
      0.616  0.2228E+02  0.1251E+02
      0.662  0.1873E+02  0.1339E+02
      0.709  0.1408E+02  0.1404E+02
      0.755  0.1114E+02  0.1456E+02
      0.802  0.1071E+02  0.1506E+02
      0.849  0.1113E+02  0.1558E+02
      0.895  0.1214E+02  0.1615E+02
      0.942  0.1462E+02  0.1683E+02
      0.988  0.1831E+02  0.1768E+02
      1.035  0.2286E+02  0.1874E+02
      1.082  0.2805E+02  0.2005E+02
      1.128  0.3125E+02  0.2151E+02
      1.175  0.2977E+02  0.2290E+02
      1.221  0.2594E+02  0.2410E+02
      1.268  0.2308E+02  0.2518E+02
      1.315  0.2096E+02  0.2616E+02
      1.361  0.2000E+02  0.2709E+02
      1.408  0.2159E+02  0.2810E+02
      1.454  0.2405E+02  0.2922E+02
      1.501  0.2567E+02  0.3041E+02
      1.548  0.2897E+02  0.3176E+02
      1.594  0.3509E+02  0.3340E+02
      1.641  0.3872E+02  0.3520E+02
      1.687  0.3785E+02  0.3697E+02
      1.734  0.3924E+02  0.3879E+02
      1.781  0.4549E+02  0.4091E+02
      1.827  0.4934E+02  0.4321E+02
      1.874  0.4785E+02  0.4544E+02
      1.921  0.4730E+02  0.4765E+02
      1.967  0.5089E+02  0.5002E+02
      2.014  0.5408E+02  0.5254E+02
      2.060  0.5546E+02  0.5512E+02
      2.107  0.6134E+02  0.5798E+02
      2.154  0.7450E+02  0.6145E+02
      2.200  0.8931E+02  0.6562E+02
      2.247  0.1030E+03  0.7042E+02
      2.293  0.1178E+03  0.7591E+02
      2.340  0.1310E+03  0.8201E+02
      2.387  0.1383E+03  0.8845E+02
      2.433  0.1432E+03  0.9513E+02
      2.480  0.1523E+03  0.1022E+03
      2.526  0.1610E+03  0.1097E+03
      2.573  0.1617E+03  0.1173E+03
      2.620  0.1613E+03  0.1248E+03
      2.666  0.1689E+03  0.1327E+03
      2.713  0.1784E+03  0.1410E+03
      2.759  0.1847E+03  0.1496E+03
      2.806  0.1977E+03  0.1588E+03
      2.853  0.2228E+03  0.1692E+03
      2.899  0.2476E+03  0.1807E+03
      2.946  0.2564E+03  0.1927E+03
      2.992  0.2499E+03  0.2043E+03
      3.039  0.2468E+03  0.2158E+03
      3.086  0.2620E+03  0.2280E+03
      3.132  0.2864E+03  0.2414E+03
      3.179  0.3011E+03  0.2554E+03
      3.225  0.3037E+03  0.2696E+03
      3.272  0.3050E+03  0.2838E+03
      3.319  0.3085E+03  0.2981E+03
      3.365  0.3113E+03  0.3126E+03
      3.412  0.3145E+03  0.3273E+03
      3.458  0.3217E+03  0.3423E+03
      3.505  0.3333E+03  0.3578E+03
      3.552  0.3440E+03  0.3739E+03
      3.598  0.3469E+03  0.3900E+03
      3.645  0.3450E+03  0.4061E+03
      3.691  0.3488E+03  0.4223E+03
      3.738  0.3578E+03  0.4390E+03
      3.785  0.3593E+03  0.4558E+03
      3.831  0.3522E+03  0.4722E+03
      3.878  0.3477E+03  0.4884E+03
      3.924  0.3496E+03  0.5047E+03
      3.971  0.3506E+03  0.5210E+03
      4.018  0.3416E+03  0.5369E+03
      4.064  0.3230E+03  0.5520E+03
      4.111  0.3068E+03  0.5663E+03
      4.157  0.2976E+03  0.5802E+03
      4.204  0.2874E+03  0.5935E+03
      4.251  0.2713E+03  0.6062E+03
      4.297  0.2537E+03  0.6180E+03
      4.344  0.2427E+03  0.6293E+03
      4.390  0.2453E+03  0.6408E+03
      4.437  0.2578E+03  0.6528E+03
      4.484  0.2617E+03  0.6650E+03
      4.530  0.2506E+03  0.6766E+03
      4.577  0.2476E+03  0.6882E+03
      4.623  0.2671E+03  0.7006E+03
      4.670  0.2920E+03  0.7142E+03
      4.717  0.3069E+03  0.7285E+03
      4.763  0.3138E+03  0.7432E+03
      4.810  0.3135E+03  0.7578E+03
      4.856  0.3048E+03  0.7720E+03
      4.903  0.2901E+03  0.7855E+03
      4.950  0.2786E+03  0.7985E+03
      4.996  0.2812E+03  0.8116E+03
      5.043  0.2952E+03  0.8253E+03
      5.089  0.3080E+03  0.8397E+03
      5.136  0.3093E+03  0.8541E+03
      5.183  0.2976E+03  0.8680E+03
      5.229  0.2856E+03  0.8813E+03
      5.276  0.2845E+03  0.8945E+03
      5.322  0.2905E+03  0.9081E+03
      5.369  0.2973E+03  0.9219E+03
      5.416  0.3018E+03  0.9360E+03
      5.462  0.2985E+03  0.9499E+03
      5.509  0.2885E+03  0.9634E+03
      5.555  0.2865E+03  0.9767E+03
      5.602  0.3026E+03  0.9908E+03
      5.649  0.3216E+03  0.1006E+04
      5.695  0.3254E+03  0.1021E+04
      5.742  0.3203E+03  0.1036E+04
      5.788  0.3200E+03  0.1051E+04
      5.835  0.3262E+03  0.1066E+04
      5.882  0.3367E+03  0.1082E+04
      5.928  0.3501E+03  0.1098E+04
      5.975  0.3655E+03  0.1115E+04
      6.021  0.3791E+03  0.1133E+04
      6.068  0.3856E+03  0.1151E+04
      6.115  0.3876E+03  0.1169E+04
      6.161  0.3916E+03  0.1187E+04
      6.208  0.3986E+03  0.1206E+04
      6.254  0.4096E+03  0.1225E+04
      6.301  0.4273E+03  0.1245E+04
      6.348  0.4465E+03  0.1265E+04
      6.394  0.4573E+03  0.1287E+04
      6.441  0.4571E+03  0.1308E+04
      6.487  0.4530E+03  0.1329E+04
      6.534  0.4499E+03  0.1350E+04
      6.581  0.4455E+03  0.1371E+04
      6.627  0.4391E+03  0.1391E+04
      6.674  0.4318E+03  0.1411E+04
      6.720  0.4248E+03  0.1431E+04
      6.767  0.4171E+03  0.1451E+04
      6.814  0.4016E+03  0.1469E+04
      6.860  0.3768E+03  0.1487E+04
      6.907  0.3543E+03  0.1503E+04
      6.953  0.3443E+03  0.1519E+04
      7.000  0.3392E+03  0.1535E+04
      7.047  0.3276E+03  0.1551E+04
      7.093  0.3148E+03  0.1565E+04
      7.140  0.3135E+03  0.1580E+04
      7.186  0.3194E+03  0.1595E+04
      7.233  0.3133E+03  0.1609E+04
      7.280  0.2873E+03  0.1623E+04
      7.326  0.2558E+03  0.1635E+04
      7.373  0.2402E+03  0.1646E+04
      7.419  0.2488E+03  0.1657E+04
      7.466  0.2713E+03  0.1670E+04
      7.513  0.2846E+03  0.1683E+04
      7.559  0.2764E+03  0.1696E+04
      7.606  0.2584E+03  0.1708E+04
      7.653  0.2483E+03  0.1720E+04
      7.699  0.2573E+03  0.1732E+04
      7.746  0.2830E+03  0.1745E+04
      7.792  0.3054E+03  0.1759E+04
      7.839  0.3120E+03  0.1774E+04
      7.886  0.3088E+03  0.1788E+04
      7.932  0.3032E+03  0.1802E+04
      7.979  0.2961E+03  0.1816E+04
      8.025  0.2911E+03  0.1830E+04
      8.072  0.2958E+03  0.1843E+04
      8.119  0.3093E+03  0.1858E+04
      8.165  0.3169E+03  0.1873E+04
      8.212  0.3175E+03  0.1887E+04
      8.258  0.3297E+03  0.1903E+04
      8.305  0.3537E+03  0.1919E+04
      8.352  0.3624E+03  0.1936E+04
      8.398  0.3397E+03  0.1952E+04
      8.445  0.2998E+03  0.1966E+04
      8.491  0.2668E+03  0.1978E+04
      8.538  0.2557E+03  0.1990E+04
      8.585  0.2710E+03  0.2003E+04
      8.631  0.2956E+03  0.2017E+04
      8.678  0.3002E+03  0.2031E+04
      8.724  0.2840E+03  0.2044E+04
      8.771  0.2674E+03  0.2056E+04
      8.818  0.2568E+03  0.2068E+04
      8.864  0.2491E+03  0.2080E+04
      8.911  0.2451E+03  0.2091E+04
      8.957  0.2453E+03  0.2103E+04
      9.004  0.2535E+03  0.2115E+04
      9.051  0.2735E+03  0.2127E+04
      9.097  0.2840E+03  0.2141E+04
      9.144  0.2659E+03  0.2153E+04
      9.190  0.2407E+03  0.2164E+04
      9.237  0.2282E+03  0.2175E+04
      9.284  0.2199E+03  0.2185E+04
      9.330  0.2138E+03  0.2195E+04
      9.377  0.2219E+03  0.2205E+04
      9.423  0.2426E+03  0.2217E+04
      9.470  0.2624E+03  0.2229E+04
      9.517  0.2736E+03  0.2242E+04
      9.563  0.2772E+03  0.2255E+04
      9.610  0.2762E+03  0.2267E+04
      9.656  0.2709E+03  0.2280E+04
      9.703  0.2610E+03  0.2292E+04
      9.750  0.2438E+03  0.2304E+04
      9.796  0.2242E+03  0.2314E+04
      9.843  0.2195E+03  0.2324E+04
      9.889  0.2366E+03  0.2335E+04
      9.936  0.2642E+03  0.2348E+04
      9.983  0.2953E+03  0.2361E+04
     10.029  0.3275E+03  0.2377E+04
     10.076  0.3492E+03  0.2393E+04
     10.122  0.3463E+03  0.2409E+04
     10.169  0.3238E+03  0.2424E+04
     10.216  0.3101E+03  0.2439E+04
     10.262  0.3292E+03  0.2454E+04
     10.309  0.3873E+03  0.2472E+04
     10.355  0.4666E+03  0.2494E+04
     10.402  0.5186E+03  0.2518E+04
     10.449  0.5089E+03  0.2542E+04
     10.495  0.4501E+03  0.2563E+04
     10.542  0.3735E+03  0.2580E+04
     10.588  0.3017E+03  0.2594E+04
     10.635  0.2479E+03  0.2606E+04
     10.682  0.2121E+03  0.2616E+04
     10.728  0.1804E+03  0.2624E+04
     10.775  0.1415E+03  0.2631E+04
     10.821  0.9698E+02  0.2635E+04
     10.868  0.5626E+02  0.2638E+04
     10.915  0.2700E+02  0.2639E+04
     10.961  0.1014E+02  0.2639E+04
     11.008  0.2947E+01  0.2640E+04
     11.054  0.1683E+01  0.2640E+04
     11.101  0.2215E+01  0.2640E+04
     11.148  0.1859E+01  0.2640E+04
     11.194  0.7189E+00  0.2640E+04
     11.241 -0.1464E-01  0.2640E+04
     11.287 -0.1277E+00  0.2640E+04
     11.334 -0.5336E-01  0.2640E+04
     11.381 -0.1138E-01  0.2640E+04
     11.427 -0.4789E-02  0.2640E+04
     11.474 -0.2100E-01  0.2640E+04
     11.520 -0.6550E-01  0.2640E+04
     11.567 -0.4777E-01  0.2640E+04
     11.614  0.3268E+00  0.2640E+04
     11.660  0.1107E+01  0.2640E+04
     11.707  0.1537E+01  0.2640E+04
     11.753  0.1049E+01  0.2640E+04
     11.800  0.2819E+00  0.2640E+04
     11.847 -0.5689E-01  0.2640E+04
     11.893 -0.6203E-01  0.2640E+04
     11.940 -0.1870E-01  0.2640E+04
     11.986 -0.2966E-02  0.2640E+04
     12.033 -0.2769E-03  0.2640E+04
     12.080 -0.1586E-04  0.2640E+04
     12.126 -0.5682E-06  0.2640E+04
     12.173 -0.1288E-07  0.2640E+04
     12.219 -0.1859E-09  0.2640E+04
     12.266 -0.1716E-11  0.2640E+04
     12.313 -0.1042E-13  0.2640E+04
     12.359  0.0000E+00  0.2640E+04
     12.406  0.0000E+00  0.2640E+04
     12.452  0.0000E+00  0.2640E+04
     12.499  0.0000E+00  0.2640E+04
     12.546  0.0000E+00  0.2640E+04
     12.592  0.0000E+00  0.2640E+04
     12.639  0.0000E+00  0.2640E+04
     12.685  0.0000E+00  0.2640E+04
