       N       E                     dE             d eps       ncg     rms          rms(c)
DAV:   1     0.112830053245E+05    0.11283E+05   -0.55466E+05 95400   0.810E+02
DAV:   2    -0.143940630050E+04   -0.12722E+05   -0.12145E+05 95820   0.337E+02
DAV:   3    -0.241100361612E+04   -0.97160E+03   -0.89371E+03135120   0.780E+01
DAV:   4    -0.248228383824E+04   -0.71280E+02   -0.68851E+02132240   0.209E+01
DAV:   5    -0.248512285133E+04   -0.28390E+01   -0.27832E+01139820   0.331E+00    0.779E+01
RMM:   6    -0.241645352738E+04    0.68669E+02   -0.68064E+02105917   0.245E+01    0.623E+01
RMM:   7    -0.236997431955E+04    0.46479E+02   -0.35222E+02 97793   0.172E+01    0.455E+01
RMM:   8    -0.233988014743E+04    0.30094E+02   -0.15703E+02 97703   0.114E+01    0.321E+01
RMM:   9    -0.231567625787E+04    0.24204E+02   -0.34482E+01 98760   0.532E+00    0.634E+00
RMM:  10    -0.231552478543E+04    0.15147E+00   -0.73012E+00137052   0.149E+00    0.388E+00
RMM:  11    -0.231536427462E+04    0.16051E+00   -0.13290E+00123862   0.692E-01    0.389E+00
RMM:  12    -0.231488969843E+04    0.47458E+00   -0.61812E-01110917   0.759E-01    0.196E+00
RMM:  13    -0.231477926421E+04    0.11043E+00   -0.25335E-01112615   0.438E-01    0.132E+00
RMM:  14    -0.231477120772E+04    0.80565E-02   -0.15856E-01115245   0.305E-01    0.159E+00
RMM:  15    -0.231473080429E+04    0.40403E-01   -0.56817E-02120419   0.149E-01    0.961E-01
RMM:  16    -0.231471661508E+04    0.14189E-01   -0.22410E-02111707   0.121E-01    0.444E-01
RMM:  17    -0.231471408823E+04    0.25268E-02   -0.14257E-02121315   0.830E-02    0.202E-01
RMM:  18    -0.231471478027E+04   -0.69204E-03   -0.91491E-03129587   0.617E-02    0.212E-01
RMM:  19    -0.231471452094E+04    0.25933E-03   -0.14684E-03131042   0.215E-02    0.180E-01
RMM:  20    -0.231471410884E+04    0.41210E-03   -0.39447E-04117489   0.139E-02    0.123E-01
RMM:  21    -0.231471379084E+04    0.31799E-03   -0.64004E-04119329   0.183E-02    0.444E-02
RMM:  22    -0.231471374264E+04    0.48203E-04   -0.26113E-04134173   0.101E-02
   1 F= -.23147137E+04 E0= -.23147214E+04  d E =0.229062E-01
