 256 256   0   0
  0.1418917E+02  0.1588033E-08  0.1692661E-08  0.1693229E-08  0.5000000E-15
  1.000000000000000E-004
  CAR 
 Ir_Ru                                   
     14.26988869     -1.29202310  301      9.45704263      1.00000000
     -1.292  0.0000E+00  0.0000E+00
     -1.240  0.0000E+00  0.0000E+00
     -1.188  0.0000E+00  0.0000E+00
     -1.136 -0.2770E-30 -0.1437E-31
     -1.085 -0.1266E-26 -0.6568E-28
     -1.033 -0.3365E-23 -0.1746E-24
     -0.981 -0.5194E-20 -0.2696E-21
     -0.929 -0.4655E-17 -0.2417E-18
     -0.877 -0.2360E-14 -0.1226E-15
     -0.825 -0.7031E-12 -0.3659E-13
     -0.773 -0.1214E-09 -0.6335E-11
     -0.721 -0.1207E-07 -0.6323E-09
     -0.670 -0.6875E-06 -0.3630E-07
     -0.618 -0.2233E-04 -0.1194E-05
     -0.566 -0.4102E-03 -0.2247E-04
     -0.514 -0.4223E-02 -0.2415E-03
     -0.462 -0.2411E-01 -0.1492E-02
     -0.410 -0.7484E-01 -0.5374E-02
     -0.358 -0.1023E+00 -0.1068E-01
     -0.306  0.2013E+00 -0.2360E-03
     -0.255  0.1625E+01  0.8404E-01
     -0.203  0.4379E+01  0.3112E+00
     -0.151  0.6349E+01  0.6405E+00
     -0.099  0.6425E+01  0.9738E+00
     -0.047  0.6952E+01  0.1334E+01
      0.005  0.8841E+01  0.1793E+01
      0.057  0.1116E+02  0.2372E+01
      0.109  0.1359E+02  0.3077E+01
      0.160  0.1436E+02  0.3822E+01
      0.212  0.1173E+02  0.4430E+01
      0.264  0.1006E+02  0.4952E+01
      0.316  0.1421E+02  0.5689E+01
      0.368  0.2030E+02  0.6742E+01
      0.420  0.2253E+02  0.7911E+01
      0.472  0.2270E+02  0.9088E+01
      0.524  0.2350E+02  0.1031E+02
      0.575  0.2255E+02  0.1148E+02
      0.627  0.2048E+02  0.1254E+02
      0.679  0.2098E+02  0.1363E+02
      0.731  0.2039E+02  0.1469E+02
      0.783  0.1466E+02  0.1545E+02
      0.835  0.8916E+01  0.1591E+02
      0.887  0.7995E+01  0.1632E+02
      0.939  0.1162E+02  0.1693E+02
      0.990  0.1877E+02  0.1790E+02
      1.042  0.2769E+02  0.1934E+02
      1.094  0.3329E+02  0.2106E+02
      1.146  0.3313E+02  0.2278E+02
      1.198  0.2895E+02  0.2428E+02
      1.250  0.2294E+02  0.2547E+02
      1.302  0.1948E+02  0.2648E+02
      1.354  0.2157E+02  0.2760E+02
      1.405  0.2706E+02  0.2901E+02
      1.457  0.3035E+02  0.3058E+02
      1.509  0.2988E+02  0.3213E+02
      1.561  0.2934E+02  0.3365E+02
      1.613  0.3038E+02  0.3523E+02
      1.665  0.3110E+02  0.3684E+02
      1.717  0.3200E+02  0.3850E+02
      1.768  0.3495E+02  0.4032E+02
      1.820  0.3898E+02  0.4234E+02
      1.872  0.4531E+02  0.4469E+02
      1.924  0.5450E+02  0.4752E+02
      1.976  0.5937E+02  0.5059E+02
      2.028  0.5489E+02  0.5344E+02
      2.080  0.5037E+02  0.5605E+02
      2.132  0.6093E+02  0.5922E+02
      2.183  0.8610E+02  0.6368E+02
      2.235  0.1083E+03  0.6930E+02
      2.287  0.1195E+03  0.7550E+02
      2.339  0.1257E+03  0.8202E+02
      2.391  0.1314E+03  0.8883E+02
      2.443  0.1373E+03  0.9595E+02
      2.495  0.1466E+03  0.1036E+03
      2.547  0.1636E+03  0.1120E+03
      2.598  0.1823E+03  0.1215E+03
      2.650  0.1945E+03  0.1316E+03
      2.702  0.2062E+03  0.1423E+03
      2.754  0.2231E+03  0.1539E+03
      2.806  0.2307E+03  0.1658E+03
      2.858  0.2247E+03  0.1775E+03
      2.910  0.2273E+03  0.1893E+03
      2.962  0.2447E+03  0.2020E+03
      3.013  0.2579E+03  0.2154E+03
      3.065  0.2601E+03  0.2288E+03
      3.117  0.2603E+03  0.2423E+03
      3.169  0.2636E+03  0.2560E+03
      3.221  0.2725E+03  0.2702E+03
      3.273  0.2874E+03  0.2851E+03
      3.325  0.3065E+03  0.3010E+03
      3.377  0.3237E+03  0.3178E+03
      3.428  0.3306E+03  0.3349E+03
      3.480  0.3281E+03  0.3519E+03
      3.532  0.3217E+03  0.3686E+03
      3.584  0.3183E+03  0.3851E+03
      3.636  0.3168E+03  0.4016E+03
      3.688  0.3114E+03  0.4177E+03
      3.740  0.3054E+03  0.4336E+03
      3.792  0.3013E+03  0.4492E+03
      3.843  0.2970E+03  0.4646E+03
      3.895  0.2933E+03  0.4798E+03
      3.947  0.2888E+03  0.4948E+03
      3.999  0.2767E+03  0.5091E+03
      4.051  0.2665E+03  0.5230E+03
      4.103  0.2749E+03  0.5372E+03
      4.155  0.2934E+03  0.5525E+03
      4.207  0.3025E+03  0.5681E+03
      4.258  0.3048E+03  0.5840E+03
      4.310  0.3115E+03  0.6001E+03
      4.362  0.3183E+03  0.6166E+03
      4.414  0.3210E+03  0.6333E+03
      4.466  0.3235E+03  0.6501E+03
      4.518  0.3214E+03  0.6667E+03
      4.570  0.3102E+03  0.6828E+03
      4.622  0.2976E+03  0.6983E+03
      4.673  0.2935E+03  0.7135E+03
      4.725  0.2979E+03  0.7289E+03
      4.777  0.3055E+03  0.7448E+03
      4.829  0.3172E+03  0.7612E+03
      4.881  0.3309E+03  0.7784E+03
      4.933  0.3375E+03  0.7959E+03
      4.985  0.3446E+03  0.8138E+03
      5.036  0.3577E+03  0.8323E+03
      5.088  0.3655E+03  0.8513E+03
      5.140  0.3643E+03  0.8702E+03
      5.192  0.3556E+03  0.8886E+03
      5.244  0.3359E+03  0.9061E+03
      5.296  0.3042E+03  0.9218E+03
      5.348  0.2636E+03  0.9355E+03
      5.400  0.2203E+03  0.9469E+03
      5.451  0.1857E+03  0.9566E+03
      5.503  0.1726E+03  0.9655E+03
      5.555  0.1880E+03  0.9753E+03
      5.607  0.2254E+03  0.9870E+03
      5.659  0.2733E+03  0.1001E+04
      5.711  0.3233E+03  0.1018E+04
      5.763  0.3658E+03  0.1037E+04
      5.815  0.3941E+03  0.1057E+04
      5.866  0.4099E+03  0.1079E+04
      5.918  0.4189E+03  0.1100E+04
      5.970  0.4253E+03  0.1122E+04
      6.022  0.4281E+03  0.1145E+04
      6.074  0.4173E+03  0.1166E+04
      6.126  0.3932E+03  0.1187E+04
      6.178  0.3727E+03  0.1206E+04
      6.230  0.3618E+03  0.1225E+04
      6.281  0.3558E+03  0.1243E+04
      6.333  0.3561E+03  0.1262E+04
      6.385  0.3682E+03  0.1281E+04
      6.437  0.3815E+03  0.1301E+04
      6.489  0.3841E+03  0.1320E+04
      6.541  0.3907E+03  0.1341E+04
      6.593  0.4087E+03  0.1362E+04
      6.645  0.4235E+03  0.1384E+04
      6.696  0.4282E+03  0.1406E+04
      6.748  0.4256E+03  0.1428E+04
      6.800  0.4141E+03  0.1450E+04
      6.852  0.3933E+03  0.1470E+04
      6.904  0.3742E+03  0.1490E+04
      6.956  0.3668E+03  0.1509E+04
      7.008  0.3638E+03  0.1527E+04
      7.060  0.3672E+03  0.1546E+04
      7.111  0.3894E+03  0.1567E+04
      7.163  0.4138E+03  0.1588E+04
      7.215  0.4222E+03  0.1610E+04
      7.267  0.4225E+03  0.1632E+04
      7.319  0.4144E+03  0.1653E+04
      7.371  0.3899E+03  0.1674E+04
      7.423  0.3605E+03  0.1692E+04
      7.475  0.3410E+03  0.1710E+04
      7.526  0.3329E+03  0.1727E+04
      7.578  0.3292E+03  0.1744E+04
      7.630  0.3183E+03  0.1761E+04
      7.682  0.2972E+03  0.1776E+04
      7.734  0.2784E+03  0.1791E+04
      7.786  0.2691E+03  0.1805E+04
      7.838  0.2639E+03  0.1818E+04
      7.890  0.2580E+03  0.1832E+04
      7.941  0.2490E+03  0.1845E+04
      7.993  0.2430E+03  0.1857E+04
      8.045  0.2433E+03  0.1870E+04
      8.097  0.2398E+03  0.1882E+04
      8.149  0.2318E+03  0.1894E+04
      8.201  0.2288E+03  0.1906E+04
      8.253  0.2329E+03  0.1918E+04
      8.304  0.2375E+03  0.1931E+04
      8.356  0.2391E+03  0.1943E+04
      8.408  0.2373E+03  0.1955E+04
      8.460  0.2295E+03  0.1967E+04
      8.512  0.2191E+03  0.1979E+04
      8.564  0.2124E+03  0.1990E+04
      8.616  0.2076E+03  0.2000E+04
      8.668  0.2004E+03  0.2011E+04
      8.719  0.1920E+03  0.2021E+04
      8.771  0.1837E+03  0.2030E+04
      8.823  0.1795E+03  0.2040E+04
      8.875  0.1870E+03  0.2049E+04
      8.927  0.2109E+03  0.2060E+04
      8.979  0.2343E+03  0.2072E+04
      9.031  0.2370E+03  0.2085E+04
      9.083  0.2247E+03  0.2096E+04
      9.134  0.2079E+03  0.2107E+04
      9.186  0.1884E+03  0.2117E+04
      9.238  0.1786E+03  0.2126E+04
      9.290  0.1951E+03  0.2136E+04
      9.342  0.2263E+03  0.2148E+04
      9.394  0.2426E+03  0.2161E+04
      9.446  0.2429E+03  0.2173E+04
      9.498  0.2446E+03  0.2186E+04
      9.549  0.2446E+03  0.2199E+04
      9.601  0.2454E+03  0.2211E+04
      9.653  0.2711E+03  0.2225E+04
      9.705  0.3145E+03  0.2242E+04
      9.757  0.3355E+03  0.2259E+04
      9.809  0.3274E+03  0.2276E+04
      9.861  0.3170E+03  0.2293E+04
      9.913  0.3151E+03  0.2309E+04
      9.964  0.3208E+03  0.2326E+04
     10.016  0.3406E+03  0.2343E+04
     10.068  0.3767E+03  0.2363E+04
     10.120  0.4109E+03  0.2384E+04
     10.172  0.4276E+03  0.2406E+04
     10.224  0.4354E+03  0.2429E+04
     10.276  0.4474E+03  0.2452E+04
     10.328  0.4657E+03  0.2476E+04
     10.379  0.4850E+03  0.2501E+04
     10.431  0.4971E+03  0.2527E+04
     10.483  0.4916E+03  0.2553E+04
     10.535  0.4566E+03  0.2576E+04
     10.587  0.3971E+03  0.2597E+04
     10.639  0.3289E+03  0.2614E+04
     10.691  0.2472E+03  0.2627E+04
     10.743  0.1470E+03  0.2634E+04
     10.794  0.5547E+02  0.2637E+04
     10.846  0.5390E+01  0.2638E+04
     10.898 -0.5689E+01  0.2637E+04
     10.950 -0.2974E+01  0.2637E+04
     11.002 -0.6939E+00  0.2637E+04
     11.054 -0.9602E-01  0.2637E+04
     11.106 -0.8895E-02  0.2637E+04
     11.158 -0.5769E-03  0.2637E+04
     11.209 -0.2524E-04  0.2637E+04
     11.261 -0.6973E-06  0.2637E+04
     11.313 -0.1159E-07  0.2637E+04
     11.365 -0.1132E-09  0.2637E+04
     11.417 -0.1250E-11  0.2637E+04
     11.469 -0.1276E-09  0.2637E+04
     11.521 -0.1548E-07  0.2637E+04
     11.572 -0.1078E-05  0.2637E+04
     11.624 -0.4275E-04  0.2637E+04
     11.676 -0.9521E-03  0.2637E+04
     11.728 -0.1158E-01  0.2637E+04
     11.780 -0.7180E-01  0.2637E+04
     11.832 -0.1770E+00  0.2637E+04
     11.884  0.1789E+00  0.2637E+04
     11.936  0.1786E+01  0.2637E+04
     11.987  0.3437E+01  0.2637E+04
     12.039  0.2890E+01  0.2638E+04
     12.091  0.1329E+01  0.2638E+04
     12.143  0.7056E+00  0.2638E+04
     12.195  0.7201E+00  0.2638E+04
     12.247  0.1221E+01  0.2638E+04
     12.299  0.1952E+01  0.2638E+04
     12.351  0.2459E+01  0.2638E+04
     12.402  0.2867E+01  0.2638E+04
     12.454  0.2830E+01  0.2638E+04
     12.506  0.2137E+01  0.2638E+04
     12.558  0.1900E+01  0.2638E+04
     12.610  0.2614E+01  0.2639E+04
     12.662  0.3562E+01  0.2639E+04
     12.714  0.4277E+01  0.2639E+04
     12.766  0.3684E+01  0.2639E+04
     12.817  0.2295E+01  0.2639E+04
     12.869  0.2006E+01  0.2639E+04
     12.921  0.2182E+01  0.2640E+04
     12.973  0.1734E+01  0.2640E+04
     13.025  0.1232E+01  0.2640E+04
     13.077  0.1090E+01  0.2640E+04
     13.129  0.1065E+01  0.2640E+04
     13.181  0.1045E+01  0.2640E+04
     13.232  0.1032E+01  0.2640E+04
     13.284  0.9908E+00  0.2640E+04
     13.336  0.6492E+00  0.2640E+04
     13.388  0.1632E+00  0.2640E+04
     13.440 -0.4090E-01  0.2640E+04
     13.492 -0.3228E-01  0.2640E+04
     13.544 -0.7149E-02  0.2640E+04
     13.596 -0.7598E-03  0.2640E+04
     13.647 -0.4302E-04  0.2640E+04
     13.699 -0.1350E-05  0.2640E+04
     13.751 -0.2391E-07  0.2640E+04
     13.803 -0.2416E-09  0.2640E+04
     13.855 -0.1403E-11  0.2640E+04
     13.907 -0.4756E-14  0.2640E+04
     13.959  0.0000E+00  0.2640E+04
     14.011  0.0000E+00  0.2640E+04
     14.062  0.0000E+00  0.2640E+04
     14.114  0.0000E+00  0.2640E+04
     14.166  0.0000E+00  0.2640E+04
     14.218  0.0000E+00  0.2640E+04
     14.270  0.0000E+00  0.2640E+04
