 256 256   0   0
  0.1419206E+02  0.1537080E-08  0.1537218E-08  0.1537636E-08  0.5000000E-15
  1.000000000000000E-004
  CAR 
 Ir_Ru                                   
     12.68531290     -1.29503852  301      9.24210519      1.00000000
     -1.295  0.0000E+00  0.0000E+00
     -1.248  0.0000E+00  0.0000E+00
     -1.202  0.0000E+00  0.0000E+00
     -1.155  0.0000E+00  0.0000E+00
     -1.109 -0.2752E-28 -0.1283E-29
     -1.062 -0.4107E-25 -0.1915E-26
     -1.015 -0.3952E-22 -0.1844E-23
     -0.969 -0.2455E-19 -0.1146E-20
     -0.922 -0.9836E-17 -0.4595E-18
     -0.876 -0.2468E-14 -0.1155E-15
     -0.829 -0.4092E-12 -0.1919E-13
     -0.782 -0.4371E-10 -0.2056E-11
     -0.736 -0.3007E-08 -0.1422E-09
     -0.689 -0.1334E-06 -0.6360E-08
     -0.643 -0.3823E-05 -0.1845E-06
     -0.596 -0.7092E-04 -0.3490E-05
     -0.549 -0.8544E-03 -0.4330E-04
     -0.503 -0.6686E-02 -0.3549E-03
     -0.456 -0.3358E-01 -0.1920E-02
     -0.410 -0.1021E+00 -0.6677E-02
     -0.363 -0.1377E+00 -0.1309E-01
     -0.316  0.2243E+00 -0.2640E-02
     -0.270  0.1510E+01  0.6774E-01
     -0.223  0.3540E+01  0.2327E+00
     -0.177  0.5071E+01  0.4690E+00
     -0.130  0.5733E+01  0.7362E+00
     -0.083  0.7328E+01  0.1078E+01
     -0.037  0.1020E+02  0.1553E+01
      0.010  0.1102E+02  0.2067E+01
      0.056  0.9151E+01  0.2493E+01
      0.103  0.9384E+01  0.2930E+01
      0.150  0.1315E+02  0.3543E+01
      0.196  0.1591E+02  0.4285E+01
      0.243  0.1605E+02  0.5033E+01
      0.289  0.1673E+02  0.5812E+01
      0.336  0.1849E+02  0.6674E+01
      0.383  0.1834E+02  0.7529E+01
      0.429  0.1742E+02  0.8341E+01
      0.476  0.1978E+02  0.9262E+01
      0.522  0.2334E+02  0.1035E+02
      0.569  0.2404E+02  0.1147E+02
      0.616  0.2228E+02  0.1251E+02
      0.662  0.1874E+02  0.1338E+02
      0.709  0.1410E+02  0.1404E+02
      0.755  0.1116E+02  0.1456E+02
      0.802  0.1073E+02  0.1506E+02
      0.849  0.1116E+02  0.1558E+02
      0.895  0.1221E+02  0.1615E+02
      0.942  0.1470E+02  0.1683E+02
      0.988  0.1836E+02  0.1769E+02
      1.035  0.2289E+02  0.1876E+02
      1.082  0.2808E+02  0.2006E+02
      1.128  0.3124E+02  0.2152E+02
      1.175  0.2972E+02  0.2290E+02
      1.221  0.2589E+02  0.2411E+02
      1.268  0.2305E+02  0.2519E+02
      1.315  0.2093E+02  0.2616E+02
      1.361  0.1997E+02  0.2709E+02
      1.408  0.2156E+02  0.2810E+02
      1.454  0.2405E+02  0.2922E+02
      1.501  0.2570E+02  0.3041E+02
      1.548  0.2901E+02  0.3177E+02
      1.594  0.3509E+02  0.3340E+02
      1.641  0.3869E+02  0.3520E+02
      1.687  0.3784E+02  0.3697E+02
      1.734  0.3928E+02  0.3880E+02
      1.781  0.4552E+02  0.4092E+02
      1.827  0.4931E+02  0.4322E+02
      1.874  0.4779E+02  0.4544E+02
      1.920  0.4728E+02  0.4765E+02
      1.967  0.5094E+02  0.5002E+02
      2.014  0.5417E+02  0.5255E+02
      2.060  0.5548E+02  0.5513E+02
      2.107  0.6124E+02  0.5799E+02
      2.153  0.7435E+02  0.6145E+02
      2.200  0.8924E+02  0.6561E+02
      2.247  0.1031E+03  0.7041E+02
      2.293  0.1178E+03  0.7590E+02
      2.340  0.1310E+03  0.8201E+02
      2.386  0.1383E+03  0.8845E+02
      2.433  0.1433E+03  0.9513E+02
      2.480  0.1524E+03  0.1022E+03
      2.526  0.1610E+03  0.1097E+03
      2.573  0.1617E+03  0.1173E+03
      2.619  0.1613E+03  0.1248E+03
      2.666  0.1688E+03  0.1326E+03
      2.713  0.1784E+03  0.1410E+03
      2.759  0.1848E+03  0.1496E+03
      2.806  0.1979E+03  0.1588E+03
      2.852  0.2230E+03  0.1692E+03
      2.899  0.2476E+03  0.1807E+03
      2.946  0.2564E+03  0.1927E+03
      2.992  0.2499E+03  0.2043E+03
      3.039  0.2468E+03  0.2158E+03
      3.085  0.2620E+03  0.2280E+03
      3.132  0.2862E+03  0.2414E+03
      3.179  0.3010E+03  0.2554E+03
      3.225  0.3037E+03  0.2695E+03
      3.272  0.3051E+03  0.2838E+03
      3.318  0.3087E+03  0.2981E+03
      3.365  0.3113E+03  0.3127E+03
      3.412  0.3145E+03  0.3273E+03
      3.458  0.3216E+03  0.3423E+03
      3.505  0.3332E+03  0.3578E+03
      3.551  0.3440E+03  0.3739E+03
      3.598  0.3469E+03  0.3900E+03
      3.645  0.3449E+03  0.4061E+03
      3.691  0.3487E+03  0.4223E+03
      3.738  0.3576E+03  0.4390E+03
      3.784  0.3593E+03  0.4558E+03
      3.831  0.3522E+03  0.4722E+03
      3.878  0.3477E+03  0.4884E+03
      3.924  0.3495E+03  0.5047E+03
      3.971  0.3505E+03  0.5210E+03
      4.017  0.3415E+03  0.5369E+03
      4.064  0.3229E+03  0.5520E+03
      4.111  0.3068E+03  0.5663E+03
      4.157  0.2977E+03  0.5801E+03
      4.204  0.2875E+03  0.5935E+03
      4.251  0.2713E+03  0.6062E+03
      4.297  0.2537E+03  0.6180E+03
      4.344  0.2427E+03  0.6293E+03
      4.390  0.2452E+03  0.6407E+03
      4.437  0.2578E+03  0.6527E+03
      4.484  0.2619E+03  0.6649E+03
      4.530  0.2508E+03  0.6766E+03
      4.577  0.2478E+03  0.6882E+03
      4.623  0.2672E+03  0.7006E+03
      4.670  0.2919E+03  0.7142E+03
      4.717  0.3068E+03  0.7285E+03
      4.763  0.3136E+03  0.7431E+03
      4.810  0.3134E+03  0.7577E+03
      4.856  0.3048E+03  0.7719E+03
      4.903  0.2901E+03  0.7855E+03
      4.950  0.2786E+03  0.7985E+03
      4.996  0.2812E+03  0.8116E+03
      5.043  0.2951E+03  0.8253E+03
      5.089  0.3077E+03  0.8396E+03
      5.136  0.3091E+03  0.8541E+03
      5.183  0.2977E+03  0.8679E+03
      5.229  0.2857E+03  0.8812E+03
      5.276  0.2844E+03  0.8945E+03
      5.322  0.2903E+03  0.9080E+03
      5.369  0.2973E+03  0.9219E+03
      5.416  0.3018E+03  0.9359E+03
      5.462  0.2987E+03  0.9499E+03
      5.509  0.2888E+03  0.9633E+03
      5.555  0.2868E+03  0.9767E+03
      5.602  0.3027E+03  0.9908E+03
      5.649  0.3215E+03  0.1006E+04
      5.695  0.3253E+03  0.1021E+04
      5.742  0.3203E+03  0.1036E+04
      5.788  0.3200E+03  0.1051E+04
      5.835  0.3262E+03  0.1066E+04
      5.882  0.3367E+03  0.1082E+04
      5.928  0.3501E+03  0.1098E+04
      5.975  0.3654E+03  0.1115E+04
      6.021  0.3789E+03  0.1133E+04
      6.068  0.3853E+03  0.1151E+04
      6.115  0.3874E+03  0.1169E+04
      6.161  0.3917E+03  0.1187E+04
      6.208  0.3986E+03  0.1206E+04
      6.254  0.4095E+03  0.1225E+04
      6.301  0.4271E+03  0.1244E+04
      6.348  0.4464E+03  0.1265E+04
      6.394  0.4573E+03  0.1287E+04
      6.441  0.4572E+03  0.1308E+04
      6.487  0.4533E+03  0.1329E+04
      6.534  0.4501E+03  0.1350E+04
      6.581  0.4456E+03  0.1371E+04
      6.627  0.4391E+03  0.1391E+04
      6.674  0.4318E+03  0.1411E+04
      6.720  0.4248E+03  0.1431E+04
      6.767  0.4170E+03  0.1451E+04
      6.814  0.4016E+03  0.1469E+04
      6.860  0.3767E+03  0.1487E+04
      6.907  0.3543E+03  0.1503E+04
      6.953  0.3442E+03  0.1519E+04
      7.000  0.3391E+03  0.1535E+04
      7.047  0.3276E+03  0.1550E+04
      7.093  0.3149E+03  0.1565E+04
      7.140  0.3136E+03  0.1580E+04
      7.186  0.3194E+03  0.1595E+04
      7.233  0.3134E+03  0.1609E+04
      7.280  0.2875E+03  0.1623E+04
      7.326  0.2559E+03  0.1635E+04
      7.373  0.2403E+03  0.1646E+04
      7.419  0.2488E+03  0.1657E+04
      7.466  0.2712E+03  0.1670E+04
      7.513  0.2845E+03  0.1683E+04
      7.559  0.2764E+03  0.1696E+04
      7.606  0.2584E+03  0.1708E+04
      7.652  0.2483E+03  0.1720E+04
      7.699  0.2572E+03  0.1732E+04
      7.746  0.2830E+03  0.1745E+04
      7.792  0.3055E+03  0.1759E+04
      7.839  0.3119E+03  0.1774E+04
      7.885  0.3087E+03  0.1788E+04
      7.932  0.3030E+03  0.1802E+04
      7.979  0.2960E+03  0.1816E+04
      8.025  0.2910E+03  0.1830E+04
      8.072  0.2958E+03  0.1843E+04
      8.118  0.3093E+03  0.1858E+04
      8.165  0.3171E+03  0.1873E+04
      8.212  0.3177E+03  0.1887E+04
      8.258  0.3297E+03  0.1903E+04
      8.305  0.3536E+03  0.1919E+04
      8.351  0.3624E+03  0.1936E+04
      8.398  0.3399E+03  0.1952E+04
      8.445  0.3000E+03  0.1966E+04
      8.491  0.2669E+03  0.1978E+04
      8.538  0.2557E+03  0.1990E+04
      8.584  0.2709E+03  0.2003E+04
      8.631  0.2956E+03  0.2017E+04
      8.678  0.3002E+03  0.2031E+04
      8.724  0.2840E+03  0.2044E+04
      8.771  0.2675E+03  0.2056E+04
      8.817  0.2569E+03  0.2068E+04
      8.864  0.2490E+03  0.2080E+04
      8.911  0.2451E+03  0.2091E+04
      8.957  0.2453E+03  0.2103E+04
      9.004  0.2535E+03  0.2115E+04
      9.050  0.2734E+03  0.2127E+04
      9.097  0.2840E+03  0.2141E+04
      9.144  0.2660E+03  0.2153E+04
      9.190  0.2408E+03  0.2164E+04
      9.237  0.2283E+03  0.2175E+04
      9.283  0.2199E+03  0.2185E+04
      9.330  0.2138E+03  0.2195E+04
      9.377  0.2219E+03  0.2205E+04
      9.423  0.2425E+03  0.2217E+04
      9.470  0.2624E+03  0.2229E+04
      9.516  0.2736E+03  0.2242E+04
      9.563  0.2772E+03  0.2255E+04
      9.610  0.2761E+03  0.2267E+04
      9.656  0.2709E+03  0.2280E+04
      9.703  0.2610E+03  0.2292E+04
      9.749  0.2438E+03  0.2304E+04
      9.796  0.2242E+03  0.2314E+04
      9.843  0.2194E+03  0.2324E+04
      9.889  0.2365E+03  0.2335E+04
      9.936  0.2642E+03  0.2348E+04
      9.982  0.2952E+03  0.2361E+04
     10.029  0.3274E+03  0.2377E+04
     10.076  0.3492E+03  0.2393E+04
     10.122  0.3464E+03  0.2409E+04
     10.169  0.3239E+03  0.2424E+04
     10.215  0.3101E+03  0.2439E+04
     10.262  0.3291E+03  0.2454E+04
     10.309  0.3872E+03  0.2472E+04
     10.355  0.4664E+03  0.2494E+04
     10.402  0.5186E+03  0.2518E+04
     10.448  0.5092E+03  0.2542E+04
     10.495  0.4505E+03  0.2563E+04
     10.542  0.3740E+03  0.2580E+04
     10.588  0.3021E+03  0.2594E+04
     10.635  0.2482E+03  0.2606E+04
     10.681  0.2124E+03  0.2616E+04
     10.728  0.1809E+03  0.2624E+04
     10.775  0.1419E+03  0.2631E+04
     10.821  0.9701E+02  0.2635E+04
     10.868  0.5618E+02  0.2638E+04
     10.914  0.2710E+02  0.2639E+04
     10.961  0.1040E+02  0.2639E+04
     11.008  0.3098E+01  0.2640E+04
     11.054  0.1512E+01  0.2640E+04
     11.101  0.1839E+01  0.2640E+04
     11.147  0.1605E+01  0.2640E+04
     11.194  0.6678E+00  0.2640E+04
     11.241  0.5908E-02  0.2640E+04
     11.287 -0.1140E+00  0.2640E+04
     11.334 -0.5011E-01  0.2640E+04
     11.380 -0.1086E-01  0.2640E+04
     11.427 -0.3458E-02  0.2640E+04
     11.474 -0.1335E-01  0.2640E+04
     11.520 -0.4268E-01  0.2640E+04
     11.567 -0.3488E-01  0.2640E+04
     11.613  0.2041E+00  0.2640E+04
     11.660  0.7213E+00  0.2640E+04
     11.707  0.1026E+01  0.2640E+04
     11.753  0.7169E+00  0.2640E+04
     11.800  0.2007E+00  0.2640E+04
     11.846 -0.3557E-01  0.2640E+04
     11.893 -0.4241E-01  0.2640E+04
     11.940 -0.1308E-01  0.2640E+04
     11.986 -0.2110E-02  0.2640E+04
     12.033 -0.1998E-03  0.2640E+04
     12.079 -0.1159E-04  0.2640E+04
     12.126 -0.4206E-06  0.2640E+04
     12.173 -0.9646E-08  0.2640E+04
     12.219 -0.1408E-09  0.2640E+04
     12.266 -0.1315E-11  0.2640E+04
     12.313 -0.7743E-14  0.2640E+04
     12.359  0.0000E+00  0.2640E+04
     12.406  0.0000E+00  0.2640E+04
     12.452  0.0000E+00  0.2640E+04
     12.499  0.0000E+00  0.2640E+04
     12.546  0.0000E+00  0.2640E+04
     12.592  0.0000E+00  0.2640E+04
     12.639  0.0000E+00  0.2640E+04
     12.685  0.0000E+00  0.2640E+04
