 256 256   0   0
  0.1418917E+02  0.1588033E-08  0.1692661E-08  0.1693229E-08  0.5000000E-15
  1.000000000000000E-004
  CAR 
 Ir_Ru                                   
     14.28675612     -1.29208131  301      9.45706096      1.00000000
     -1.292  0.0000E+00  0.0000E+00
     -1.240  0.0000E+00  0.0000E+00
     -1.188  0.0000E+00  0.0000E+00
     -1.136 -0.2846E-30 -0.1478E-31
     -1.084 -0.1310E-26 -0.6805E-28
     -1.032 -0.3503E-23 -0.1820E-24
     -0.981 -0.5434E-20 -0.2823E-21
     -0.929 -0.4887E-17 -0.2540E-18
     -0.877 -0.2486E-14 -0.1294E-15
     -0.825 -0.7406E-12 -0.3859E-13
     -0.773 -0.1279E-09 -0.6680E-11
     -0.721 -0.1269E-07 -0.6659E-09
     -0.669 -0.7214E-06 -0.3813E-07
     -0.617 -0.2333E-04 -0.1250E-05
     -0.565 -0.4265E-03 -0.2340E-04
     -0.513 -0.4362E-02 -0.2499E-03
     -0.461 -0.2471E-01 -0.1533E-02
     -0.409 -0.7593E-01 -0.5476E-02
     -0.357 -0.1013E+00 -0.1074E-01
     -0.305  0.2158E+00  0.4708E-03
     -0.253  0.1673E+01  0.8734E-01
     -0.202  0.4443E+01  0.3181E+00
     -0.150  0.6367E+01  0.6487E+00
     -0.098  0.6421E+01  0.9822E+00
     -0.046  0.6988E+01  0.1345E+01
      0.006  0.8902E+01  0.1807E+01
      0.058  0.1123E+02  0.2391E+01
      0.110  0.1366E+02  0.3100E+01
      0.162  0.1432E+02  0.3843E+01
      0.214  0.1162E+02  0.4447E+01
      0.266  0.1010E+02  0.4972E+01
      0.318  0.1444E+02  0.5722E+01
      0.370  0.2047E+02  0.6785E+01
      0.422  0.2253E+02  0.7955E+01
      0.474  0.2271E+02  0.9134E+01
      0.525  0.2351E+02  0.1036E+02
      0.577  0.2248E+02  0.1152E+02
      0.629  0.2044E+02  0.1258E+02
      0.681  0.2104E+02  0.1368E+02
      0.733  0.2024E+02  0.1473E+02
      0.785  0.1435E+02  0.1547E+02
      0.837  0.8729E+01  0.1593E+02
      0.889  0.8042E+01  0.1634E+02
      0.941  0.1186E+02  0.1696E+02
      0.993  0.1916E+02  0.1795E+02
      1.045  0.2808E+02  0.1941E+02
      1.097  0.3346E+02  0.2115E+02
      1.149  0.3305E+02  0.2287E+02
      1.201  0.2865E+02  0.2435E+02
      1.252  0.2261E+02  0.2553E+02
      1.304  0.1943E+02  0.2654E+02
      1.356  0.2186E+02  0.2767E+02
      1.408  0.2737E+02  0.2909E+02
      1.460  0.3037E+02  0.3067E+02
      1.512  0.2977E+02  0.3222E+02
      1.564  0.2935E+02  0.3374E+02
      1.616  0.3045E+02  0.3532E+02
      1.668  0.3112E+02  0.3694E+02
      1.720  0.3209E+02  0.3860E+02
      1.772  0.3513E+02  0.4043E+02
      1.824  0.3927E+02  0.4247E+02
      1.876  0.4582E+02  0.4485E+02
      1.928  0.5497E+02  0.4770E+02
      1.979  0.5931E+02  0.5078E+02
      2.031  0.5451E+02  0.5361E+02
      2.083  0.5076E+02  0.5625E+02
      2.135  0.6272E+02  0.5951E+02
      2.187  0.8813E+02  0.6408E+02
      2.239  0.1093E+03  0.6976E+02
      2.291  0.1199E+03  0.7598E+02
      2.343  0.1259E+03  0.8252E+02
      2.395  0.1317E+03  0.8936E+02
      2.447  0.1377E+03  0.9651E+02
      2.499  0.1478E+03  0.1042E+03
      2.551  0.1653E+03  0.1128E+03
      2.603  0.1837E+03  0.1223E+03
      2.655  0.1955E+03  0.1325E+03
      2.706  0.2077E+03  0.1432E+03
      2.758  0.2246E+03  0.1549E+03
      2.810  0.2306E+03  0.1669E+03
      2.862  0.2242E+03  0.1785E+03
      2.914  0.2283E+03  0.1904E+03
      2.966  0.2462E+03  0.2032E+03
      3.018  0.2583E+03  0.2166E+03
      3.070  0.2598E+03  0.2301E+03
      3.122  0.2602E+03  0.2436E+03
      3.174  0.2639E+03  0.2573E+03
      3.226  0.2734E+03  0.2715E+03
      3.278  0.2891E+03  0.2865E+03
      3.330  0.3087E+03  0.3025E+03
      3.382  0.3252E+03  0.3194E+03
      3.433  0.3308E+03  0.3366E+03
      3.485  0.3274E+03  0.3536E+03
      3.537  0.3210E+03  0.3703E+03
      3.589  0.3181E+03  0.3868E+03
      3.641  0.3163E+03  0.4032E+03
      3.693  0.3106E+03  0.4193E+03
      3.745  0.3049E+03  0.4352E+03
      3.797  0.3009E+03  0.4508E+03
      3.849  0.2965E+03  0.4662E+03
      3.901  0.2931E+03  0.4814E+03
      3.953  0.2880E+03  0.4964E+03
      4.005  0.2752E+03  0.5106E+03
      4.057  0.2665E+03  0.5245E+03
      4.109  0.2769E+03  0.5389E+03
      4.161  0.2951E+03  0.5542E+03
      4.212  0.3030E+03  0.5699E+03
      4.264  0.3056E+03  0.5858E+03
      4.316  0.3128E+03  0.6020E+03
      4.368  0.3189E+03  0.6186E+03
      4.420  0.3213E+03  0.6353E+03
      4.472  0.3237E+03  0.6521E+03
      4.524  0.3206E+03  0.6687E+03
      4.576  0.3087E+03  0.6848E+03
      4.628  0.2966E+03  0.7002E+03
      4.680  0.2936E+03  0.7154E+03
      4.732  0.2986E+03  0.7309E+03
      4.784  0.3065E+03  0.7468E+03
      4.836  0.3190E+03  0.7634E+03
      4.888  0.3322E+03  0.7807E+03
      4.939  0.3379E+03  0.7982E+03
      4.991  0.3459E+03  0.8162E+03
      5.043  0.3591E+03  0.8348E+03
      5.095  0.3657E+03  0.8538E+03
      5.147  0.3637E+03  0.8727E+03
      5.199  0.3537E+03  0.8911E+03
      5.251  0.3321E+03  0.9083E+03
      5.303  0.2990E+03  0.9238E+03
      5.355  0.2576E+03  0.9372E+03
      5.407  0.2148E+03  0.9484E+03
      5.459  0.1825E+03  0.9578E+03
      5.511  0.1731E+03  0.9668E+03
      5.563  0.1921E+03  0.9768E+03
      5.615  0.2317E+03  0.9888E+03
      5.666  0.2806E+03  0.1003E+04
      5.718  0.3303E+03  0.1021E+04
      5.770  0.3711E+03  0.1040E+04
      5.822  0.3972E+03  0.1060E+04
      5.874  0.4113E+03  0.1082E+04
      5.926  0.4196E+03  0.1104E+04
      5.978  0.4261E+03  0.1126E+04
      6.030  0.4277E+03  0.1148E+04
      6.082  0.4141E+03  0.1169E+04
      6.134  0.3895E+03  0.1190E+04
      6.186  0.3705E+03  0.1209E+04
      6.238  0.3606E+03  0.1228E+04
      6.290  0.3552E+03  0.1246E+04
      6.342  0.3574E+03  0.1265E+04
      6.393  0.3710E+03  0.1284E+04
      6.445  0.3827E+03  0.1304E+04
      6.497  0.3844E+03  0.1324E+04
      6.549  0.3930E+03  0.1344E+04
      6.601  0.4115E+03  0.1366E+04
      6.653  0.4247E+03  0.1388E+04
      6.705  0.4282E+03  0.1410E+04
      6.757  0.4245E+03  0.1432E+04
      6.809  0.4112E+03  0.1453E+04
      6.861  0.3896E+03  0.1473E+04
      6.913  0.3722E+03  0.1493E+04
      6.965  0.3663E+03  0.1512E+04
      7.017  0.3635E+03  0.1531E+04
      7.069  0.3697E+03  0.1550E+04
      7.120  0.3944E+03  0.1570E+04
      7.172  0.4164E+03  0.1592E+04
      7.224  0.4223E+03  0.1614E+04
      7.276  0.4220E+03  0.1636E+04
      7.328  0.4114E+03  0.1657E+04
      7.380  0.3846E+03  0.1677E+04
      7.432  0.3561E+03  0.1696E+04
      7.484  0.3388E+03  0.1713E+04
      7.536  0.3321E+03  0.1730E+04
      7.588  0.3279E+03  0.1748E+04
      7.640  0.3149E+03  0.1764E+04
      7.692  0.2931E+03  0.1779E+04
      7.744  0.2759E+03  0.1793E+04
      7.796  0.2679E+03  0.1807E+04
      7.848  0.2631E+03  0.1821E+04
      7.899  0.2566E+03  0.1834E+04
      7.951  0.2473E+03  0.1847E+04
      8.003  0.2427E+03  0.1860E+04
      8.055  0.2431E+03  0.1872E+04
      8.107  0.2383E+03  0.1885E+04
      8.159  0.2306E+03  0.1897E+04
      8.211  0.2292E+03  0.1909E+04
      8.263  0.2341E+03  0.1921E+04
      8.315  0.2381E+03  0.1933E+04
      8.367  0.2391E+03  0.1946E+04
      8.419  0.2363E+03  0.1958E+04
      8.471  0.2275E+03  0.1970E+04
      8.523  0.2174E+03  0.1981E+04
      8.575  0.2115E+03  0.1992E+04
      8.626  0.2062E+03  0.2003E+04
      8.678  0.1987E+03  0.2013E+04
      8.730  0.1902E+03  0.2023E+04
      8.782  0.1822E+03  0.2032E+04
      8.834  0.1797E+03  0.2042E+04
      8.886  0.1908E+03  0.2052E+04
      8.938  0.2169E+03  0.2063E+04
      8.990  0.2369E+03  0.2075E+04
      9.042  0.2350E+03  0.2087E+04
      9.094  0.2213E+03  0.2099E+04
      9.146  0.2038E+03  0.2109E+04
      9.198  0.1848E+03  0.2119E+04
      9.250  0.1799E+03  0.2128E+04
      9.302  0.2018E+03  0.2139E+04
      9.353  0.2318E+03  0.2151E+04
      9.405  0.2433E+03  0.2163E+04
      9.457  0.2429E+03  0.2176E+04
      9.509  0.2453E+03  0.2189E+04
      9.561  0.2441E+03  0.2201E+04
      9.613  0.2485E+03  0.2214E+04
      9.665  0.2809E+03  0.2229E+04
      9.717  0.3225E+03  0.2246E+04
      9.769  0.3353E+03  0.2263E+04
      9.821  0.3244E+03  0.2280E+04
      9.873  0.3159E+03  0.2296E+04
      9.925  0.3157E+03  0.2313E+04
      9.977  0.3238E+03  0.2330E+04
     10.029  0.3481E+03  0.2348E+04
     10.080  0.3859E+03  0.2368E+04
     10.132  0.4164E+03  0.2389E+04
     10.184  0.4297E+03  0.2412E+04
     10.236  0.4377E+03  0.2434E+04
     10.288  0.4514E+03  0.2458E+04
     10.340  0.4706E+03  0.2482E+04
     10.392  0.4888E+03  0.2508E+04
     10.444  0.4978E+03  0.2533E+04
     10.496  0.4861E+03  0.2559E+04
     10.548  0.4437E+03  0.2582E+04
     10.600  0.3809E+03  0.2602E+04
     10.652  0.3104E+03  0.2618E+04
     10.704  0.2236E+03  0.2629E+04
     10.756  0.1223E+03  0.2636E+04
     10.807  0.3888E+02  0.2638E+04
     10.859 -0.2599E-02  0.2638E+04
     10.911 -0.5473E+01  0.2637E+04
     10.963 -0.2217E+01  0.2637E+04
     11.015 -0.4420E+00  0.2637E+04
     11.067 -0.5297E-01  0.2637E+04
     11.119 -0.4192E-02  0.2637E+04
     11.171 -0.2264E-03  0.2637E+04
     11.223 -0.8097E-05  0.2637E+04
     11.275 -0.1817E-06  0.2637E+04
     11.327 -0.2455E-08  0.2637E+04
     11.379 -0.1953E-10  0.2637E+04
     11.431 -0.4634E-12  0.2637E+04
     11.483 -0.7431E-10  0.2637E+04
     11.534 -0.8501E-08  0.2637E+04
     11.586 -0.5575E-06  0.2637E+04
     11.638 -0.2082E-04  0.2637E+04
     11.690 -0.4380E-03  0.2637E+04
     11.742 -0.5069E-02  0.2637E+04
     11.794 -0.3055E-01  0.2637E+04
     11.846 -0.7861E-01  0.2637E+04
     11.898  0.3714E-01  0.2637E+04
     11.950  0.6867E+00  0.2637E+04
     12.002  0.1681E+01  0.2637E+04
     12.054  0.2076E+01  0.2637E+04
     12.106  0.1422E+01  0.2638E+04
     12.158  0.5298E+00  0.2638E+04
     12.210  0.7462E+00  0.2638E+04
     12.262  0.2087E+01  0.2638E+04
     12.313  0.3078E+01  0.2638E+04
     12.365  0.3125E+01  0.2638E+04
     12.417  0.2716E+01  0.2638E+04
     12.469  0.2219E+01  0.2638E+04
     12.521  0.1982E+01  0.2638E+04
     12.573  0.2342E+01  0.2639E+04
     12.625  0.3056E+01  0.2639E+04
     12.677  0.3812E+01  0.2639E+04
     12.729  0.4140E+01  0.2639E+04
     12.781  0.3210E+01  0.2639E+04
     12.833  0.2150E+01  0.2639E+04
     12.885  0.2224E+01  0.2639E+04
     12.937  0.2244E+01  0.2640E+04
     12.989  0.1523E+01  0.2640E+04
     13.040  0.9703E+00  0.2640E+04
     13.092  0.7860E+00  0.2640E+04
     13.144  0.6342E+00  0.2640E+04
     13.196  0.8441E+00  0.2640E+04
     13.248  0.1258E+01  0.2640E+04
     13.300  0.1248E+01  0.2640E+04
     13.352  0.7172E+00  0.2640E+04
     13.404  0.1547E+00  0.2640E+04
     13.456 -0.4879E-01  0.2640E+04
     13.508 -0.3435E-01  0.2640E+04
     13.560 -0.7486E-02  0.2640E+04
     13.612 -0.7943E-03  0.2640E+04
     13.664 -0.4506E-04  0.2640E+04
     13.716 -0.1417E-05  0.2640E+04
     13.767 -0.2516E-07  0.2640E+04
     13.819 -0.2546E-09  0.2640E+04
     13.871 -0.1477E-11  0.2640E+04
     13.923 -0.5226E-14  0.2640E+04
     13.975  0.0000E+00  0.2640E+04
     14.027  0.0000E+00  0.2640E+04
     14.079  0.0000E+00  0.2640E+04
     14.131  0.0000E+00  0.2640E+04
     14.183  0.0000E+00  0.2640E+04
     14.235  0.0000E+00  0.2640E+04
     14.287  0.0000E+00  0.2640E+04
