  96  96   0   0
  0.1459365E+02  0.1098685E-08  0.1098895E-08  0.1339819E-08  0.5000000E-15
  1.000000000000000E-004
  CAR 
 Ir_Ru                                   
     16.01030305     -1.84884041  301      9.98823551      1.00000000
     -1.849  0.0000E+00  0.0000E+00
     -1.789  0.0000E+00  0.0000E+00
     -1.730  0.0000E+00  0.0000E+00
     -1.670 -0.3880E-29 -0.2310E-30
     -1.611 -0.4462E-25 -0.2657E-26
     -1.551 -0.2511E-21 -0.1495E-22
     -1.492 -0.6902E-18 -0.4111E-19
     -1.432 -0.9074E-15 -0.5406E-16
     -1.373 -0.5834E-12 -0.3478E-13
     -1.313 -0.1833E-09 -0.1095E-10
     -1.254 -0.2776E-07 -0.1664E-08
     -1.194 -0.2010E-05 -0.1213E-06
     -1.134 -0.6878E-04 -0.4216E-05
     -1.075 -0.1097E-02 -0.6950E-04
     -1.015 -0.8026E-02 -0.5473E-03
     -0.956 -0.2617E-01 -0.2105E-02
     -0.896 -0.1874E-01 -0.3221E-02
     -0.837  0.2054E+00  0.9005E-02
     -0.777  0.9822E+00  0.6747E-01
     -0.718  0.2073E+01  0.1909E+00
     -0.658  0.2362E+01  0.3315E+00
     -0.599  0.1703E+01  0.4328E+00
     -0.539  0.2287E+01  0.5690E+00
     -0.480  0.4694E+01  0.8485E+00
     -0.420  0.5541E+01  0.1178E+01
     -0.361  0.3326E+01  0.1376E+01
     -0.301  0.1625E+01  0.1473E+01
     -0.242  0.2951E+01  0.1649E+01
     -0.182  0.6094E+01  0.2012E+01
     -0.122  0.7986E+01  0.2487E+01
     -0.063  0.5860E+01  0.2836E+01
     -0.003  0.3384E+01  0.3037E+01
      0.056  0.5601E+01  0.3371E+01
      0.116  0.7539E+01  0.3819E+01
      0.175  0.5173E+01  0.4127E+01
      0.235  0.4039E+01  0.4368E+01
      0.294  0.6142E+01  0.4734E+01
      0.354  0.8995E+01  0.5269E+01
      0.413  0.9868E+01  0.5856E+01
      0.473  0.7475E+01  0.6301E+01
      0.532  0.7663E+01  0.6758E+01
      0.592  0.1118E+02  0.7423E+01
      0.651  0.8861E+01  0.7951E+01
      0.711  0.2343E+01  0.8090E+01
      0.771  0.2239E+01  0.8223E+01
      0.830  0.1023E+02  0.8832E+01
      0.890  0.1678E+02  0.9831E+01
      0.949  0.1440E+02  0.1069E+02
      1.009  0.1093E+02  0.1134E+02
      1.068  0.1094E+02  0.1199E+02
      1.128  0.9884E+01  0.1258E+02
      1.187  0.8338E+01  0.1307E+02
      1.247  0.7554E+01  0.1352E+02
      1.306  0.9476E+01  0.1409E+02
      1.366  0.1376E+02  0.1491E+02
      1.425  0.1754E+02  0.1595E+02
      1.485  0.1666E+02  0.1694E+02
      1.544  0.1287E+02  0.1771E+02
      1.604  0.1416E+02  0.1855E+02
      1.663  0.1674E+02  0.1955E+02
      1.723  0.1573E+02  0.2049E+02
      1.783  0.1681E+02  0.2149E+02
      1.842  0.1956E+02  0.2265E+02
      1.902  0.1965E+02  0.2382E+02
      1.961  0.1524E+02  0.2473E+02
      2.021  0.1100E+02  0.2538E+02
      2.080  0.1742E+02  0.2642E+02
      2.140  0.3378E+02  0.2843E+02
      2.199  0.4740E+02  0.3125E+02
      2.259  0.5226E+02  0.3436E+02
      2.318  0.6022E+02  0.3795E+02
      2.378  0.6679E+02  0.4192E+02
      2.437  0.6638E+02  0.4588E+02
      2.497  0.7755E+02  0.5049E+02
      2.556  0.8457E+02  0.5553E+02
      2.616  0.7314E+02  0.5988E+02
      2.675  0.7462E+02  0.6432E+02
      2.735  0.8927E+02  0.6964E+02
      2.795  0.9739E+02  0.7543E+02
      2.854  0.9826E+02  0.8128E+02
      2.914  0.8853E+02  0.8655E+02
      2.973  0.7784E+02  0.9119E+02
      3.033  0.8252E+02  0.9610E+02
      3.092  0.1095E+03  0.1026E+03
      3.152  0.1327E+03  0.1105E+03
      3.211  0.1184E+03  0.1176E+03
      3.271  0.8834E+02  0.1228E+03
      3.330  0.8085E+02  0.1276E+03
      3.390  0.1026E+03  0.1338E+03
      3.449  0.1376E+03  0.1419E+03
      3.509  0.1450E+03  0.1506E+03
      3.568  0.1205E+03  0.1578E+03
      3.628  0.1009E+03  0.1638E+03
      3.687  0.8652E+02  0.1689E+03
      3.747  0.8138E+02  0.1738E+03
      3.807  0.9427E+02  0.1794E+03
      3.866  0.9952E+02  0.1853E+03
      3.926  0.8732E+02  0.1905E+03
      3.985  0.6592E+02  0.1944E+03
      4.045  0.6352E+02  0.1982E+03
      4.104  0.9714E+02  0.2040E+03
      4.164  0.1405E+03  0.2123E+03
      4.223  0.1532E+03  0.2215E+03
      4.283  0.1341E+03  0.2294E+03
      4.342  0.1163E+03  0.2364E+03
      4.402  0.1049E+03  0.2426E+03
      4.461  0.9826E+02  0.2485E+03
      4.521  0.1029E+03  0.2546E+03
      4.580  0.1049E+03  0.2608E+03
      4.640  0.1021E+03  0.2669E+03
      4.700  0.1043E+03  0.2731E+03
      4.759  0.1047E+03  0.2794E+03
      4.819  0.1111E+03  0.2860E+03
      4.878  0.1253E+03  0.2934E+03
      4.938  0.1364E+03  0.3015E+03
      4.997  0.1429E+03  0.3101E+03
      5.057  0.1557E+03  0.3193E+03
      5.116  0.1519E+03  0.3284E+03
      5.176  0.1260E+03  0.3359E+03
      5.235  0.1065E+03  0.3422E+03
      5.295  0.1036E+03  0.3484E+03
      5.354  0.9271E+02  0.3539E+03
      5.414  0.7005E+02  0.3581E+03
      5.473  0.5432E+02  0.3613E+03
      5.533  0.4973E+02  0.3643E+03
      5.592  0.5927E+02  0.3678E+03
      5.652  0.8149E+02  0.3726E+03
      5.712  0.1036E+03  0.3788E+03
      5.771  0.1292E+03  0.3865E+03
      5.831  0.1644E+03  0.3963E+03
      5.890  0.1752E+03  0.4067E+03
      5.950  0.1694E+03  0.4168E+03
      6.009  0.1743E+03  0.4272E+03
      6.069  0.1628E+03  0.4369E+03
      6.128  0.1355E+03  0.4449E+03
      6.188  0.1353E+03  0.4530E+03
      6.247  0.1614E+03  0.4626E+03
      6.307  0.1707E+03  0.4728E+03
      6.366  0.1492E+03  0.4816E+03
      6.426  0.1292E+03  0.4893E+03
      6.485  0.1301E+03  0.4971E+03
      6.545  0.1388E+03  0.5053E+03
      6.604  0.1454E+03  0.5140E+03
      6.664  0.1403E+03  0.5224E+03
      6.724  0.1437E+03  0.5309E+03
      6.783  0.1725E+03  0.5412E+03
      6.843  0.1749E+03  0.5516E+03
      6.902  0.1462E+03  0.5603E+03
      6.962  0.1397E+03  0.5686E+03
      7.021  0.1577E+03  0.5780E+03
      7.081  0.1710E+03  0.5882E+03
      7.140  0.1704E+03  0.5983E+03
      7.200  0.1615E+03  0.6079E+03
      7.259  0.1508E+03  0.6169E+03
      7.319  0.1428E+03  0.6254E+03
      7.378  0.1317E+03  0.6332E+03
      7.438  0.1184E+03  0.6403E+03
      7.497  0.1170E+03  0.6473E+03
      7.557  0.1217E+03  0.6545E+03
      7.617  0.1115E+03  0.6611E+03
      7.676  0.9357E+02  0.6667E+03
      7.736  0.8591E+02  0.6718E+03
      7.795  0.8425E+02  0.6768E+03
      7.855  0.8353E+02  0.6818E+03
      7.914  0.8937E+02  0.6871E+03
      7.974  0.1008E+03  0.6931E+03
      8.033  0.1127E+03  0.6998E+03
      8.093  0.1050E+03  0.7061E+03
      8.152  0.7340E+02  0.7105E+03
      8.212  0.5480E+02  0.7137E+03
      8.271  0.6516E+02  0.7176E+03
      8.331  0.8211E+02  0.7225E+03
      8.390  0.9270E+02  0.7280E+03
      8.450  0.9832E+02  0.7339E+03
      8.509  0.9511E+02  0.7395E+03
      8.569  0.7697E+02  0.7441E+03
      8.629  0.7092E+02  0.7483E+03
      8.688  0.7108E+02  0.7526E+03
      8.748  0.5497E+02  0.7558E+03
      8.807  0.5189E+02  0.7589E+03
      8.867  0.6493E+02  0.7628E+03
      8.926  0.7737E+02  0.7674E+03
      8.986  0.8679E+02  0.7726E+03
      9.045  0.9728E+02  0.7784E+03
      9.105  0.9848E+02  0.7842E+03
      9.164  0.8308E+02  0.7892E+03
      9.224  0.6392E+02  0.7930E+03
      9.283  0.5656E+02  0.7963E+03
      9.343  0.5504E+02  0.7996E+03
      9.402  0.5845E+02  0.8031E+03
      9.462  0.7100E+02  0.8073E+03
      9.521  0.7926E+02  0.8120E+03
      9.581  0.1025E+03  0.8181E+03
      9.641  0.1259E+03  0.8256E+03
      9.700  0.1093E+03  0.8321E+03
      9.760  0.9283E+02  0.8377E+03
      9.819  0.1178E+03  0.8447E+03
      9.879  0.1319E+03  0.8525E+03
      9.938  0.1139E+03  0.8593E+03
      9.998  0.9304E+02  0.8649E+03
     10.057  0.9797E+02  0.8707E+03
     10.117  0.1137E+03  0.8775E+03
     10.176  0.1237E+03  0.8848E+03
     10.236  0.1433E+03  0.8934E+03
     10.295  0.1609E+03  0.9029E+03
     10.355  0.1656E+03  0.9128E+03
     10.414  0.1612E+03  0.9224E+03
     10.474  0.1507E+03  0.9313E+03
     10.533  0.1665E+03  0.9413E+03
     10.593  0.2075E+03  0.9536E+03
     10.653  0.2069E+03  0.9659E+03
     10.712  0.1685E+03  0.9760E+03
     10.772  0.1498E+03  0.9849E+03
     10.831  0.1383E+03  0.9931E+03
     10.891  0.1291E+03  0.1001E+04
     10.950  0.1222E+03  0.1008E+04
     11.010  0.9123E+02  0.1013E+04
     11.069  0.5355E+02  0.1017E+04
     11.129  0.3152E+02  0.1019E+04
     11.188  0.2255E+02  0.1020E+04
     11.248  0.2124E+02  0.1021E+04
     11.307  0.1866E+02  0.1022E+04
     11.367  0.1267E+02  0.1023E+04
     11.426  0.1106E+02  0.1024E+04
     11.486  0.1133E+02  0.1024E+04
     11.546  0.1005E+02  0.1025E+04
     11.605  0.9866E+01  0.1026E+04
     11.665  0.1205E+02  0.1026E+04
     11.724  0.1423E+02  0.1027E+04
     11.784  0.1381E+02  0.1028E+04
     11.843  0.1104E+02  0.1029E+04
     11.903  0.8323E+01  0.1029E+04
     11.962  0.6065E+01  0.1029E+04
     12.022  0.4897E+01  0.1030E+04
     12.081  0.4758E+01  0.1030E+04
     12.141  0.4579E+01  0.1030E+04
     12.200  0.4912E+01  0.1031E+04
     12.260  0.5976E+01  0.1031E+04
     12.319  0.6673E+01  0.1031E+04
     12.379  0.6841E+01  0.1032E+04
     12.438  0.6733E+01  0.1032E+04
     12.498  0.6126E+01  0.1033E+04
     12.558  0.5800E+01  0.1033E+04
     12.617  0.5621E+01  0.1033E+04
     12.677  0.5002E+01  0.1033E+04
     12.736  0.4869E+01  0.1034E+04
     12.796  0.5809E+01  0.1034E+04
     12.855  0.6417E+01  0.1035E+04
     12.915  0.5424E+01  0.1035E+04
     12.974  0.4385E+01  0.1035E+04
     13.034  0.4330E+01  0.1035E+04
     13.093  0.3730E+01  0.1036E+04
     13.153  0.3029E+01  0.1036E+04
     13.212  0.3243E+01  0.1036E+04
     13.272  0.3168E+01  0.1036E+04
     13.331  0.2431E+01  0.1036E+04
     13.391  0.2855E+01  0.1036E+04
     13.450  0.4412E+01  0.1037E+04
     13.510  0.5388E+01  0.1037E+04
     13.570  0.5890E+01  0.1037E+04
     13.629  0.5361E+01  0.1038E+04
     13.689  0.3410E+01  0.1038E+04
     13.748  0.2040E+01  0.1038E+04
     13.808  0.1813E+01  0.1038E+04
     13.867  0.2196E+01  0.1038E+04
     13.927  0.2050E+01  0.1038E+04
     13.986  0.1291E+01  0.1038E+04
     14.046  0.1370E+01  0.1039E+04
     14.105  0.2311E+01  0.1039E+04
     14.165  0.2392E+01  0.1039E+04
     14.224  0.1347E+01  0.1039E+04
     14.284  0.9467E+00  0.1039E+04
     14.343  0.1683E+01  0.1039E+04
     14.403  0.2777E+01  0.1039E+04
     14.463  0.3114E+01  0.1039E+04
     14.522  0.2177E+01  0.1040E+04
     14.582  0.1239E+01  0.1040E+04
     14.641  0.8658E+00  0.1040E+04
     14.701  0.9517E+00  0.1040E+04
     14.760  0.1070E+01  0.1040E+04
     14.820  0.7571E+00  0.1040E+04
     14.879  0.5971E+00  0.1040E+04
     14.939  0.8438E+00  0.1040E+04
     14.998  0.8050E+00  0.1040E+04
     15.058  0.4180E+00  0.1040E+04
     15.117  0.8239E-01  0.1040E+04
     15.177 -0.2359E-01  0.1040E+04
     15.236 -0.1350E-01  0.1040E+04
     15.296 -0.2098E-02  0.1040E+04
     15.355 -0.1360E-03  0.1040E+04
     15.415 -0.4009E-05  0.1040E+04
     15.475 -0.5551E-07  0.1040E+04
     15.534 -0.3667E-09  0.1040E+04
     15.594 -0.1167E-11  0.1040E+04
     15.653 -0.1790E-14  0.1040E+04
     15.713  0.0000E+00  0.1040E+04
     15.772  0.0000E+00  0.1040E+04
     15.832  0.0000E+00  0.1040E+04
     15.891  0.0000E+00  0.1040E+04
     15.951  0.0000E+00  0.1040E+04
     16.010  0.0000E+00  0.1040E+04
