       N       E                     dE             d eps       ncg     rms          rms(c)
RMM:   1     0.136790338634E+05    0.13679E+05   -0.47218E+05 25080   0.725E+02
RMM:   2     0.131334480543E+04   -0.12366E+05   -0.13120E+05 25080   0.260E+02
RMM:   3    -0.104566019624E+04   -0.23590E+04   -0.22856E+04 25080   0.111E+02
RMM:   4    -0.184599493043E+04   -0.80033E+03   -0.57408E+03 25080   0.768E+01
RMM:   5    -0.212910957769E+04   -0.28311E+03   -0.24896E+03 25080   0.451E+01
RMM:   6    -0.227482515332E+04   -0.14572E+03   -0.12951E+03 25080   0.349E+01
RMM:   7    -0.235268795459E+04   -0.77863E+02   -0.73853E+02 25080   0.235E+01
RMM:   8    -0.240018462200E+04   -0.47497E+02   -0.44555E+02 25080   0.195E+01
RMM:   9    -0.247908072460E+04   -0.78896E+02   -0.77975E+02 71885   0.137E+01
RMM:  10    -0.248863535217E+04   -0.95546E+01   -0.11979E+02 79665   0.283E+00
RMM:  11    -0.249087496922E+04   -0.22396E+01   -0.17834E+01 77258   0.686E-01
RMM:  12    -0.249118197725E+04   -0.30701E+00   -0.19885E+00 79551   0.198E-01    0.782E+01
RMM:  13    -0.241362714555E+04    0.77555E+02   -0.68470E+02 57188   0.246E+01    0.583E+01
RMM:  14    -0.236778138341E+04    0.45846E+02   -0.34125E+02 51433   0.174E+01    0.416E+01
RMM:  15    -0.233562810265E+04    0.32153E+02   -0.11847E+02 53333   0.101E+01    0.255E+01
RMM:  16    -0.232133126485E+04    0.14297E+02   -0.25857E+01 56013   0.434E+00    0.443E+00
RMM:  17    -0.232152877053E+04   -0.19751E+00   -0.64740E+00 73812   0.129E+00    0.444E+00
RMM:  18    -0.232113677039E+04    0.39200E+00   -0.11712E+00 64702   0.690E-01    0.342E+00
RMM:  19    -0.232074681654E+04    0.38995E+00   -0.67168E-01 59470   0.772E-01    0.164E+00
RMM:  20    -0.232069459662E+04    0.52220E-01   -0.24327E-01 63187   0.359E-01    0.153E+00
RMM:  21    -0.232066071540E+04    0.33881E-01   -0.10966E-01 63332   0.227E-01    0.126E+00
RMM:  22    -0.232063354233E+04    0.27173E-01   -0.48600E-02 61266   0.160E-01    0.706E-01
RMM:  23    -0.232062834822E+04    0.51941E-02   -0.13866E-02 67008   0.691E-02    0.483E-01
RMM:  24    -0.232062491947E+04    0.34287E-02   -0.10208E-02 62714   0.745E-02    0.247E-01
RMM:  25    -0.232062581224E+04   -0.89276E-03   -0.12804E-02 66084   0.781E-02    0.256E-01
RMM:  26    -0.232062599288E+04   -0.18064E-03   -0.34106E-03 74528   0.299E-02    0.266E-01
RMM:  27    -0.232062506899E+04    0.92389E-03   -0.73626E-04 59894   0.211E-02    0.174E-01
RMM:  28    -0.232062450626E+04    0.56273E-03   -0.11510E-03 63442   0.249E-02    0.681E-02
RMM:  29    -0.232062443572E+04    0.70547E-04   -0.50088E-04 71950   0.135E-02
   1 F= -.23206244E+04 E0= -.23206244E+04  d E =0.185725E-04
