       N       E                     dE             d eps       ncg     rms          rms(c)
RMM:   1     0.136791067770E+05    0.13679E+05   -0.47218E+05 25080   0.725E+02
RMM:   2     0.131337532125E+04   -0.12366E+05   -0.13120E+05 25080   0.260E+02
RMM:   3    -0.104567209971E+04   -0.23590E+04   -0.22856E+04 25080   0.111E+02
RMM:   4    -0.184599291546E+04   -0.80032E+03   -0.57406E+03 25080   0.768E+01
RMM:   5    -0.212910301701E+04   -0.28311E+03   -0.24896E+03 25080   0.451E+01
RMM:   6    -0.227482315434E+04   -0.14572E+03   -0.12952E+03 25080   0.349E+01
RMM:   7    -0.235268831798E+04   -0.77865E+02   -0.73855E+02 25080   0.236E+01
RMM:   8    -0.240018709663E+04   -0.47499E+02   -0.44557E+02 25080   0.195E+01
RMM:   9    -0.247908293466E+04   -0.78896E+02   -0.77976E+02 71887   0.137E+01
RMM:  10    -0.248863580199E+04   -0.95529E+01   -0.11978E+02 79682   0.283E+00
RMM:  11    -0.249087742597E+04   -0.22416E+01   -0.17846E+01 77275   0.686E-01
RMM:  12    -0.249118415884E+04   -0.30673E+00   -0.19868E+00 79573   0.198E-01    0.782E+01
RMM:  13    -0.241361786113E+04    0.77566E+02   -0.68456E+02 57175   0.246E+01    0.583E+01
RMM:  14    -0.236780841711E+04    0.45809E+02   -0.34125E+02 51438   0.174E+01    0.416E+01
RMM:  15    -0.233562910676E+04    0.32179E+02   -0.11852E+02 53325   0.101E+01    0.255E+01
RMM:  16    -0.232133348822E+04    0.14296E+02   -0.25844E+01 56023   0.434E+00    0.444E+00
RMM:  17    -0.232153376587E+04   -0.20028E+00   -0.64936E+00 73819   0.129E+00    0.443E+00
RMM:  18    -0.232113726392E+04    0.39650E+00   -0.11763E+00 64534   0.691E-01    0.340E+00
RMM:  19    -0.232074956687E+04    0.38770E+00   -0.66903E-01 59478   0.770E-01    0.164E+00
RMM:  20    -0.232069642337E+04    0.53143E-01   -0.24300E-01 63366   0.357E-01    0.152E+00
RMM:  21    -0.232066073454E+04    0.35689E-01   -0.11028E-01 62795   0.232E-01    0.123E+00
RMM:  22    -0.232063573668E+04    0.24998E-01   -0.47473E-02 61563   0.156E-01    0.726E-01
RMM:  23    -0.232062998222E+04    0.57545E-02   -0.13599E-02 67042   0.690E-02    0.488E-01
RMM:  24    -0.232062651830E+04    0.34639E-02   -0.10405E-02 62503   0.755E-02    0.252E-01
RMM:  25    -0.232062726732E+04   -0.74902E-03   -0.12241E-02 66688   0.752E-02    0.251E-01
RMM:  26    -0.232062754476E+04   -0.27744E-03   -0.36373E-03 73151   0.327E-02    0.265E-01
RMM:  27    -0.232062669336E+04    0.85140E-03   -0.66828E-04 60265   0.196E-02    0.182E-01
RMM:  28    -0.232062613432E+04    0.55904E-03   -0.86329E-04 63484   0.215E-02    0.879E-02
RMM:  29    -0.232062598540E+04    0.14892E-03   -0.65459E-04 68791   0.172E-02    0.279E-02
RMM:  30    -0.232062596441E+04    0.20994E-04   -0.13568E-04 70743   0.692E-03
   1 F= -.23206260E+04 E0= -.23206259E+04  d E =-.454781E-04
