 256 256   0   0
  0.1418917E+02  0.1588033E-08  0.1692661E-08  0.1693229E-08  0.5000000E-15
  1.000000000000000E-004
  CAR 
 Ir_Ru                                   
     14.27977462     -1.29231852  301      9.45685782      1.00000000
     -1.292  0.0000E+00  0.0000E+00
     -1.240  0.0000E+00  0.0000E+00
     -1.189  0.0000E+00  0.0000E+00
     -1.137 -0.2816E-30 -0.1461E-31
     -1.085 -0.1292E-26 -0.6710E-28
     -1.033 -0.3447E-23 -0.1790E-24
     -0.981 -0.5337E-20 -0.2772E-21
     -0.929 -0.4793E-17 -0.2491E-18
     -0.877 -0.2435E-14 -0.1266E-15
     -0.825 -0.7255E-12 -0.3778E-13
     -0.773 -0.1253E-09 -0.6541E-11
     -0.721 -0.1244E-07 -0.6523E-09
     -0.669 -0.7077E-06 -0.3739E-07
     -0.618 -0.2293E-04 -0.1227E-05
     -0.566 -0.4199E-03 -0.2302E-04
     -0.514 -0.4307E-02 -0.2466E-03
     -0.462 -0.2447E-01 -0.1517E-02
     -0.410 -0.7551E-01 -0.5436E-02
     -0.358 -0.1017E+00 -0.1072E-01
     -0.306  0.2100E+00  0.1846E-03
     -0.254  0.1654E+01  0.8604E-01
     -0.202  0.4418E+01  0.3154E+00
     -0.150  0.6361E+01  0.6455E+00
     -0.098  0.6424E+01  0.9790E+00
     -0.047  0.6976E+01  0.1341E+01
      0.005  0.8881E+01  0.1802E+01
      0.057  0.1121E+02  0.2384E+01
      0.109  0.1363E+02  0.3091E+01
      0.161  0.1433E+02  0.3836E+01
      0.213  0.1167E+02  0.4441E+01
      0.265  0.1009E+02  0.4965E+01
      0.317  0.1436E+02  0.5710E+01
      0.369  0.2042E+02  0.6770E+01
      0.421  0.2254E+02  0.7940E+01
      0.473  0.2272E+02  0.9119E+01
      0.524  0.2352E+02  0.1034E+02
      0.576  0.2251E+02  0.1151E+02
      0.628  0.2046E+02  0.1257E+02
      0.680  0.2104E+02  0.1366E+02
      0.732  0.2031E+02  0.1472E+02
      0.784  0.1446E+02  0.1547E+02
      0.836  0.8783E+01  0.1592E+02
      0.888  0.8007E+01  0.1634E+02
      0.940  0.1173E+02  0.1695E+02
      0.992  0.1898E+02  0.1793E+02
      1.043  0.2794E+02  0.1938E+02
      1.095  0.3341E+02  0.2112E+02
      1.147  0.3309E+02  0.2284E+02
      1.199  0.2878E+02  0.2433E+02
      1.251  0.2277E+02  0.2551E+02
      1.303  0.1947E+02  0.2652E+02
      1.355  0.2175E+02  0.2765E+02
      1.407  0.2725E+02  0.2907E+02
      1.459  0.3038E+02  0.3064E+02
      1.511  0.2984E+02  0.3219E+02
      1.563  0.2932E+02  0.3371E+02
      1.614  0.3036E+02  0.3529E+02
      1.666  0.3108E+02  0.3690E+02
      1.718  0.3205E+02  0.3857E+02
      1.770  0.3504E+02  0.4038E+02
      1.822  0.3909E+02  0.4241E+02
      1.874  0.4556E+02  0.4478E+02
      1.926  0.5479E+02  0.4762E+02
      1.978  0.5939E+02  0.5071E+02
      2.030  0.5467E+02  0.5354E+02
      2.082  0.5050E+02  0.5617E+02
      2.134  0.6185E+02  0.5938E+02
      2.185  0.8720E+02  0.6390E+02
      2.237  0.1089E+03  0.6955E+02
      2.289  0.1198E+03  0.7577E+02
      2.341  0.1259E+03  0.8231E+02
      2.393  0.1316E+03  0.8914E+02
      2.445  0.1375E+03  0.9628E+02
      2.497  0.1473E+03  0.1039E+03
      2.549  0.1648E+03  0.1125E+03
      2.601  0.1832E+03  0.1220E+03
      2.653  0.1951E+03  0.1321E+03
      2.705  0.2070E+03  0.1429E+03
      2.756  0.2239E+03  0.1545E+03
      2.808  0.2307E+03  0.1665E+03
      2.860  0.2244E+03  0.1781E+03
      2.912  0.2279E+03  0.1899E+03
      2.964  0.2456E+03  0.2027E+03
      3.016  0.2581E+03  0.2161E+03
      3.068  0.2599E+03  0.2296E+03
      3.120  0.2603E+03  0.2431E+03
      3.172  0.2639E+03  0.2568E+03
      3.224  0.2731E+03  0.2710E+03
      3.275  0.2882E+03  0.2859E+03
      3.327  0.3074E+03  0.3019E+03
      3.379  0.3243E+03  0.3187E+03
      3.431  0.3306E+03  0.3359E+03
      3.483  0.3275E+03  0.3529E+03
      3.535  0.3211E+03  0.3695E+03
      3.587  0.3180E+03  0.3861E+03
      3.639  0.3163E+03  0.4025E+03
      3.691  0.3107E+03  0.4186E+03
      3.743  0.3049E+03  0.4344E+03
      3.795  0.3010E+03  0.4501E+03
      3.846  0.2967E+03  0.4655E+03
      3.898  0.2933E+03  0.4807E+03
      3.950  0.2886E+03  0.4957E+03
      4.002  0.2762E+03  0.5100E+03
      4.054  0.2666E+03  0.5238E+03
      4.106  0.2759E+03  0.5382E+03
      4.158  0.2942E+03  0.5534E+03
      4.210  0.3026E+03  0.5691E+03
      4.262  0.3051E+03  0.5850E+03
      4.314  0.3123E+03  0.6012E+03
      4.366  0.3189E+03  0.6177E+03
      4.417  0.3213E+03  0.6344E+03
      4.469  0.3235E+03  0.6512E+03
      4.521  0.3209E+03  0.6679E+03
      4.573  0.3095E+03  0.6839E+03
      4.625  0.2972E+03  0.6994E+03
      4.677  0.2936E+03  0.7146E+03
      4.729  0.2983E+03  0.7301E+03
      4.781  0.3060E+03  0.7460E+03
      4.833  0.3181E+03  0.7625E+03
      4.885  0.3316E+03  0.7797E+03
      4.937  0.3377E+03  0.7972E+03
      4.988  0.3453E+03  0.8151E+03
      5.040  0.3585E+03  0.8338E+03
      5.092  0.3657E+03  0.8527E+03
      5.144  0.3641E+03  0.8716E+03
      5.196  0.3547E+03  0.8900E+03
      5.248  0.3339E+03  0.9074E+03
      5.300  0.3014E+03  0.9230E+03
      5.352  0.2602E+03  0.9365E+03
      5.404  0.2171E+03  0.9478E+03
      5.456  0.1837E+03  0.9573E+03
      5.507  0.1729E+03  0.9663E+03
      5.559  0.1904E+03  0.9762E+03
      5.611  0.2289E+03  0.9881E+03
      5.663  0.2773E+03  0.1002E+04
      5.715  0.3272E+03  0.1019E+04
      5.767  0.3687E+03  0.1039E+04
      5.819  0.3957E+03  0.1059E+04
      5.871  0.4106E+03  0.1080E+04
      5.923  0.4194E+03  0.1102E+04
      5.975  0.4259E+03  0.1124E+04
      6.027  0.4281E+03  0.1147E+04
      6.078  0.4157E+03  0.1168E+04
      6.130  0.3911E+03  0.1188E+04
      6.182  0.3713E+03  0.1208E+04
      6.234  0.3609E+03  0.1226E+04
      6.286  0.3553E+03  0.1245E+04
      6.338  0.3567E+03  0.1263E+04
      6.390  0.3697E+03  0.1283E+04
      6.442  0.3820E+03  0.1302E+04
      6.494  0.3842E+03  0.1322E+04
      6.546  0.3921E+03  0.1343E+04
      6.598  0.4106E+03  0.1364E+04
      6.649  0.4243E+03  0.1386E+04
      6.701  0.4281E+03  0.1408E+04
      6.753  0.4249E+03  0.1430E+04
      6.805  0.4125E+03  0.1452E+04
      6.857  0.3911E+03  0.1472E+04
      6.909  0.3729E+03  0.1491E+04
      6.961  0.3666E+03  0.1510E+04
      7.013  0.3638E+03  0.1529E+04
      7.065  0.3686E+03  0.1548E+04
      7.117  0.3922E+03  0.1569E+04
      7.169  0.4153E+03  0.1590E+04
      7.220  0.4223E+03  0.1612E+04
      7.272  0.4222E+03  0.1634E+04
      7.324  0.4127E+03  0.1656E+04
      7.376  0.3868E+03  0.1676E+04
      7.428  0.3579E+03  0.1694E+04
      7.480  0.3397E+03  0.1712E+04
      7.532  0.3324E+03  0.1729E+04
      7.584  0.3284E+03  0.1746E+04
      7.636  0.3164E+03  0.1763E+04
      7.688  0.2950E+03  0.1778E+04
      7.739  0.2770E+03  0.1792E+04
      7.791  0.2684E+03  0.1806E+04
      7.843  0.2634E+03  0.1820E+04
      7.895  0.2573E+03  0.1833E+04
      7.947  0.2482E+03  0.1846E+04
      7.999  0.2428E+03  0.1859E+04
      8.051  0.2431E+03  0.1871E+04
      8.103  0.2389E+03  0.1884E+04
      8.155  0.2311E+03  0.1896E+04
      8.207  0.2291E+03  0.1908E+04
      8.259  0.2337E+03  0.1920E+04
      8.310  0.2379E+03  0.1932E+04
      8.362  0.2390E+03  0.1945E+04
      8.414  0.2366E+03  0.1957E+04
      8.466  0.2283E+03  0.1969E+04
      8.518  0.2182E+03  0.1980E+04
      8.570  0.2120E+03  0.1991E+04
      8.622  0.2069E+03  0.2002E+04
      8.674  0.1994E+03  0.2012E+04
      8.726  0.1909E+03  0.2022E+04
      8.778  0.1828E+03  0.2031E+04
      8.830  0.1795E+03  0.2041E+04
      8.881  0.1891E+03  0.2051E+04
      8.933  0.2145E+03  0.2062E+04
      8.985  0.2361E+03  0.2074E+04
      9.037  0.2360E+03  0.2086E+04
      9.089  0.2227E+03  0.2098E+04
      9.141  0.2054E+03  0.2108E+04
      9.193  0.1862E+03  0.2118E+04
      9.245  0.1792E+03  0.2127E+04
      9.297  0.1990E+03  0.2138E+04
      9.349  0.2297E+03  0.2150E+04
      9.401  0.2432E+03  0.2162E+04
      9.452  0.2428E+03  0.2175E+04
      9.504  0.2450E+03  0.2188E+04
      9.556  0.2441E+03  0.2200E+04
      9.608  0.2469E+03  0.2213E+04
      9.660  0.2767E+03  0.2227E+04
      9.712  0.3194E+03  0.2244E+04
      9.764  0.3355E+03  0.2261E+04
      9.816  0.3256E+03  0.2278E+04
      9.868  0.3164E+03  0.2295E+04
      9.920  0.3155E+03  0.2311E+04
      9.971  0.3225E+03  0.2328E+04
     10.023  0.3448E+03  0.2346E+04
     10.075  0.3819E+03  0.2366E+04
     10.127  0.4141E+03  0.2387E+04
     10.179  0.4291E+03  0.2409E+04
     10.231  0.4370E+03  0.2432E+04
     10.283  0.4496E+03  0.2455E+04
     10.335  0.4677E+03  0.2480E+04
     10.387  0.4853E+03  0.2505E+04
     10.439  0.4944E+03  0.2531E+04
     10.491  0.4848E+03  0.2556E+04
     10.542  0.4463E+03  0.2579E+04
     10.594  0.3868E+03  0.2599E+04
     10.646  0.3194E+03  0.2616E+04
     10.698  0.2365E+03  0.2628E+04
     10.750  0.1362E+03  0.2635E+04
     10.802  0.4823E+02  0.2637E+04
     10.854  0.3046E+01  0.2638E+04
     10.906 -0.5513E+01  0.2637E+04
     10.958 -0.2572E+01  0.2637E+04
     11.010 -0.5710E+00  0.2637E+04
     11.062 -0.8247E-01  0.2637E+04
     11.113 -0.9166E-02  0.2637E+04
     11.165 -0.7682E-03  0.2637E+04
     11.217 -0.4243E-04  0.2637E+04
     11.269 -0.1410E-05  0.2637E+04
     11.321 -0.2722E-07  0.2637E+04
     11.373 -0.3027E-09  0.2637E+04
     11.425 -0.2030E-11  0.2637E+04
     11.477 -0.2255E-10  0.2637E+04
     11.529 -0.3195E-08  0.2637E+04
     11.581 -0.2602E-06  0.2637E+04
     11.633 -0.1209E-04  0.2637E+04
     11.684 -0.3170E-03  0.2637E+04
     11.736 -0.4583E-02  0.2637E+04
     11.788 -0.3470E-01  0.2637E+04
     11.840 -0.1173E+00  0.2637E+04
     11.892 -0.2170E-01  0.2637E+04
     11.944  0.9026E+00  0.2637E+04
     11.996  0.2333E+01  0.2637E+04
     12.048  0.2506E+01  0.2637E+04
     12.100  0.1472E+01  0.2637E+04
     12.152  0.7995E+00  0.2638E+04
     12.203  0.9207E+00  0.2638E+04
     12.255  0.1883E+01  0.2638E+04
     12.307  0.2835E+01  0.2638E+04
     12.359  0.3054E+01  0.2638E+04
     12.411  0.3081E+01  0.2638E+04
     12.463  0.2775E+01  0.2638E+04
     12.515  0.2041E+01  0.2638E+04
     12.567  0.1897E+01  0.2638E+04
     12.619  0.2700E+01  0.2639E+04
     12.671  0.3745E+01  0.2639E+04
     12.723  0.4162E+01  0.2639E+04
     12.774  0.3338E+01  0.2639E+04
     12.826  0.2314E+01  0.2639E+04
     12.878  0.2314E+01  0.2639E+04
     12.930  0.2414E+01  0.2640E+04
     12.982  0.1810E+01  0.2640E+04
     13.034  0.1192E+01  0.2640E+04
     13.086  0.8663E+00  0.2640E+04
     13.138  0.7842E+00  0.2640E+04
     13.190  0.9256E+00  0.2640E+04
     13.242  0.1024E+01  0.2640E+04
     13.294  0.9981E+00  0.2640E+04
     13.345  0.6581E+00  0.2640E+04
     13.397  0.1689E+00  0.2640E+04
     13.449 -0.3998E-01  0.2640E+04
     13.501 -0.3259E-01  0.2640E+04
     13.553 -0.7277E-02  0.2640E+04
     13.605 -0.7774E-03  0.2640E+04
     13.657 -0.4417E-04  0.2640E+04
     13.709 -0.1389E-05  0.2640E+04
     13.761 -0.2464E-07  0.2640E+04
     13.813 -0.2493E-09  0.2640E+04
     13.865 -0.1447E-11  0.2640E+04
     13.916 -0.5228E-14  0.2640E+04
     13.968  0.0000E+00  0.2640E+04
     14.020  0.0000E+00  0.2640E+04
     14.072  0.0000E+00  0.2640E+04
     14.124  0.0000E+00  0.2640E+04
     14.176  0.0000E+00  0.2640E+04
     14.228  0.0000E+00  0.2640E+04
     14.280  0.0000E+00  0.2640E+04
