 256 256   0   0
  0.1418917E+02  0.1588033E-08  0.1692661E-08  0.1693229E-08  0.5000000E-15
  1.000000000000000E-004
  CAR 
 Ir_Ru                                   
     14.25694676     -1.29216398  301      9.45690340      1.00000000
     -1.292  0.0000E+00  0.0000E+00
     -1.240  0.0000E+00  0.0000E+00
     -1.189  0.0000E+00  0.0000E+00
     -1.137 -0.2713E-30 -0.1406E-31
     -1.085 -0.1233E-26 -0.6394E-28
     -1.033 -0.3263E-23 -0.1692E-24
     -0.981 -0.5020E-20 -0.2604E-21
     -0.929 -0.4487E-17 -0.2328E-18
     -0.878 -0.2268E-14 -0.1178E-15
     -0.826 -0.6759E-12 -0.3515E-13
     -0.774 -0.1167E-09 -0.6086E-11
     -0.722 -0.1161E-07 -0.6081E-09
     -0.670 -0.6629E-06 -0.3497E-07
     -0.618 -0.2159E-04 -0.1154E-05
     -0.567 -0.3982E-03 -0.2179E-04
     -0.515 -0.4121E-02 -0.2354E-03
     -0.463 -0.2367E-01 -0.1462E-02
     -0.411 -0.7404E-01 -0.5300E-02
     -0.359 -0.1030E+00 -0.1064E-01
     -0.307  0.1908E+00 -0.7538E-03
     -0.256  0.1589E+01  0.8163E-01
     -0.204  0.4332E+01  0.3062E+00
     -0.152  0.6334E+01  0.6345E+00
     -0.100  0.6428E+01  0.9676E+00
     -0.048  0.6929E+01  0.1327E+01
      0.004  0.8801E+01  0.1783E+01
      0.055  0.1111E+02  0.2359E+01
      0.107  0.1355E+02  0.3061E+01
      0.159  0.1438E+02  0.3806E+01
      0.211  0.1181E+02  0.4418E+01
      0.263  0.1004E+02  0.4939E+01
      0.315  0.1407E+02  0.5668E+01
      0.366  0.2021E+02  0.6716E+01
      0.418  0.2253E+02  0.7883E+01
      0.470  0.2270E+02  0.9060E+01
      0.522  0.2349E+02  0.1028E+02
      0.574  0.2263E+02  0.1145E+02
      0.626  0.2054E+02  0.1252E+02
      0.677  0.2098E+02  0.1360E+02
      0.729  0.2047E+02  0.1466E+02
      0.781  0.1483E+02  0.1543E+02
      0.833  0.8985E+01  0.1590E+02
      0.885  0.7908E+01  0.1631E+02
      0.937  0.1141E+02  0.1690E+02
      0.988  0.1843E+02  0.1785E+02
      1.040  0.2735E+02  0.1927E+02
      1.092  0.3319E+02  0.2099E+02
      1.144  0.3329E+02  0.2272E+02
      1.196  0.2922E+02  0.2423E+02
      1.248  0.2316E+02  0.2543E+02
      1.299  0.1949E+02  0.2644E+02
      1.351  0.2135E+02  0.2755E+02
      1.403  0.2679E+02  0.2894E+02
      1.455  0.3028E+02  0.3051E+02
      1.507  0.2994E+02  0.3206E+02
      1.559  0.2929E+02  0.3358E+02
      1.610  0.3025E+02  0.3514E+02
      1.662  0.3106E+02  0.3675E+02
      1.714  0.3193E+02  0.3841E+02
      1.766  0.3475E+02  0.4021E+02
      1.818  0.3868E+02  0.4222E+02
      1.869  0.4482E+02  0.4454E+02
      1.921  0.5401E+02  0.4734E+02
      1.973  0.5937E+02  0.5041E+02
      2.025  0.5536E+02  0.5328E+02
      2.077  0.5047E+02  0.5590E+02
      2.129  0.5998E+02  0.5901E+02
      2.180  0.8468E+02  0.6340E+02
      2.232  0.1074E+03  0.6896E+02
      2.284  0.1191E+03  0.7514E+02
      2.336  0.1253E+03  0.8163E+02
      2.388  0.1310E+03  0.8842E+02
      2.440  0.1369E+03  0.9552E+02
      2.491  0.1459E+03  0.1031E+03
      2.543  0.1625E+03  0.1115E+03
      2.595  0.1814E+03  0.1209E+03
      2.647  0.1941E+03  0.1310E+03
      2.699  0.2055E+03  0.1416E+03
      2.751  0.2223E+03  0.1531E+03
      2.802  0.2309E+03  0.1651E+03
      2.854  0.2251E+03  0.1768E+03
      2.906  0.2265E+03  0.1885E+03
      2.958  0.2433E+03  0.2011E+03
      3.010  0.2572E+03  0.2144E+03
      3.062  0.2599E+03  0.2279E+03
      3.113  0.2600E+03  0.2414E+03
      3.165  0.2629E+03  0.2550E+03
      3.217  0.2712E+03  0.2691E+03
      3.269  0.2858E+03  0.2839E+03
      3.321  0.3050E+03  0.2997E+03
      3.373  0.3229E+03  0.3164E+03
      3.424  0.3308E+03  0.3336E+03
      3.476  0.3286E+03  0.3506E+03
      3.528  0.3222E+03  0.3673E+03
      3.580  0.3184E+03  0.3838E+03
      3.632  0.3169E+03  0.4002E+03
      3.684  0.3116E+03  0.4164E+03
      3.735  0.3056E+03  0.4322E+03
      3.787  0.3016E+03  0.4479E+03
      3.839  0.2975E+03  0.4633E+03
      3.891  0.2937E+03  0.4785E+03
      3.943  0.2895E+03  0.4935E+03
      3.995  0.2779E+03  0.5079E+03
      4.046  0.2667E+03  0.5217E+03
      4.098  0.2734E+03  0.5359E+03
      4.150  0.2921E+03  0.5510E+03
      4.202  0.3023E+03  0.5667E+03
      4.254  0.3047E+03  0.5825E+03
      4.306  0.3110E+03  0.5986E+03
      4.357  0.3180E+03  0.6151E+03
      4.409  0.3209E+03  0.6317E+03
      4.461  0.3234E+03  0.6485E+03
      4.513  0.3220E+03  0.6652E+03
      4.565  0.3115E+03  0.6813E+03
      4.616  0.2985E+03  0.6968E+03
      4.668  0.2934E+03  0.7120E+03
      4.720  0.2973E+03  0.7274E+03
      4.772  0.3047E+03  0.7432E+03
      4.824  0.3159E+03  0.7596E+03
      4.876  0.3299E+03  0.7767E+03
      4.927  0.3371E+03  0.7942E+03
      4.979  0.3435E+03  0.8120E+03
      5.031  0.3564E+03  0.8304E+03
      5.083  0.3652E+03  0.8494E+03
      5.135  0.3648E+03  0.8683E+03
      5.187  0.3570E+03  0.8868E+03
      5.238  0.3385E+03  0.9043E+03
      5.290  0.3080E+03  0.9203E+03
      5.342  0.2681E+03  0.9342E+03
      5.394  0.2248E+03  0.9458E+03
      5.446  0.1886E+03  0.9556E+03
      5.498  0.1726E+03  0.9646E+03
      5.549  0.1848E+03  0.9741E+03
      5.601  0.2204E+03  0.9856E+03
      5.653  0.2676E+03  0.9994E+03
      5.705  0.3180E+03  0.1016E+04
      5.757  0.3620E+03  0.1035E+04
      5.809  0.3918E+03  0.1055E+04
      5.860  0.4086E+03  0.1076E+04
      5.912  0.4180E+03  0.1098E+04
      5.964  0.4246E+03  0.1120E+04
      6.016  0.4282E+03  0.1142E+04
      6.068  0.4195E+03  0.1164E+04
      6.120  0.3962E+03  0.1184E+04
      6.171  0.3745E+03  0.1204E+04
      6.223  0.3626E+03  0.1223E+04
      6.275  0.3561E+03  0.1241E+04
      6.327  0.3554E+03  0.1259E+04
      6.379  0.3663E+03  0.1278E+04
      6.431  0.3804E+03  0.1298E+04
      6.482  0.3840E+03  0.1318E+04
      6.534  0.3891E+03  0.1338E+04
      6.586  0.4063E+03  0.1359E+04
      6.638  0.4223E+03  0.1381E+04
      6.690  0.4280E+03  0.1403E+04
      6.742  0.4263E+03  0.1425E+04
      6.793  0.4163E+03  0.1447E+04
      6.845  0.3963E+03  0.1468E+04
      6.897  0.3761E+03  0.1487E+04
      6.949  0.3672E+03  0.1506E+04
      7.001  0.3642E+03  0.1525E+04
      7.053  0.3657E+03  0.1544E+04
      7.104  0.3857E+03  0.1564E+04
      7.156  0.4115E+03  0.1585E+04
      7.208  0.4217E+03  0.1607E+04
      7.260  0.4227E+03  0.1629E+04
      7.312  0.4166E+03  0.1651E+04
      7.364  0.3942E+03  0.1671E+04
      7.415  0.3641E+03  0.1690E+04
      7.467  0.3429E+03  0.1708E+04
      7.519  0.3335E+03  0.1725E+04
      7.571  0.3299E+03  0.1742E+04
      7.623  0.3206E+03  0.1759E+04
      7.674  0.3004E+03  0.1774E+04
      7.726  0.2804E+03  0.1789E+04
      7.778  0.2699E+03  0.1803E+04
      7.830  0.2646E+03  0.1816E+04
      7.882  0.2592E+03  0.1830E+04
      7.934  0.2505E+03  0.1843E+04
      7.985  0.2433E+03  0.1855E+04
      8.037  0.2431E+03  0.1868E+04
      8.089  0.2407E+03  0.1881E+04
      8.141  0.2329E+03  0.1893E+04
      8.193  0.2288E+03  0.1904E+04
      8.245  0.2322E+03  0.1916E+04
      8.296  0.2371E+03  0.1929E+04
      8.348  0.2390E+03  0.1941E+04
      8.400  0.2378E+03  0.1953E+04
      8.452  0.2311E+03  0.1965E+04
      8.504  0.2207E+03  0.1977E+04
      8.556  0.2133E+03  0.1988E+04
      8.607  0.2085E+03  0.1999E+04
      8.659  0.2017E+03  0.2009E+04
      8.711  0.1934E+03  0.2019E+04
      8.763  0.1849E+03  0.2029E+04
      8.815  0.1796E+03  0.2038E+04
      8.867  0.1846E+03  0.2048E+04
      8.918  0.2063E+03  0.2058E+04
      8.970  0.2317E+03  0.2070E+04
      9.022  0.2380E+03  0.2083E+04
      9.074  0.2272E+03  0.2095E+04
      9.126  0.2110E+03  0.2105E+04
      9.178  0.1916E+03  0.2115E+04
      9.229  0.1787E+03  0.2125E+04
      9.281  0.1906E+03  0.2135E+04
      9.333  0.2214E+03  0.2146E+04
      9.385  0.2414E+03  0.2158E+04
      9.437  0.2430E+03  0.2171E+04
      9.489  0.2442E+03  0.2184E+04
      9.540  0.2451E+03  0.2196E+04
      9.592  0.2441E+03  0.2209E+04
      9.644  0.2645E+03  0.2223E+04
      9.696  0.3075E+03  0.2239E+04
      9.748  0.3344E+03  0.2256E+04
      9.800  0.3298E+03  0.2273E+04
      9.851  0.3183E+03  0.2290E+04
      9.903  0.3149E+03  0.2306E+04
      9.955  0.3190E+03  0.2323E+04
     10.007  0.3357E+03  0.2340E+04
     10.059  0.3697E+03  0.2359E+04
     10.111  0.4058E+03  0.2380E+04
     10.162  0.4258E+03  0.2402E+04
     10.214  0.4339E+03  0.2425E+04
     10.266  0.4446E+03  0.2448E+04
     10.318  0.4615E+03  0.2472E+04
     10.370  0.4803E+03  0.2497E+04
     10.421  0.4930E+03  0.2522E+04
     10.473  0.4909E+03  0.2548E+04
     10.525  0.4620E+03  0.2571E+04
     10.577  0.4074E+03  0.2593E+04
     10.629  0.3427E+03  0.2610E+04
     10.681  0.2668E+03  0.2624E+04
     10.732  0.1711E+03  0.2633E+04
     10.784  0.7499E+02  0.2637E+04
     10.836  0.1365E+02  0.2638E+04
     10.888 -0.5123E+01  0.2637E+04
     10.940 -0.3881E+01  0.2637E+04
     10.992 -0.1066E+01  0.2637E+04
     11.043 -0.1627E+00  0.2637E+04
     11.095 -0.1561E-01  0.2637E+04
     11.147 -0.1001E-02  0.2637E+04
     11.199 -0.4308E-04  0.2637E+04
     11.251 -0.1197E-05  0.2637E+04
     11.303 -0.2050E-07  0.2637E+04
     11.354 -0.2100E-09  0.2637E+04
     11.406 -0.2928E-11  0.2637E+04
     11.458 -0.2821E-09  0.2637E+04
     11.510 -0.2759E-07  0.2637E+04
     11.562 -0.1550E-05  0.2637E+04
     11.614 -0.4975E-04  0.2637E+04
     11.665 -0.9024E-03  0.2637E+04
     11.717 -0.9047E-02  0.2637E+04
     11.769 -0.4717E-01  0.2637E+04
     11.821 -0.9896E-01  0.2637E+04
     11.873  0.1211E+00  0.2637E+04
     11.925  0.1056E+01  0.2637E+04
     11.976  0.2257E+01  0.2637E+04
     12.028  0.2484E+01  0.2637E+04
     12.080  0.1714E+01  0.2637E+04
     12.132  0.7894E+00  0.2638E+04
     12.184  0.1606E+00  0.2638E+04
     12.236  0.5488E+00  0.2638E+04
     12.287  0.2132E+01  0.2638E+04
     12.339  0.3526E+01  0.2638E+04
     12.391  0.3777E+01  0.2638E+04
     12.443  0.3262E+01  0.2638E+04
     12.495  0.2315E+01  0.2638E+04
     12.547  0.1816E+01  0.2638E+04
     12.598  0.2350E+01  0.2639E+04
     12.650  0.3088E+01  0.2639E+04
     12.702  0.3652E+01  0.2639E+04
     12.754  0.3774E+01  0.2639E+04
     12.806  0.3150E+01  0.2639E+04
     12.858  0.2643E+01  0.2639E+04
     12.909  0.2408E+01  0.2640E+04
     12.961  0.1787E+01  0.2640E+04
     13.013  0.1202E+01  0.2640E+04
     13.065  0.9389E+00  0.2640E+04
     13.117  0.7382E+00  0.2640E+04
     13.169  0.8844E+00  0.2640E+04
     13.220  0.1290E+01  0.2640E+04
     13.272  0.1276E+01  0.2640E+04
     13.324  0.7096E+00  0.2640E+04
     13.376  0.1394E+00  0.2640E+04
     13.428 -0.5237E-01  0.2640E+04
     13.479 -0.3370E-01  0.2640E+04
     13.531 -0.7138E-02  0.2640E+04
     13.583 -0.7448E-03  0.2640E+04
     13.635 -0.4177E-04  0.2640E+04
     13.687 -0.1304E-05  0.2640E+04
     13.739 -0.2302E-07  0.2640E+04
     13.790 -0.2324E-09  0.2640E+04
     13.842 -0.1348E-11  0.2640E+04
     13.894 -0.4760E-14  0.2640E+04
     13.946  0.0000E+00  0.2640E+04
     13.998  0.0000E+00  0.2640E+04
     14.050  0.0000E+00  0.2640E+04
     14.101  0.0000E+00  0.2640E+04
     14.153  0.0000E+00  0.2640E+04
     14.205  0.0000E+00  0.2640E+04
     14.257  0.0000E+00  0.2640E+04
