       N       E                     dE             d eps       ncg     rms          rms(c)
RMM:   1     0.136790914367E+05    0.13679E+05   -0.47218E+05 25080   0.725E+02
RMM:   2     0.131336221896E+04   -0.12366E+05   -0.13120E+05 25080   0.260E+02
RMM:   3    -0.104567701809E+04   -0.23590E+04   -0.22856E+04 25080   0.111E+02
RMM:   4    -0.184600513471E+04   -0.80033E+03   -0.57408E+03 25080   0.768E+01
RMM:   5    -0.212912107073E+04   -0.28312E+03   -0.24896E+03 25080   0.451E+01
RMM:   6    -0.227483871297E+04   -0.14572E+03   -0.12952E+03 25080   0.349E+01
RMM:   7    -0.235270016408E+04   -0.77861E+02   -0.73852E+02 25080   0.235E+01
RMM:   8    -0.240019594297E+04   -0.47496E+02   -0.44555E+02 25080   0.195E+01
RMM:   9    -0.247908601593E+04   -0.78890E+02   -0.77970E+02 71869   0.137E+01
RMM:  10    -0.248864208068E+04   -0.95561E+01   -0.11977E+02 79660   0.283E+00
RMM:  11    -0.249088434890E+04   -0.22423E+01   -0.17855E+01 77279   0.686E-01
RMM:  12    -0.249119065222E+04   -0.30630E+00   -0.19824E+00 79538   0.198E-01    0.782E+01
RMM:  13    -0.241370394605E+04    0.77487E+02   -0.68531E+02 57201   0.246E+01    0.584E+01
RMM:  14    -0.236776922079E+04    0.45935E+02   -0.34136E+02 51446   0.174E+01    0.416E+01
RMM:  15    -0.233563369517E+04    0.32136E+02   -0.11851E+02 53327   0.101E+01    0.255E+01
RMM:  16    -0.232131544349E+04    0.14318E+02   -0.25840E+01 55989   0.435E+00    0.436E+00
RMM:  17    -0.232146778577E+04   -0.15234E+00   -0.64334E+00 73566   0.131E+00    0.427E+00
RMM:  18    -0.232112285455E+04    0.34493E+00   -0.11734E+00 64525   0.700E-01    0.344E+00
RMM:  19    -0.232075023461E+04    0.37262E+00   -0.63154E-01 60089   0.720E-01    0.168E+00
RMM:  20    -0.232069650299E+04    0.53732E-01   -0.24000E-01 63297   0.355E-01    0.154E+00
RMM:  21    -0.232065871657E+04    0.37786E-01   -0.11201E-01 62722   0.236E-01    0.122E+00
RMM:  22    -0.232063349225E+04    0.25224E-01   -0.48173E-02 61147   0.160E-01    0.713E-01
RMM:  23    -0.232062824283E+04    0.52494E-02   -0.13488E-02 67120   0.681E-02    0.494E-01
RMM:  24    -0.232062458096E+04    0.36619E-02   -0.10557E-02 62415   0.765E-02    0.247E-01
RMM:  25    -0.232062556098E+04   -0.98002E-03   -0.13362E-02 66171   0.798E-02    0.260E-01
RMM:  26    -0.232062571071E+04   -0.14973E-03   -0.33252E-03 74954   0.290E-02    0.269E-01
RMM:  27    -0.232062477794E+04    0.93277E-03   -0.72260E-04 60026   0.207E-02    0.178E-01
RMM:  28    -0.232062420801E+04    0.56992E-03   -0.10991E-03 63820   0.241E-02    0.743E-02
RMM:  29    -0.232062411418E+04    0.93834E-04   -0.56728E-04 71075   0.149E-02
   1 F= -.23206241E+04 E0= -.23206241E+04  d E =-.189541E-03
