       N       E                     dE             d eps       ncg     rms          rms(c)
DAV:   1     0.112829709017E+05    0.11283E+05   -0.55466E+05 95400   0.810E+02
DAV:   2    -0.143892442960E+04   -0.12722E+05   -0.12145E+05 95800   0.337E+02
DAV:   3    -0.241094551083E+04   -0.97202E+03   -0.89404E+03135260   0.780E+01
DAV:   4    -0.248228004816E+04   -0.71335E+02   -0.68904E+02132120   0.209E+01
DAV:   5    -0.248512139787E+04   -0.28413E+01   -0.27851E+01139760   0.331E+00    0.779E+01
RMM:   6    -0.241651397898E+04    0.68607E+02   -0.68101E+02105950   0.245E+01    0.623E+01
RMM:   7    -0.236996836546E+04    0.46546E+02   -0.35237E+02 97815   0.172E+01    0.455E+01
RMM:   8    -0.233991500735E+04    0.30053E+02   -0.15712E+02 97682   0.114E+01    0.321E+01
RMM:   9    -0.231573826620E+04    0.24177E+02   -0.34485E+01 98823   0.531E+00    0.652E+00
RMM:  10    -0.231560310224E+04    0.13516E+00   -0.72224E+00137524   0.146E+00    0.414E+00
RMM:  11    -0.231534588357E+04    0.25722E+00   -0.13603E+00124005   0.709E-01    0.370E+00
RMM:  12    -0.231489070323E+04    0.45518E+00   -0.64457E-01109679   0.808E-01    0.197E+00
RMM:  13    -0.231480973115E+04    0.80972E-01   -0.24931E-01115001   0.404E-01    0.166E+00
RMM:  14    -0.231478358001E+04    0.26151E-01   -0.14231E-01119373   0.246E-01    0.160E+00
RMM:  15    -0.231472770599E+04    0.55874E-01   -0.93322E-02112103   0.244E-01    0.900E-01
RMM:  16    -0.231471594151E+04    0.11764E-01   -0.22842E-02111923   0.120E-01    0.414E-01
RMM:  17    -0.231471423769E+04    0.17038E-02   -0.11409E-02120653   0.728E-02    0.240E-01
RMM:  18    -0.231471434374E+04   -0.10605E-03   -0.65270E-03131306   0.492E-02    0.205E-01
RMM:  19    -0.231471432897E+04    0.14776E-04   -0.24385E-03127076   0.312E-02    0.195E-01
RMM:  20    -0.231471377240E+04    0.55656E-03   -0.52074E-04112438   0.177E-02    0.122E-01
RMM:  21    -0.231471343943E+04    0.33298E-03   -0.78566E-04118556   0.207E-02    0.374E-02
RMM:  22    -0.231471340758E+04    0.31842E-04   -0.25213E-04135275   0.949E-03
   1 F= -.23147134E+04 E0= -.23147211E+04  d E =0.230835E-01
