       N       E                     dE             d eps       ncg     rms          rms(c)
DAV:   1     0.112830104593E+05    0.11283E+05   -0.55466E+05 95400   0.810E+02
DAV:   2    -0.143942065003E+04   -0.12722E+05   -0.12145E+05 95820   0.337E+02
DAV:   3    -0.241093011617E+04   -0.97151E+03   -0.89360E+03135140   0.780E+01
DAV:   4    -0.248227383964E+04   -0.71344E+02   -0.68920E+02132180   0.209E+01
DAV:   5    -0.248511334054E+04   -0.28395E+01   -0.27833E+01139780   0.330E+00    0.779E+01
RMM:   6    -0.241639922979E+04    0.68714E+02   -0.68052E+02105906   0.245E+01    0.622E+01
RMM:   7    -0.236999814805E+04    0.46401E+02   -0.35224E+02 97772   0.172E+01    0.455E+01
RMM:   8    -0.233988550650E+04    0.30113E+02   -0.15700E+02 97704   0.114E+01    0.321E+01
RMM:   9    -0.231571542051E+04    0.24170E+02   -0.34478E+01 98793   0.531E+00    0.646E+00
RMM:  10    -0.231557745380E+04    0.13797E+00   -0.72611E+00137328   0.147E+00    0.406E+00
RMM:  11    -0.231535329400E+04    0.22416E+00   -0.13449E+00124132   0.699E-01    0.376E+00
RMM:  12    -0.231488685894E+04    0.46644E+00   -0.63944E-01109929   0.798E-01    0.193E+00
RMM:  13    -0.231477671893E+04    0.11014E+00   -0.24953E-01112557   0.436E-01    0.130E+00
RMM:  14    -0.231474088570E+04    0.35833E-01   -0.14735E-01112200   0.320E-01    0.120E+00
RMM:  15    -0.231472413011E+04    0.16756E-01   -0.43238E-02117007   0.148E-01    0.742E-01
RMM:  16    -0.231471641519E+04    0.77149E-02   -0.13475E-02124589   0.706E-02    0.425E-01
RMM:  17    -0.231471391060E+04    0.25046E-02   -0.10807E-02117603   0.758E-02    0.198E-01
RMM:  18    -0.231471460994E+04   -0.69934E-03   -0.82746E-03129515   0.582E-02    0.213E-01
RMM:  19    -0.231471449712E+04    0.11282E-03   -0.16499E-03137437   0.206E-02    0.202E-01
RMM:  20    -0.231471393569E+04    0.56144E-03   -0.47955E-04114234   0.165E-02    0.130E-01
RMM:  21    -0.231471358091E+04    0.35478E-03   -0.85705E-04119918   0.210E-02    0.401E-02
RMM:  22    -0.231471354694E+04    0.33964E-04   -0.27568E-04136636   0.981E-03
   1 F= -.23147135E+04 E0= -.23147212E+04  d E =0.229521E-01
