       N       E                     dE             d eps       ncg     rms          rms(c)
RMM:   1     0.136790887860E+05    0.13679E+05   -0.47218E+05 25080   0.725E+02
RMM:   2     0.131333293383E+04   -0.12366E+05   -0.13120E+05 25080   0.260E+02
RMM:   3    -0.104567337407E+04   -0.23590E+04   -0.22855E+04 25080   0.111E+02
RMM:   4    -0.184600147015E+04   -0.80033E+03   -0.57407E+03 25080   0.768E+01
RMM:   5    -0.212911839751E+04   -0.28312E+03   -0.24896E+03 25080   0.451E+01
RMM:   6    -0.227483502083E+04   -0.14572E+03   -0.12952E+03 25080   0.349E+01
RMM:   7    -0.235269664470E+04   -0.77862E+02   -0.73852E+02 25080   0.235E+01
RMM:   8    -0.240019241086E+04   -0.47496E+02   -0.44555E+02 25080   0.195E+01
RMM:   9    -0.247908366232E+04   -0.78891E+02   -0.77971E+02 71859   0.137E+01
RMM:  10    -0.248863687099E+04   -0.95532E+01   -0.11976E+02 79674   0.283E+00
RMM:  11    -0.249088071680E+04   -0.22438E+01   -0.17866E+01 77283   0.686E-01
RMM:  12    -0.249118647416E+04   -0.30576E+00   -0.19784E+00 79553   0.198E-01    0.782E+01
RMM:  13    -0.241366398418E+04    0.77522E+02   -0.68496E+02 57181   0.246E+01    0.583E+01
RMM:  14    -0.236777520380E+04    0.45889E+02   -0.34130E+02 51446   0.174E+01    0.416E+01
RMM:  15    -0.233562213437E+04    0.32153E+02   -0.11845E+02 53326   0.101E+01    0.255E+01
RMM:  16    -0.232132856793E+04    0.14294E+02   -0.25840E+01 56019   0.434E+00    0.442E+00
RMM:  17    -0.232151721486E+04   -0.18865E+00   -0.64785E+00 73768   0.130E+00    0.439E+00
RMM:  18    -0.232113310706E+04    0.38411E+00   -0.11727E+00 64511   0.691E-01    0.341E+00
RMM:  19    -0.232074910298E+04    0.38400E+00   -0.66148E-01 59599   0.761E-01    0.165E+00
RMM:  20    -0.232069765180E+04    0.51451E-01   -0.24249E-01 63482   0.355E-01    0.154E+00
RMM:  21    -0.232066029692E+04    0.37355E-01   -0.11095E-01 62823   0.233E-01    0.123E+00
RMM:  22    -0.232063471309E+04    0.25584E-01   -0.48331E-02 61283   0.160E-01    0.716E-01
RMM:  23    -0.232062931366E+04    0.53994E-02   -0.13602E-02 67122   0.687E-02    0.489E-01
RMM:  24    -0.232062580207E+04    0.35116E-02   -0.10362E-02 62491   0.755E-02    0.249E-01
RMM:  25    -0.232062665637E+04   -0.85430E-03   -0.12513E-02 66426   0.766E-02    0.256E-01
RMM:  26    -0.232062687732E+04   -0.22095E-03   -0.35465E-03 73828   0.314E-02    0.267E-01
RMM:  27    -0.232062598068E+04    0.89664E-03   -0.70576E-04 60059   0.204E-02    0.179E-01
RMM:  28    -0.232062541567E+04    0.56501E-03   -0.98584E-04 63591   0.229E-02    0.799E-02
RMM:  29    -0.232062529886E+04    0.11681E-03   -0.60393E-04 70027   0.159E-02    0.274E-02
RMM:  30    -0.232062526943E+04    0.29426E-04   -0.11804E-04 66856   0.721E-03
   1 F= -.23206253E+04 E0= -.23206252E+04  d E =-.202261E-03
