 256 256   0   0
  0.1418917E+02  0.1588033E-08  0.1692661E-08  0.1693229E-08  0.5000000E-15
  1.000000000000000E-004
  CAR 
 Ir_Ru                                   
     14.27154273     -1.29186312  301      9.45709511      1.00000000
     -1.292  0.0000E+00  0.0000E+00
     -1.240  0.0000E+00  0.0000E+00
     -1.188  0.0000E+00  0.0000E+00
     -1.136 -0.2776E-30 -0.1440E-31
     -1.084 -0.1270E-26 -0.6589E-28
     -1.032 -0.3377E-23 -0.1752E-24
     -0.981 -0.5215E-20 -0.2707E-21
     -0.929 -0.4675E-17 -0.2428E-18
     -0.877 -0.2371E-14 -0.1232E-15
     -0.825 -0.7063E-12 -0.3677E-13
     -0.773 -0.1220E-09 -0.6365E-11
     -0.721 -0.1212E-07 -0.6352E-09
     -0.669 -0.6904E-06 -0.3645E-07
     -0.617 -0.2241E-04 -0.1199E-05
     -0.566 -0.4116E-03 -0.2255E-04
     -0.514 -0.4235E-02 -0.2423E-03
     -0.462 -0.2416E-01 -0.1496E-02
     -0.410 -0.7492E-01 -0.5382E-02
     -0.358 -0.1022E+00 -0.1068E-01
     -0.306  0.2025E+00 -0.1753E-03
     -0.254  0.1629E+01  0.8431E-01
     -0.202  0.4384E+01  0.3118E+00
     -0.151  0.6350E+01  0.6412E+00
     -0.099  0.6423E+01  0.9744E+00
     -0.047  0.6954E+01  0.1335E+01
      0.005  0.8845E+01  0.1794E+01
      0.057  0.1116E+02  0.2373E+01
      0.109  0.1360E+02  0.3079E+01
      0.161  0.1435E+02  0.3823E+01
      0.213  0.1172E+02  0.4431E+01
      0.264  0.1006E+02  0.4953E+01
      0.316  0.1422E+02  0.5691E+01
      0.368  0.2031E+02  0.6744E+01
      0.420  0.2250E+02  0.7912E+01
      0.472  0.2268E+02  0.9088E+01
      0.524  0.2350E+02  0.1031E+02
      0.576  0.2255E+02  0.1148E+02
      0.628  0.2044E+02  0.1254E+02
      0.680  0.2097E+02  0.1363E+02
      0.731  0.2042E+02  0.1468E+02
      0.783  0.1469E+02  0.1545E+02
      0.835  0.8923E+01  0.1591E+02
      0.887  0.8026E+01  0.1633E+02
      0.939  0.1166E+02  0.1693E+02
      0.991  0.1881E+02  0.1791E+02
      1.043  0.2777E+02  0.1935E+02
      1.095  0.3337E+02  0.2108E+02
      1.146  0.3313E+02  0.2280E+02
      1.198  0.2886E+02  0.2430E+02
      1.250  0.2289E+02  0.2548E+02
      1.302  0.1950E+02  0.2649E+02
      1.354  0.2163E+02  0.2762E+02
      1.406  0.2710E+02  0.2902E+02
      1.458  0.3034E+02  0.3060E+02
      1.510  0.2985E+02  0.3214E+02
      1.561  0.2932E+02  0.3367E+02
      1.613  0.3037E+02  0.3524E+02
      1.665  0.3110E+02  0.3685E+02
      1.717  0.3198E+02  0.3851E+02
      1.769  0.3491E+02  0.4032E+02
      1.821  0.3899E+02  0.4235E+02
      1.873  0.4532E+02  0.4470E+02
      1.925  0.5447E+02  0.4752E+02
      1.976  0.5932E+02  0.5060E+02
      2.028  0.5488E+02  0.5345E+02
      2.080  0.5047E+02  0.5607E+02
      2.132  0.6114E+02  0.5924E+02
      2.184  0.8628E+02  0.6372E+02
      2.236  0.1084E+03  0.6934E+02
      2.288  0.1196E+03  0.7554E+02
      2.340  0.1257E+03  0.8207E+02
      2.391  0.1314E+03  0.8888E+02
      2.443  0.1373E+03  0.9601E+02
      2.495  0.1467E+03  0.1036E+03
      2.547  0.1638E+03  0.1121E+03
      2.599  0.1824E+03  0.1216E+03
      2.651  0.1946E+03  0.1317E+03
      2.703  0.2064E+03  0.1424E+03
      2.755  0.2233E+03  0.1540E+03
      2.807  0.2308E+03  0.1659E+03
      2.858  0.2247E+03  0.1776E+03
      2.910  0.2274E+03  0.1894E+03
      2.962  0.2448E+03  0.2021E+03
      3.014  0.2578E+03  0.2155E+03
      3.066  0.2600E+03  0.2290E+03
      3.118  0.2605E+03  0.2425E+03
      3.170  0.2639E+03  0.2562E+03
      3.222  0.2727E+03  0.2703E+03
      3.273  0.2876E+03  0.2852E+03
      3.325  0.3069E+03  0.3012E+03
      3.377  0.3241E+03  0.3180E+03
      3.429  0.3308E+03  0.3351E+03
      3.481  0.3279E+03  0.3521E+03
      3.533  0.3213E+03  0.3688E+03
      3.585  0.3179E+03  0.3853E+03
      3.637  0.3164E+03  0.4017E+03
      3.688  0.3111E+03  0.4179E+03
      3.740  0.3052E+03  0.4337E+03
      3.792  0.3012E+03  0.4493E+03
      3.844  0.2970E+03  0.4647E+03
      3.896  0.2935E+03  0.4799E+03
      3.948  0.2889E+03  0.4949E+03
      4.000  0.2766E+03  0.5093E+03
      4.052  0.2664E+03  0.5231E+03
      4.103  0.2749E+03  0.5374E+03
      4.155  0.2935E+03  0.5526E+03
      4.207  0.3026E+03  0.5683E+03
      4.259  0.3051E+03  0.5841E+03
      4.311  0.3121E+03  0.6003E+03
      4.363  0.3189E+03  0.6169E+03
      4.415  0.3214E+03  0.6335E+03
      4.467  0.3236E+03  0.6503E+03
      4.518  0.3213E+03  0.6670E+03
      4.570  0.3100E+03  0.6831E+03
      4.622  0.2975E+03  0.6985E+03
      4.674  0.2934E+03  0.7137E+03
      4.726  0.2979E+03  0.7292E+03
      4.778  0.3055E+03  0.7450E+03
      4.830  0.3173E+03  0.7615E+03
      4.882  0.3309E+03  0.7787E+03
      4.933  0.3375E+03  0.7962E+03
      4.985  0.3448E+03  0.8141E+03
      5.037  0.3577E+03  0.8326E+03
      5.089  0.3653E+03  0.8516E+03
      5.141  0.3642E+03  0.8705E+03
      5.193  0.3556E+03  0.8889E+03
      5.245  0.3357E+03  0.9063E+03
      5.297  0.3039E+03  0.9221E+03
      5.349  0.2630E+03  0.9357E+03
      5.400  0.2196E+03  0.9471E+03
      5.452  0.1852E+03  0.9567E+03
      5.504  0.1725E+03  0.9657E+03
      5.556  0.1882E+03  0.9755E+03
      5.608  0.2258E+03  0.9872E+03
      5.660  0.2739E+03  0.1001E+04
      5.712  0.3241E+03  0.1018E+04
      5.764  0.3666E+03  0.1037E+04
      5.815  0.3946E+03  0.1058E+04
      5.867  0.4101E+03  0.1079E+04
      5.919  0.4188E+03  0.1101E+04
      5.971  0.4252E+03  0.1123E+04
      6.023  0.4281E+03  0.1145E+04
      6.075  0.4171E+03  0.1167E+04
      6.127  0.3929E+03  0.1187E+04
      6.179  0.3724E+03  0.1206E+04
      6.230  0.3615E+03  0.1225E+04
      6.282  0.3557E+03  0.1243E+04
      6.334  0.3563E+03  0.1262E+04
      6.386  0.3687E+03  0.1281E+04
      6.438  0.3818E+03  0.1301E+04
      6.490  0.3843E+03  0.1321E+04
      6.542  0.3909E+03  0.1341E+04
      6.594  0.4089E+03  0.1362E+04
      6.645  0.4235E+03  0.1384E+04
      6.697  0.4281E+03  0.1407E+04
      6.749  0.4255E+03  0.1429E+04
      6.801  0.4139E+03  0.1450E+04
      6.853  0.3930E+03  0.1470E+04
      6.905  0.3740E+03  0.1490E+04
      6.957  0.3667E+03  0.1509E+04
      7.009  0.3638E+03  0.1528E+04
      7.060  0.3675E+03  0.1547E+04
      7.112  0.3900E+03  0.1567E+04
      7.164  0.4141E+03  0.1589E+04
      7.216  0.4221E+03  0.1610E+04
      7.268  0.4223E+03  0.1632E+04
      7.320  0.4142E+03  0.1654E+04
      7.372  0.3896E+03  0.1674E+04
      7.424  0.3601E+03  0.1693E+04
      7.476  0.3408E+03  0.1710E+04
      7.527  0.3328E+03  0.1728E+04
      7.579  0.3290E+03  0.1745E+04
      7.631  0.3179E+03  0.1761E+04
      7.683  0.2968E+03  0.1777E+04
      7.735  0.2781E+03  0.1791E+04
      7.787  0.2688E+03  0.1805E+04
      7.839  0.2639E+03  0.1819E+04
      7.891  0.2580E+03  0.1832E+04
      7.942  0.2489E+03  0.1845E+04
      7.994  0.2427E+03  0.1858E+04
      8.046  0.2431E+03  0.1870E+04
      8.098  0.2397E+03  0.1883E+04
      8.150  0.2318E+03  0.1895E+04
      8.202  0.2288E+03  0.1907E+04
      8.254  0.2329E+03  0.1919E+04
      8.306  0.2375E+03  0.1931E+04
      8.357  0.2392E+03  0.1943E+04
      8.409  0.2373E+03  0.1956E+04
      8.461  0.2292E+03  0.1968E+04
      8.513  0.2188E+03  0.1979E+04
      8.565  0.2123E+03  0.1990E+04
      8.617  0.2075E+03  0.2001E+04
      8.669  0.2003E+03  0.2011E+04
      8.721  0.1919E+03  0.2021E+04
      8.772  0.1835E+03  0.2031E+04
      8.824  0.1794E+03  0.2040E+04
      8.876  0.1873E+03  0.2050E+04
      8.928  0.2115E+03  0.2061E+04
      8.980  0.2347E+03  0.2073E+04
      9.032  0.2368E+03  0.2085E+04
      9.084  0.2243E+03  0.2097E+04
      9.136  0.2074E+03  0.2107E+04
      9.187  0.1880E+03  0.2117E+04
      9.239  0.1787E+03  0.2126E+04
      9.291  0.1958E+03  0.2137E+04
      9.343  0.2269E+03  0.2148E+04
      9.395  0.2427E+03  0.2161E+04
      9.447  0.2428E+03  0.2174E+04
      9.499  0.2448E+03  0.2186E+04
      9.551  0.2447E+03  0.2199E+04
      9.603  0.2458E+03  0.2212E+04
      9.654  0.2721E+03  0.2226E+04
      9.706  0.3154E+03  0.2242E+04
      9.758  0.3355E+03  0.2260E+04
      9.810  0.3271E+03  0.2277E+04
      9.862  0.3169E+03  0.2293E+04
      9.914  0.3152E+03  0.2309E+04
      9.966  0.3210E+03  0.2326E+04
     10.018  0.3412E+03  0.2344E+04
     10.069  0.3775E+03  0.2363E+04
     10.121  0.4115E+03  0.2385E+04
     10.173  0.4280E+03  0.2407E+04
     10.225  0.4356E+03  0.2429E+04
     10.277  0.4477E+03  0.2453E+04
     10.329  0.4661E+03  0.2477E+04
     10.381  0.4853E+03  0.2502E+04
     10.433  0.4972E+03  0.2528E+04
     10.484  0.4913E+03  0.2553E+04
     10.536  0.4554E+03  0.2577E+04
     10.588  0.3956E+03  0.2597E+04
     10.640  0.3272E+03  0.2614E+04
     10.692  0.2451E+03  0.2627E+04
     10.744  0.1451E+03  0.2635E+04
     10.796  0.5443E+02  0.2637E+04
     10.848  0.5135E+01  0.2638E+04
     10.899 -0.5682E+01  0.2637E+04
     10.951 -0.2947E+01  0.2637E+04
     11.003 -0.6807E+00  0.2637E+04
     11.055 -0.9169E-01  0.2637E+04
     11.107 -0.8009E-02  0.2637E+04
     11.159 -0.4754E-03  0.2637E+04
     11.211 -0.1887E-04  0.2637E+04
     11.263 -0.4759E-06  0.2637E+04
     11.314 -0.7298E-08  0.2637E+04
     11.366 -0.6627E-10  0.2637E+04
     11.418 -0.9046E-12  0.2637E+04
     11.470 -0.1082E-09  0.2637E+04
     11.522 -0.1222E-07  0.2637E+04
     11.574 -0.7967E-06  0.2637E+04
     11.626 -0.2979E-04  0.2637E+04
     11.678 -0.6318E-03  0.2637E+04
     11.730 -0.7420E-02  0.2637E+04
     11.781 -0.4540E-01  0.2637E+04
     11.833 -0.1159E+00  0.2637E+04
     11.885  0.8374E-01  0.2637E+04
     11.937  0.1108E+01  0.2637E+04
     11.989  0.2362E+01  0.2637E+04
     12.041  0.2274E+01  0.2638E+04
     12.093  0.1276E+01  0.2638E+04
     12.145  0.7621E+00  0.2638E+04
     12.196  0.6339E+00  0.2638E+04
     12.248  0.1143E+01  0.2638E+04
     12.300  0.2471E+01  0.2638E+04
     12.352  0.3183E+01  0.2638E+04
     12.404  0.2858E+01  0.2638E+04
     12.456  0.2406E+01  0.2638E+04
     12.508  0.1946E+01  0.2638E+04
     12.560  0.2064E+01  0.2638E+04
     12.611  0.2668E+01  0.2639E+04
     12.663  0.3005E+01  0.2639E+04
     12.715  0.3522E+01  0.2639E+04
     12.767  0.3605E+01  0.2639E+04
     12.819  0.2949E+01  0.2639E+04
     12.871  0.2595E+01  0.2639E+04
     12.923  0.2362E+01  0.2640E+04
     12.975  0.1701E+01  0.2640E+04
     13.026  0.1132E+01  0.2640E+04
     13.078  0.8843E+00  0.2640E+04
     13.130  0.7795E+00  0.2640E+04
     13.182  0.9428E+00  0.2640E+04
     13.234  0.1157E+01  0.2640E+04
     13.286  0.1102E+01  0.2640E+04
     13.338  0.6675E+00  0.2640E+04
     13.390  0.1558E+00  0.2640E+04
     13.441 -0.4412E-01  0.2640E+04
     13.493 -0.3281E-01  0.2640E+04
     13.545 -0.7201E-02  0.2640E+04
     13.597 -0.7636E-03  0.2640E+04
     13.649 -0.4321E-04  0.2640E+04
     13.701 -0.1356E-05  0.2640E+04
     13.753 -0.2402E-07  0.2640E+04
     13.805 -0.2428E-09  0.2640E+04
     13.857 -0.1409E-11  0.2640E+04
     13.908 -0.4756E-14  0.2640E+04
     13.960  0.0000E+00  0.2640E+04
     14.012  0.0000E+00  0.2640E+04
     14.064  0.0000E+00  0.2640E+04
     14.116  0.0000E+00  0.2640E+04
     14.168  0.0000E+00  0.2640E+04
     14.220  0.0000E+00  0.2640E+04
     14.272  0.0000E+00  0.2640E+04
