 256 256   0   0
  0.1419206E+02  0.1537080E-08  0.1537218E-08  0.1537636E-08  0.5000000E-15
  1.000000000000000E-004
  CAR 
 Ir_Ru                                   
     12.68654247     -1.29500670  301      9.24209940      1.00000000
     -1.295  0.0000E+00  0.0000E+00
     -1.248  0.0000E+00  0.0000E+00
     -1.202  0.0000E+00  0.0000E+00
     -1.155  0.0000E+00  0.0000E+00
     -1.109 -0.2759E-28 -0.1286E-29
     -1.062 -0.4119E-25 -0.1921E-26
     -1.015 -0.3966E-22 -0.1850E-23
     -0.969 -0.2464E-19 -0.1150E-20
     -0.922 -0.9875E-17 -0.4614E-18
     -0.876 -0.2478E-14 -0.1160E-15
     -0.829 -0.4109E-12 -0.1927E-13
     -0.782 -0.4389E-10 -0.2065E-11
     -0.736 -0.3020E-08 -0.1428E-09
     -0.689 -0.1340E-06 -0.6386E-08
     -0.643 -0.3837E-05 -0.1852E-06
     -0.596 -0.7117E-04 -0.3502E-05
     -0.549 -0.8570E-03 -0.4344E-04
     -0.503 -0.6703E-02 -0.3559E-03
     -0.456 -0.3365E-01 -0.1924E-02
     -0.410 -0.1022E+00 -0.6687E-02
     -0.363 -0.1376E+00 -0.1310E-01
     -0.316  0.2257E+00 -0.2582E-02
     -0.270  0.1514E+01  0.6796E-01
     -0.223  0.3544E+01  0.2331E+00
     -0.176  0.5073E+01  0.4696E+00
     -0.130  0.5735E+01  0.7368E+00
     -0.083  0.7333E+01  0.1079E+01
     -0.037  0.1020E+02  0.1554E+01
      0.010  0.1102E+02  0.2068E+01
      0.057  0.9146E+01  0.2494E+01
      0.103  0.9390E+01  0.2932E+01
      0.150  0.1316E+02  0.3545E+01
      0.196  0.1592E+02  0.4287E+01
      0.243  0.1605E+02  0.5035E+01
      0.290  0.1674E+02  0.5815E+01
      0.336  0.1850E+02  0.6677E+01
      0.383  0.1833E+02  0.7531E+01
      0.429  0.1742E+02  0.8343E+01
      0.476  0.1979E+02  0.9265E+01
      0.523  0.2336E+02  0.1035E+02
      0.569  0.2405E+02  0.1148E+02
      0.616  0.2227E+02  0.1251E+02
      0.662  0.1872E+02  0.1339E+02
      0.709  0.1408E+02  0.1404E+02
      0.756  0.1114E+02  0.1456E+02
      0.802  0.1071E+02  0.1506E+02
      0.849  0.1116E+02  0.1558E+02
      0.895  0.1221E+02  0.1615E+02
      0.942  0.1470E+02  0.1683E+02
      0.989  0.1838E+02  0.1769E+02
      1.035  0.2290E+02  0.1876E+02
      1.082  0.2808E+02  0.2007E+02
      1.128  0.3124E+02  0.2152E+02
      1.175  0.2972E+02  0.2291E+02
      1.222  0.2590E+02  0.2411E+02
      1.268  0.2305E+02  0.2519E+02
      1.315  0.2094E+02  0.2617E+02
      1.361  0.2000E+02  0.2710E+02
      1.408  0.2162E+02  0.2810E+02
      1.455  0.2407E+02  0.2923E+02
      1.501  0.2565E+02  0.3042E+02
      1.548  0.2896E+02  0.3177E+02
      1.595  0.3510E+02  0.3341E+02
      1.641  0.3872E+02  0.3521E+02
      1.688  0.3785E+02  0.3698E+02
      1.734  0.3927E+02  0.3881E+02
      1.781  0.4553E+02  0.4093E+02
      1.828  0.4934E+02  0.4323E+02
      1.874  0.4783E+02  0.4546E+02
      1.921  0.4731E+02  0.4766E+02
      1.967  0.5091E+02  0.5003E+02
      2.014  0.5409E+02  0.5256E+02
      2.061  0.5545E+02  0.5514E+02
      2.107  0.6135E+02  0.5800E+02
      2.154  0.7452E+02  0.6147E+02
      2.200  0.8933E+02  0.6564E+02
      2.247  0.1031E+03  0.7044E+02
      2.294  0.1178E+03  0.7593E+02
      2.340  0.1311E+03  0.8204E+02
      2.387  0.1383E+03  0.8849E+02
      2.433  0.1434E+03  0.9517E+02
      2.480  0.1525E+03  0.1023E+03
      2.527  0.1611E+03  0.1098E+03
      2.573  0.1618E+03  0.1173E+03
      2.620  0.1614E+03  0.1248E+03
      2.666  0.1690E+03  0.1327E+03
      2.713  0.1785E+03  0.1410E+03
      2.760  0.1849E+03  0.1497E+03
      2.806  0.1980E+03  0.1589E+03
      2.853  0.2231E+03  0.1693E+03
      2.899  0.2477E+03  0.1808E+03
      2.946  0.2563E+03  0.1928E+03
      2.993  0.2497E+03  0.2044E+03
      3.039  0.2469E+03  0.2159E+03
      3.086  0.2623E+03  0.2281E+03
      3.132  0.2867E+03  0.2415E+03
      3.179  0.3013E+03  0.2555E+03
      3.226  0.3038E+03  0.2697E+03
      3.272  0.3050E+03  0.2839E+03
      3.319  0.3084E+03  0.2983E+03
      3.366  0.3111E+03  0.3128E+03
      3.412  0.3144E+03  0.3274E+03
      3.459  0.3217E+03  0.3424E+03
      3.505  0.3334E+03  0.3580E+03
      3.552  0.3441E+03  0.3740E+03
      3.599  0.3469E+03  0.3902E+03
      3.645  0.3450E+03  0.4063E+03
      3.692  0.3488E+03  0.4225E+03
      3.738  0.3577E+03  0.4392E+03
      3.785  0.3592E+03  0.4559E+03
      3.832  0.3521E+03  0.4723E+03
      3.878  0.3477E+03  0.4885E+03
      3.925  0.3496E+03  0.5048E+03
      3.971  0.3505E+03  0.5212E+03
      4.018  0.3413E+03  0.5371E+03
      4.065  0.3227E+03  0.5521E+03
      4.111  0.3067E+03  0.5664E+03
      4.158  0.2975E+03  0.5803E+03
      4.204  0.2872E+03  0.5937E+03
      4.251  0.2710E+03  0.6063E+03
      4.298  0.2535E+03  0.6181E+03
      4.344  0.2427E+03  0.6294E+03
      4.391  0.2453E+03  0.6408E+03
      4.437  0.2578E+03  0.6529E+03
      4.484  0.2617E+03  0.6651E+03
      4.531  0.2507E+03  0.6767E+03
      4.577  0.2478E+03  0.6883E+03
      4.624  0.2674E+03  0.7008E+03
      4.670  0.2921E+03  0.7144E+03
      4.717  0.3070E+03  0.7287E+03
      4.764  0.3138E+03  0.7433E+03
      4.810  0.3135E+03  0.7579E+03
      4.857  0.3047E+03  0.7721E+03
      4.903  0.2898E+03  0.7856E+03
      4.950  0.2784E+03  0.7986E+03
      4.997  0.2813E+03  0.8117E+03
      5.043  0.2954E+03  0.8255E+03
      5.090  0.3080E+03  0.8398E+03
      5.137  0.3091E+03  0.8542E+03
      5.183  0.2975E+03  0.8681E+03
      5.230  0.2856E+03  0.8814E+03
      5.276  0.2845E+03  0.8947E+03
      5.323  0.2904E+03  0.9082E+03
      5.370  0.2974E+03  0.9221E+03
      5.416  0.3019E+03  0.9361E+03
      5.463  0.2986E+03  0.9501E+03
      5.509  0.2886E+03  0.9635E+03
      5.556  0.2868E+03  0.9769E+03
      5.603  0.3029E+03  0.9910E+03
      5.649  0.3217E+03  0.1006E+04
      5.696  0.3253E+03  0.1021E+04
      5.742  0.3202E+03  0.1036E+04
      5.789  0.3200E+03  0.1051E+04
      5.836  0.3264E+03  0.1066E+04
      5.882  0.3369E+03  0.1082E+04
      5.929  0.3503E+03  0.1098E+04
      5.975  0.3656E+03  0.1115E+04
      6.022  0.3792E+03  0.1133E+04
      6.069  0.3856E+03  0.1151E+04
      6.115  0.3875E+03  0.1169E+04
      6.162  0.3915E+03  0.1187E+04
      6.208  0.3985E+03  0.1206E+04
      6.255  0.4096E+03  0.1225E+04
      6.302  0.4274E+03  0.1245E+04
      6.348  0.4466E+03  0.1266E+04
      6.395  0.4573E+03  0.1287E+04
      6.441  0.4571E+03  0.1308E+04
      6.488  0.4532E+03  0.1329E+04
      6.535  0.4501E+03  0.1350E+04
      6.581  0.4456E+03  0.1371E+04
      6.628  0.4391E+03  0.1392E+04
      6.674  0.4317E+03  0.1412E+04
      6.721  0.4248E+03  0.1431E+04
      6.768  0.4168E+03  0.1451E+04
      6.814  0.4012E+03  0.1470E+04
      6.861  0.3763E+03  0.1487E+04
      6.908  0.3540E+03  0.1504E+04
      6.954  0.3441E+03  0.1520E+04
      7.001  0.3391E+03  0.1535E+04
      7.047  0.3275E+03  0.1551E+04
      7.094  0.3147E+03  0.1565E+04
      7.141  0.3135E+03  0.1580E+04
      7.187  0.3194E+03  0.1595E+04
      7.234  0.3132E+03  0.1609E+04
      7.280  0.2870E+03  0.1623E+04
      7.327  0.2555E+03  0.1635E+04
      7.374  0.2401E+03  0.1646E+04
      7.420  0.2490E+03  0.1658E+04
      7.467  0.2716E+03  0.1670E+04
      7.513  0.2847E+03  0.1683E+04
      7.560  0.2762E+03  0.1696E+04
      7.607  0.2582E+03  0.1708E+04
      7.653  0.2482E+03  0.1720E+04
      7.700  0.2576E+03  0.1732E+04
      7.746  0.2834E+03  0.1745E+04
      7.793  0.3057E+03  0.1759E+04
      7.840  0.3120E+03  0.1774E+04
      7.886  0.3087E+03  0.1788E+04
      7.933  0.3029E+03  0.1802E+04
      7.979  0.2959E+03  0.1816E+04
      8.026  0.2911E+03  0.1830E+04
      8.073  0.2960E+03  0.1844E+04
      8.119  0.3095E+03  0.1858E+04
      8.166  0.3170E+03  0.1873E+04
      8.212  0.3178E+03  0.1888E+04
      8.259  0.3303E+03  0.1903E+04
      8.306  0.3541E+03  0.1920E+04
      8.352  0.3621E+03  0.1936E+04
      8.399  0.3390E+03  0.1952E+04
      8.445  0.2991E+03  0.1966E+04
      8.492  0.2665E+03  0.1979E+04
      8.539  0.2558E+03  0.1990E+04
      8.585  0.2714E+03  0.2003E+04
      8.632  0.2958E+03  0.2017E+04
      8.678  0.3000E+03  0.2031E+04
      8.725  0.2836E+03  0.2044E+04
      8.772  0.2672E+03  0.2057E+04
      8.818  0.2567E+03  0.2069E+04
      8.865  0.2490E+03  0.2080E+04
      8.912  0.2451E+03  0.2092E+04
      8.958  0.2453E+03  0.2103E+04
      9.005  0.2537E+03  0.2115E+04
      9.051  0.2738E+03  0.2128E+04
      9.098  0.2839E+03  0.2141E+04
      9.145  0.2655E+03  0.2153E+04
      9.191  0.2404E+03  0.2164E+04
      9.238  0.2281E+03  0.2175E+04
      9.284  0.2197E+03  0.2185E+04
      9.331  0.2138E+03  0.2195E+04
      9.378  0.2222E+03  0.2206E+04
      9.424  0.2430E+03  0.2217E+04
      9.471  0.2627E+03  0.2229E+04
      9.517  0.2737E+03  0.2242E+04
      9.564  0.2773E+03  0.2255E+04
      9.611  0.2761E+03  0.2268E+04
      9.657  0.2708E+03  0.2280E+04
      9.704  0.2607E+03  0.2292E+04
      9.750  0.2434E+03  0.2304E+04
      9.797  0.2240E+03  0.2314E+04
      9.844  0.2196E+03  0.2324E+04
      9.890  0.2370E+03  0.2336E+04
      9.937  0.2647E+03  0.2348E+04
      9.983  0.2958E+03  0.2362E+04
     10.030  0.3280E+03  0.2377E+04
     10.077  0.3495E+03  0.2393E+04
     10.123  0.3461E+03  0.2409E+04
     10.170  0.3234E+03  0.2424E+04
     10.216  0.3102E+03  0.2439E+04
     10.263  0.3300E+03  0.2454E+04
     10.310  0.3888E+03  0.2472E+04
     10.356  0.4680E+03  0.2494E+04
     10.403  0.5190E+03  0.2518E+04
     10.449  0.5082E+03  0.2542E+04
     10.496  0.4488E+03  0.2563E+04
     10.543  0.3721E+03  0.2580E+04
     10.589  0.3005E+03  0.2594E+04
     10.636  0.2471E+03  0.2606E+04
     10.683  0.2117E+03  0.2616E+04
     10.729  0.1799E+03  0.2624E+04
     10.776  0.1408E+03  0.2631E+04
     10.822  0.9625E+02  0.2635E+04
     10.869  0.5574E+02  0.2638E+04
     10.916  0.2683E+02  0.2639E+04
     10.962  0.1035E+02  0.2639E+04
     11.009  0.3192E+01  0.2640E+04
     11.055  0.1544E+01  0.2640E+04
     11.102  0.1745E+01  0.2640E+04
     11.149  0.1467E+01  0.2640E+04
     11.195  0.5891E+00  0.2640E+04
     11.242 -0.6509E-02  0.2640E+04
     11.288 -0.1067E+00  0.2640E+04
     11.335 -0.4578E-01  0.2640E+04
     11.382 -0.9835E-02  0.2640E+04
     11.428 -0.3358E-02  0.2640E+04
     11.475 -0.1351E-01  0.2640E+04
     11.521 -0.4291E-01  0.2640E+04
     11.568 -0.3410E-01  0.2640E+04
     11.615  0.2076E+00  0.2640E+04
     11.661  0.7253E+00  0.2640E+04
     11.708  0.1026E+01  0.2640E+04
     11.754  0.7125E+00  0.2640E+04
     11.801  0.1975E+00  0.2640E+04
     11.848 -0.3613E-01  0.2640E+04
     11.894 -0.4213E-01  0.2640E+04
     11.941 -0.1293E-01  0.2640E+04
     11.987 -0.2076E-02  0.2640E+04
     12.034 -0.1960E-03  0.2640E+04
     12.081 -0.1134E-04  0.2640E+04
     12.127 -0.4101E-06  0.2640E+04
     12.174 -0.9381E-08  0.2640E+04
     12.220 -0.1366E-09  0.2640E+04
     12.267 -0.1273E-11  0.2640E+04
     12.314 -0.7444E-14  0.2640E+04
     12.360  0.0000E+00  0.2640E+04
     12.407  0.0000E+00  0.2640E+04
     12.454  0.0000E+00  0.2640E+04
     12.500  0.0000E+00  0.2640E+04
     12.547  0.0000E+00  0.2640E+04
     12.593  0.0000E+00  0.2640E+04
     12.640  0.0000E+00  0.2640E+04
     12.687  0.0000E+00  0.2640E+04
