 256 256   0   0
  0.1418917E+02  0.1588033E-08  0.1692661E-08  0.1693229E-08  0.5000000E-15
  1.000000000000000E-004
  CAR 
 Ir_Ru                                   
     14.26943501     -1.29188200  301      9.45692005      1.00000000
     -1.292  0.0000E+00  0.0000E+00
     -1.240  0.0000E+00  0.0000E+00
     -1.188  0.0000E+00  0.0000E+00
     -1.136 -0.2767E-30 -0.1435E-31
     -1.084 -0.1264E-26 -0.6560E-28
     -1.033 -0.3360E-23 -0.1743E-24
     -0.981 -0.5186E-20 -0.2692E-21
     -0.929 -0.4647E-17 -0.2413E-18
     -0.877 -0.2355E-14 -0.1224E-15
     -0.825 -0.7018E-12 -0.3653E-13
     -0.773 -0.1212E-09 -0.6323E-11
     -0.721 -0.1205E-07 -0.6312E-09
     -0.669 -0.6863E-06 -0.3623E-07
     -0.618 -0.2229E-04 -0.1192E-05
     -0.566 -0.4096E-03 -0.2244E-04
     -0.514 -0.4218E-02 -0.2412E-03
     -0.462 -0.2409E-01 -0.1491E-02
     -0.410 -0.7480E-01 -0.5371E-02
     -0.358 -0.1023E+00 -0.1068E-01
     -0.306  0.2008E+00 -0.2593E-03
     -0.254  0.1623E+01  0.8392E-01
     -0.203  0.4377E+01  0.3109E+00
     -0.151  0.6348E+01  0.6402E+00
     -0.099  0.6425E+01  0.9735E+00
     -0.047  0.6950E+01  0.1334E+01
      0.005  0.8838E+01  0.1792E+01
      0.057  0.1116E+02  0.2371E+01
      0.109  0.1359E+02  0.3076E+01
      0.161  0.1436E+02  0.3821E+01
      0.212  0.1174E+02  0.4430E+01
      0.264  0.1005E+02  0.4951E+01
      0.316  0.1419E+02  0.5687E+01
      0.368  0.2029E+02  0.6739E+01
      0.420  0.2254E+02  0.7908E+01
      0.472  0.2273E+02  0.9088E+01
      0.524  0.2352E+02  0.1031E+02
      0.575  0.2255E+02  0.1148E+02
      0.627  0.2048E+02  0.1254E+02
      0.679  0.2102E+02  0.1363E+02
      0.731  0.2042E+02  0.1469E+02
      0.783  0.1466E+02  0.1545E+02
      0.835  0.8890E+01  0.1591E+02
      0.887  0.7961E+01  0.1632E+02
      0.939  0.1158E+02  0.1692E+02
      0.990  0.1875E+02  0.1790E+02
      1.042  0.2768E+02  0.1933E+02
      1.094  0.3326E+02  0.2106E+02
      1.146  0.3313E+02  0.2278E+02
      1.198  0.2898E+02  0.2428E+02
      1.250  0.2298E+02  0.2547E+02
      1.302  0.1949E+02  0.2648E+02
      1.354  0.2156E+02  0.2760E+02
      1.405  0.2703E+02  0.2900E+02
      1.457  0.3032E+02  0.3058E+02
      1.509  0.2988E+02  0.3213E+02
      1.561  0.2932E+02  0.3365E+02
      1.613  0.3035E+02  0.3522E+02
      1.665  0.3111E+02  0.3683E+02
      1.717  0.3202E+02  0.3850E+02
      1.769  0.3494E+02  0.4031E+02
      1.820  0.3894E+02  0.4233E+02
      1.872  0.4523E+02  0.4467E+02
      1.924  0.5443E+02  0.4750E+02
      1.976  0.5937E+02  0.5058E+02
      2.028  0.5496E+02  0.5343E+02
      2.080  0.5048E+02  0.5605E+02
      2.132  0.6104E+02  0.5921E+02
      2.183  0.8619E+02  0.6368E+02
      2.235  0.1084E+03  0.6931E+02
      2.287  0.1195E+03  0.7551E+02
      2.339  0.1256E+03  0.8202E+02
      2.391  0.1312E+03  0.8883E+02
      2.443  0.1372E+03  0.9594E+02
      2.495  0.1467E+03  0.1036E+03
      2.547  0.1637E+03  0.1120E+03
      2.598  0.1822E+03  0.1215E+03
      2.650  0.1945E+03  0.1316E+03
      2.702  0.2062E+03  0.1423E+03
      2.754  0.2231E+03  0.1538E+03
      2.806  0.2307E+03  0.1658E+03
      2.858  0.2246E+03  0.1775E+03
      2.910  0.2271E+03  0.1892E+03
      2.962  0.2444E+03  0.2019E+03
      3.013  0.2577E+03  0.2153E+03
      3.065  0.2601E+03  0.2288E+03
      3.117  0.2606E+03  0.2423E+03
      3.169  0.2640E+03  0.2560E+03
      3.221  0.2725E+03  0.2701E+03
      3.273  0.2873E+03  0.2850E+03
      3.325  0.3065E+03  0.3009E+03
      3.377  0.3240E+03  0.3177E+03
      3.428  0.3310E+03  0.3349E+03
      3.480  0.3283E+03  0.3519E+03
      3.532  0.3217E+03  0.3686E+03
      3.584  0.3183E+03  0.3851E+03
      3.636  0.3166E+03  0.4016E+03
      3.688  0.3111E+03  0.4177E+03
      3.740  0.3052E+03  0.4335E+03
      3.791  0.3012E+03  0.4492E+03
      3.843  0.2971E+03  0.4646E+03
      3.895  0.2934E+03  0.4798E+03
      3.947  0.2888E+03  0.4948E+03
      3.999  0.2767E+03  0.5091E+03
      4.051  0.2665E+03  0.5229E+03
      4.103  0.2749E+03  0.5372E+03
      4.155  0.2935E+03  0.5524E+03
      4.206  0.3028E+03  0.5681E+03
      4.258  0.3050E+03  0.5839E+03
      4.310  0.3117E+03  0.6001E+03
      4.362  0.3185E+03  0.6166E+03
      4.414  0.3211E+03  0.6333E+03
      4.466  0.3236E+03  0.6501E+03
      4.518  0.3214E+03  0.6668E+03
      4.570  0.3103E+03  0.6829E+03
      4.621  0.2977E+03  0.6983E+03
      4.673  0.2934E+03  0.7135E+03
      4.725  0.2979E+03  0.7290E+03
      4.777  0.3054E+03  0.7448E+03
      4.829  0.3170E+03  0.7613E+03
      4.881  0.3308E+03  0.7784E+03
      4.933  0.3376E+03  0.7959E+03
      4.985  0.3447E+03  0.8138E+03
      5.036  0.3577E+03  0.8324E+03
      5.088  0.3654E+03  0.8513E+03
      5.140  0.3642E+03  0.8702E+03
      5.192  0.3555E+03  0.8886E+03
      5.244  0.3359E+03  0.9061E+03
      5.296  0.3043E+03  0.9219E+03
      5.348  0.2637E+03  0.9355E+03
      5.399  0.2204E+03  0.9470E+03
      5.451  0.1857E+03  0.9566E+03
      5.503  0.1726E+03  0.9655E+03
      5.555  0.1878E+03  0.9753E+03
      5.607  0.2252E+03  0.9870E+03
      5.659  0.2732E+03  0.1001E+04
      5.711  0.3232E+03  0.1018E+04
      5.763  0.3656E+03  0.1037E+04
      5.814  0.3936E+03  0.1057E+04
      5.866  0.4095E+03  0.1079E+04
      5.918  0.4188E+03  0.1100E+04
      5.970  0.4255E+03  0.1122E+04
      6.022  0.4285E+03  0.1145E+04
      6.074  0.4177E+03  0.1166E+04
      6.126  0.3935E+03  0.1187E+04
      6.178  0.3727E+03  0.1206E+04
      6.229  0.3617E+03  0.1225E+04
      6.281  0.3557E+03  0.1243E+04
      6.333  0.3560E+03  0.1262E+04
      6.385  0.3683E+03  0.1281E+04
      6.437  0.3816E+03  0.1301E+04
      6.489  0.3842E+03  0.1320E+04
      6.541  0.3908E+03  0.1341E+04
      6.593  0.4087E+03  0.1362E+04
      6.644  0.4235E+03  0.1384E+04
      6.696  0.4281E+03  0.1406E+04
      6.748  0.4256E+03  0.1428E+04
      6.800  0.4141E+03  0.1450E+04
      6.852  0.3934E+03  0.1470E+04
      6.904  0.3743E+03  0.1489E+04
      6.956  0.3668E+03  0.1509E+04
      7.007  0.3638E+03  0.1527E+04
      7.059  0.3671E+03  0.1546E+04
      7.111  0.3894E+03  0.1567E+04
      7.163  0.4137E+03  0.1588E+04
      7.215  0.4221E+03  0.1610E+04
      7.267  0.4227E+03  0.1632E+04
      7.319  0.4148E+03  0.1653E+04
      7.371  0.3900E+03  0.1674E+04
      7.422  0.3604E+03  0.1692E+04
      7.474  0.3410E+03  0.1710E+04
      7.526  0.3328E+03  0.1727E+04
      7.578  0.3292E+03  0.1744E+04
      7.630  0.3184E+03  0.1761E+04
      7.682  0.2973E+03  0.1776E+04
      7.734  0.2783E+03  0.1791E+04
      7.786  0.2690E+03  0.1805E+04
      7.837  0.2640E+03  0.1818E+04
      7.889  0.2580E+03  0.1832E+04
      7.941  0.2490E+03  0.1845E+04
      7.993  0.2429E+03  0.1857E+04
      8.045  0.2432E+03  0.1870E+04
      8.097  0.2398E+03  0.1882E+04
      8.149  0.2318E+03  0.1894E+04
      8.201  0.2289E+03  0.1906E+04
      8.252  0.2331E+03  0.1918E+04
      8.304  0.2376E+03  0.1931E+04
      8.356  0.2391E+03  0.1943E+04
      8.408  0.2372E+03  0.1955E+04
      8.460  0.2295E+03  0.1967E+04
      8.512  0.2191E+03  0.1979E+04
      8.564  0.2123E+03  0.1990E+04
      8.615  0.2076E+03  0.2000E+04
      8.667  0.2004E+03  0.2011E+04
      8.719  0.1920E+03  0.2021E+04
      8.771  0.1837E+03  0.2030E+04
      8.823  0.1795E+03  0.2040E+04
      8.875  0.1869E+03  0.2049E+04
      8.927  0.2107E+03  0.2060E+04
      8.979  0.2343E+03  0.2072E+04
      9.030  0.2370E+03  0.2085E+04
      9.082  0.2247E+03  0.2096E+04
      9.134  0.2079E+03  0.2107E+04
      9.186  0.1885E+03  0.2117E+04
      9.238  0.1787E+03  0.2126E+04
      9.290  0.1950E+03  0.2136E+04
      9.342  0.2261E+03  0.2148E+04
      9.394  0.2426E+03  0.2161E+04
      9.445  0.2429E+03  0.2173E+04
      9.497  0.2447E+03  0.2186E+04
      9.549  0.2447E+03  0.2199E+04
      9.601  0.2454E+03  0.2211E+04
      9.653  0.2711E+03  0.2225E+04
      9.705  0.3144E+03  0.2242E+04
      9.757  0.3354E+03  0.2259E+04
      9.809  0.3275E+03  0.2276E+04
      9.860  0.3170E+03  0.2293E+04
      9.912  0.3151E+03  0.2309E+04
      9.964  0.3207E+03  0.2326E+04
     10.016  0.3405E+03  0.2343E+04
     10.068  0.3765E+03  0.2363E+04
     10.120  0.4107E+03  0.2384E+04
     10.172  0.4276E+03  0.2406E+04
     10.223  0.4354E+03  0.2429E+04
     10.275  0.4473E+03  0.2452E+04
     10.327  0.4651E+03  0.2476E+04
     10.379  0.4832E+03  0.2501E+04
     10.431  0.4939E+03  0.2527E+04
     10.483  0.4878E+03  0.2552E+04
     10.535  0.4537E+03  0.2576E+04
     10.587  0.3960E+03  0.2596E+04
     10.638  0.3294E+03  0.2613E+04
     10.690  0.2495E+03  0.2626E+04
     10.742  0.1514E+03  0.2634E+04
     10.794  0.6011E+02  0.2637E+04
     10.846  0.8086E+01  0.2638E+04
     10.898 -0.5043E+01  0.2637E+04
     10.950 -0.2988E+01  0.2637E+04
     11.002 -0.2959E+00  0.2637E+04
     11.053  0.7666E+00  0.2637E+04
     11.105  0.6407E+00  0.2637E+04
     11.157  0.1558E+00  0.2637E+04
     11.209 -0.4031E-01  0.2637E+04
     11.261 -0.2901E-01  0.2637E+04
     11.313 -0.6054E-02  0.2637E+04
     11.365 -0.6102E-03  0.2637E+04
     11.417 -0.3286E-04  0.2637E+04
     11.468 -0.9824E-06  0.2637E+04
     11.520 -0.3647E-07  0.2637E+04
     11.572 -0.1250E-05  0.2637E+04
     11.624 -0.4503E-04  0.2637E+04
     11.676 -0.9161E-03  0.2637E+04
     11.728 -0.1023E-01  0.2637E+04
     11.780 -0.5833E-01  0.2637E+04
     11.831 -0.1279E+00  0.2637E+04
     11.883  0.1786E+00  0.2637E+04
     11.935  0.1388E+01  0.2637E+04
     11.987  0.2575E+01  0.2637E+04
     12.039  0.2287E+01  0.2638E+04
     12.091  0.1322E+01  0.2638E+04
     12.143  0.6573E+00  0.2638E+04
     12.195  0.1992E+00  0.2638E+04
     12.246  0.6216E+00  0.2638E+04
     12.298  0.2139E+01  0.2638E+04
     12.350  0.3305E+01  0.2638E+04
     12.402  0.3347E+01  0.2638E+04
     12.454  0.2734E+01  0.2638E+04
     12.506  0.1803E+01  0.2638E+04
     12.558  0.1471E+01  0.2638E+04
     12.610  0.2132E+01  0.2639E+04
     12.661  0.3246E+01  0.2639E+04
     12.713  0.4265E+01  0.2639E+04
     12.765  0.4035E+01  0.2639E+04
     12.817  0.2886E+01  0.2639E+04
     12.869  0.2552E+01  0.2639E+04
     12.921  0.2409E+01  0.2640E+04
     12.973  0.1562E+01  0.2640E+04
     13.025  0.9864E+00  0.2640E+04
     13.076  0.8463E+00  0.2640E+04
     13.128  0.7240E+00  0.2640E+04
     13.180  0.9046E+00  0.2640E+04
     13.232  0.1233E+01  0.2640E+04
     13.284  0.1191E+01  0.2640E+04
     13.336  0.6881E+00  0.2640E+04
     13.388  0.1491E+00  0.2640E+04
     13.439 -0.4765E-01  0.2640E+04
     13.491 -0.3331E-01  0.2640E+04
     13.543 -0.7220E-02  0.2640E+04
     13.595 -0.7620E-03  0.2640E+04
     13.647 -0.4302E-04  0.2640E+04
     13.699 -0.1348E-05  0.2640E+04
     13.751 -0.2387E-07  0.2640E+04
     13.803 -0.2412E-09  0.2640E+04
     13.854 -0.1400E-11  0.2640E+04
     13.906 -0.4756E-14  0.2640E+04
     13.958  0.0000E+00  0.2640E+04
     14.010  0.0000E+00  0.2640E+04
     14.062  0.0000E+00  0.2640E+04
     14.114  0.0000E+00  0.2640E+04
     14.166  0.0000E+00  0.2640E+04
     14.218  0.0000E+00  0.2640E+04
     14.269  0.0000E+00  0.2640E+04
