 256 256   0   0
  0.1419206E+02  0.1537080E-08  0.1537218E-08  0.1537636E-08  0.5000000E-15
  1.000000000000000E-004
  CAR 
 Ir_Ru                                   
     12.68319778     -1.29491136  301      9.24208786      1.00000000
     -1.295  0.0000E+00  0.0000E+00
     -1.248  0.0000E+00  0.0000E+00
     -1.202  0.0000E+00  0.0000E+00
     -1.155  0.0000E+00  0.0000E+00
     -1.109 -0.2739E-28 -0.1276E-29
     -1.062 -0.4084E-25 -0.1904E-26
     -1.015 -0.3928E-22 -0.1832E-23
     -0.969 -0.2438E-19 -0.1138E-20
     -0.922 -0.9765E-17 -0.4561E-18
     -0.876 -0.2449E-14 -0.1145E-15
     -0.829 -0.4061E-12 -0.1904E-13
     -0.782 -0.4337E-10 -0.2040E-11
     -0.736 -0.2985E-08 -0.1411E-09
     -0.689 -0.1325E-06 -0.6313E-08
     -0.643 -0.3797E-05 -0.1832E-06
     -0.596 -0.7047E-04 -0.3467E-05
     -0.549 -0.8495E-03 -0.4305E-04
     -0.503 -0.6653E-02 -0.3530E-03
     -0.456 -0.3345E-01 -0.1912E-02
     -0.410 -0.1018E+00 -0.6656E-02
     -0.363 -0.1379E+00 -0.1308E-01
     -0.316  0.2218E+00 -0.2747E-02
     -0.270  0.1504E+01  0.6733E-01
     -0.223  0.3533E+01  0.2319E+00
     -0.177  0.5068E+01  0.4681E+00
     -0.130  0.5730E+01  0.7350E+00
     -0.083  0.7317E+01  0.1076E+01
     -0.037  0.1019E+02  0.1551E+01
      0.010  0.1103E+02  0.2064E+01
      0.056  0.9158E+01  0.2491E+01
      0.103  0.9373E+01  0.2928E+01
      0.149  0.1313E+02  0.3540E+01
      0.196  0.1591E+02  0.4281E+01
      0.243  0.1605E+02  0.5029E+01
      0.289  0.1673E+02  0.5808E+01
      0.336  0.1849E+02  0.6669E+01
      0.382  0.1834E+02  0.7524E+01
      0.429  0.1742E+02  0.8336E+01
      0.476  0.1976E+02  0.9257E+01
      0.522  0.2334E+02  0.1034E+02
      0.569  0.2406E+02  0.1147E+02
      0.615  0.2230E+02  0.1250E+02
      0.662  0.1876E+02  0.1338E+02
      0.709  0.1412E+02  0.1404E+02
      0.755  0.1115E+02  0.1456E+02
      0.802  0.1071E+02  0.1505E+02
      0.848  0.1114E+02  0.1557E+02
      0.895  0.1216E+02  0.1614E+02
      0.942  0.1463E+02  0.1682E+02
      0.988  0.1830E+02  0.1768E+02
      1.035  0.2282E+02  0.1874E+02
      1.081  0.2801E+02  0.2004E+02
      1.128  0.3123E+02  0.2150E+02
      1.175  0.2978E+02  0.2289E+02
      1.221  0.2595E+02  0.2409E+02
      1.268  0.2309E+02  0.2517E+02
      1.314  0.2097E+02  0.2615E+02
      1.361  0.2001E+02  0.2708E+02
      1.408  0.2158E+02  0.2809E+02
      1.454  0.2404E+02  0.2921E+02
      1.501  0.2565E+02  0.3040E+02
      1.547  0.2891E+02  0.3175E+02
      1.594  0.3502E+02  0.3338E+02
      1.640  0.3871E+02  0.3518E+02
      1.687  0.3785E+02  0.3695E+02
      1.734  0.3917E+02  0.3877E+02
      1.780  0.4540E+02  0.4089E+02
      1.827  0.4933E+02  0.4319E+02
      1.873  0.4788E+02  0.4542E+02
      1.920  0.4728E+02  0.4762E+02
      1.967  0.5082E+02  0.4999E+02
      2.013  0.5405E+02  0.5251E+02
      2.060  0.5541E+02  0.5509E+02
      2.106  0.6119E+02  0.5794E+02
      2.153  0.7428E+02  0.6140E+02
      2.200  0.8912E+02  0.6555E+02
      2.246  0.1029E+03  0.7035E+02
      2.293  0.1176E+03  0.7582E+02
      2.339  0.1308E+03  0.8192E+02
      2.386  0.1382E+03  0.8836E+02
      2.433  0.1432E+03  0.9503E+02
      2.479  0.1523E+03  0.1021E+03
      2.526  0.1610E+03  0.1096E+03
      2.572  0.1618E+03  0.1172E+03
      2.619  0.1613E+03  0.1247E+03
      2.666  0.1688E+03  0.1325E+03
      2.712  0.1783E+03  0.1409E+03
      2.759  0.1846E+03  0.1495E+03
      2.805  0.1974E+03  0.1587E+03
      2.852  0.2224E+03  0.1690E+03
      2.899  0.2473E+03  0.1805E+03
      2.945  0.2564E+03  0.1925E+03
      2.992  0.2500E+03  0.2041E+03
      3.038  0.2468E+03  0.2156E+03
      3.085  0.2617E+03  0.2278E+03
      3.131  0.2861E+03  0.2412E+03
      3.178  0.3010E+03  0.2552E+03
      3.225  0.3037E+03  0.2693E+03
      3.271  0.3049E+03  0.2835E+03
      3.318  0.3084E+03  0.2979E+03
      3.364  0.3111E+03  0.3124E+03
      3.411  0.3144E+03  0.3271E+03
      3.458  0.3216E+03  0.3420E+03
      3.504  0.3332E+03  0.3576E+03
      3.551  0.3439E+03  0.3736E+03
      3.597  0.3470E+03  0.3898E+03
      3.644  0.3451E+03  0.4058E+03
      3.691  0.3487E+03  0.4221E+03
      3.737  0.3576E+03  0.4387E+03
      3.784  0.3594E+03  0.4555E+03
      3.830  0.3524E+03  0.4719E+03
      3.877  0.3479E+03  0.4881E+03
      3.924  0.3497E+03  0.5044E+03
      3.970  0.3507E+03  0.5207E+03
      4.017  0.3418E+03  0.5367E+03
      4.063  0.3233E+03  0.5517E+03
      4.110  0.3070E+03  0.5660E+03
      4.157  0.2977E+03  0.5799E+03
      4.203  0.2876E+03  0.5933E+03
      4.250  0.2716E+03  0.6060E+03
      4.296  0.2539E+03  0.6178E+03
      4.343  0.2428E+03  0.6291E+03
      4.390  0.2451E+03  0.6405E+03
      4.436  0.2576E+03  0.6525E+03
      4.483  0.2618E+03  0.6647E+03
      4.529  0.2508E+03  0.6764E+03
      4.576  0.2474E+03  0.6879E+03
      4.622  0.2666E+03  0.7004E+03
      4.669  0.2917E+03  0.7140E+03
      4.716  0.3069E+03  0.7283E+03
      4.762  0.3138E+03  0.7429E+03
      4.809  0.3137E+03  0.7575E+03
      4.855  0.3051E+03  0.7717E+03
      4.902  0.2904E+03  0.7852E+03
      4.949  0.2786E+03  0.7982E+03
      4.995  0.2810E+03  0.8113E+03
      5.042  0.2950E+03  0.8251E+03
      5.088  0.3078E+03  0.8394E+03
      5.135  0.3094E+03  0.8538E+03
      5.182  0.2980E+03  0.8677E+03
      5.228  0.2858E+03  0.8810E+03
      5.275  0.2844E+03  0.8943E+03
      5.321  0.2902E+03  0.9078E+03
      5.368  0.2971E+03  0.9216E+03
      5.415  0.3017E+03  0.9357E+03
      5.461  0.2987E+03  0.9496E+03
      5.508  0.2888E+03  0.9631E+03
      5.554  0.2864E+03  0.9764E+03
      5.601  0.3021E+03  0.9905E+03
      5.648  0.3213E+03  0.1005E+04
      5.694  0.3254E+03  0.1021E+04
      5.741  0.3204E+03  0.1036E+04
      5.787  0.3199E+03  0.1050E+04
      5.834  0.3261E+03  0.1066E+04
      5.881  0.3364E+03  0.1081E+04
      5.927  0.3497E+03  0.1098E+04
      5.974  0.3649E+03  0.1115E+04
      6.020  0.3787E+03  0.1132E+04
      6.067  0.3854E+03  0.1150E+04
      6.113  0.3875E+03  0.1168E+04
      6.160  0.3916E+03  0.1187E+04
      6.207  0.3985E+03  0.1205E+04
      6.253  0.4093E+03  0.1224E+04
      6.300  0.4268E+03  0.1244E+04
      6.346  0.4461E+03  0.1265E+04
      6.393  0.4571E+03  0.1286E+04
      6.440  0.4571E+03  0.1307E+04
      6.486  0.4532E+03  0.1329E+04
      6.533  0.4500E+03  0.1350E+04
      6.579  0.4457E+03  0.1370E+04
      6.626  0.4393E+03  0.1391E+04
      6.673  0.4319E+03  0.1411E+04
      6.719  0.4249E+03  0.1431E+04
      6.766  0.4173E+03  0.1450E+04
      6.812  0.4023E+03  0.1469E+04
      6.859  0.3776E+03  0.1486E+04
      6.906  0.3549E+03  0.1503E+04
      6.952  0.3445E+03  0.1519E+04
      6.999  0.3394E+03  0.1535E+04
      7.045  0.3280E+03  0.1550E+04
      7.092  0.3149E+03  0.1565E+04
      7.139  0.3133E+03  0.1579E+04
      7.185  0.3192E+03  0.1594E+04
      7.232  0.3137E+03  0.1609E+04
      7.278  0.2883E+03  0.1622E+04
      7.325  0.2566E+03  0.1634E+04
      7.372  0.2403E+03  0.1645E+04
      7.418  0.2483E+03  0.1657E+04
      7.465  0.2706E+03  0.1670E+04
      7.511  0.2845E+03  0.1683E+04
      7.558  0.2768E+03  0.1696E+04
      7.604  0.2589E+03  0.1708E+04
      7.651  0.2484E+03  0.1719E+04
      7.698  0.2567E+03  0.1731E+04
      7.744  0.2821E+03  0.1745E+04
      7.791  0.3050E+03  0.1759E+04
      7.837  0.3120E+03  0.1773E+04
      7.884  0.3090E+03  0.1788E+04
      7.931  0.3033E+03  0.1802E+04
      7.977  0.2962E+03  0.1816E+04
      8.024  0.2911E+03  0.1829E+04
      8.070  0.2955E+03  0.1843E+04
      8.117  0.3089E+03  0.1857E+04
      8.164  0.3169E+03  0.1872E+04
      8.210  0.3176E+03  0.1887E+04
      8.257  0.3292E+03  0.1902E+04
      8.303  0.3530E+03  0.1919E+04
      8.350  0.3624E+03  0.1936E+04
      8.397  0.3408E+03  0.1951E+04
      8.443  0.3011E+03  0.1965E+04
      8.490  0.2677E+03  0.1978E+04
      8.536  0.2557E+03  0.1990E+04
      8.583  0.2702E+03  0.2002E+04
      8.630  0.2949E+03  0.2016E+04
      8.676  0.3004E+03  0.2030E+04
      8.723  0.2846E+03  0.2043E+04
      8.769  0.2679E+03  0.2056E+04
      8.816  0.2572E+03  0.2068E+04
      8.863  0.2493E+03  0.2080E+04
      8.909  0.2453E+03  0.2091E+04
      8.956  0.2453E+03  0.2102E+04
      9.002  0.2529E+03  0.2114E+04
      9.049  0.2727E+03  0.2127E+04
      9.095  0.2841E+03  0.2140E+04
      9.142  0.2669E+03  0.2153E+04
      9.189  0.2414E+03  0.2164E+04
      9.235  0.2285E+03  0.2174E+04
      9.282  0.2202E+03  0.2185E+04
      9.328  0.2139E+03  0.2195E+04
      9.375  0.2214E+03  0.2205E+04
      9.422  0.2417E+03  0.2216E+04
      9.468  0.2617E+03  0.2228E+04
      9.515  0.2734E+03  0.2241E+04
      9.561  0.2773E+03  0.2254E+04
      9.608  0.2763E+03  0.2267E+04
      9.655  0.2712E+03  0.2280E+04
      9.701  0.2614E+03  0.2292E+04
      9.748  0.2445E+03  0.2303E+04
      9.794  0.2248E+03  0.2314E+04
      9.841  0.2193E+03  0.2324E+04
      9.888  0.2357E+03  0.2335E+04
      9.934  0.2631E+03  0.2347E+04
      9.981  0.2939E+03  0.2361E+04
     10.027  0.3261E+03  0.2376E+04
     10.074  0.3486E+03  0.2392E+04
     10.121  0.3468E+03  0.2408E+04
     10.167  0.3247E+03  0.2424E+04
     10.214  0.3102E+03  0.2438E+04
     10.260  0.3277E+03  0.2453E+04
     10.307  0.3844E+03  0.2471E+04
     10.354  0.4635E+03  0.2493E+04
     10.400  0.5176E+03  0.2517E+04
     10.447  0.5105E+03  0.2541E+04
     10.493  0.4533E+03  0.2562E+04
     10.540  0.3770E+03  0.2579E+04
     10.586  0.3048E+03  0.2594E+04
     10.633  0.2501E+03  0.2605E+04
     10.680  0.2137E+03  0.2615E+04
     10.726  0.1821E+03  0.2624E+04
     10.773  0.1435E+03  0.2630E+04
     10.819  0.9875E+02  0.2635E+04
     10.866  0.5740E+02  0.2638E+04
     10.913  0.2761E+02  0.2639E+04
     10.959  0.1057E+02  0.2639E+04
     11.006  0.3303E+01  0.2640E+04
     11.052  0.1811E+01  0.2640E+04
     11.099  0.2123E+01  0.2640E+04
     11.146  0.1784E+01  0.2640E+04
     11.192  0.7334E+00  0.2640E+04
     11.239  0.8400E-02  0.2640E+04
     11.285 -0.1241E+00  0.2640E+04
     11.332 -0.5512E-01  0.2640E+04
     11.379 -0.1204E-01  0.2640E+04
     11.425 -0.3560E-02  0.2640E+04
     11.472 -0.1310E-01  0.2640E+04
     11.518 -0.4229E-01  0.2640E+04
     11.565 -0.3608E-01  0.2640E+04
     11.612  0.1987E+00  0.2640E+04
     11.658  0.7145E+00  0.2640E+04
     11.705  0.1026E+01  0.2640E+04
     11.751  0.7240E+00  0.2640E+04
     11.798  0.2060E+00  0.2640E+04
     11.845 -0.3458E-01  0.2640E+04
     11.891 -0.4286E-01  0.2640E+04
     11.938 -0.1335E-01  0.2640E+04
     11.984 -0.2168E-02  0.2640E+04
     12.031 -0.2065E-03  0.2640E+04
     12.077 -0.1205E-04  0.2640E+04
     12.124 -0.4395E-06  0.2640E+04
     12.171 -0.1013E-07  0.2640E+04
     12.217 -0.1487E-09  0.2640E+04
     12.264 -0.1395E-11  0.2640E+04
     12.310 -0.8340E-14  0.2640E+04
     12.357  0.0000E+00  0.2640E+04
     12.404  0.0000E+00  0.2640E+04
     12.450  0.0000E+00  0.2640E+04
     12.497  0.0000E+00  0.2640E+04
     12.543  0.0000E+00  0.2640E+04
     12.590  0.0000E+00  0.2640E+04
     12.637  0.0000E+00  0.2640E+04
     12.683  0.0000E+00  0.2640E+04
