 256 256   0   0
  0.1418917E+02  0.1588033E-08  0.1692661E-08  0.1693229E-08  0.5000000E-15
  1.000000000000000E-004
  CAR 
 Ir_Ru                                   
     14.27053280     -1.29171868  301      9.45702976      1.00000000
     -1.292  0.0000E+00  0.0000E+00
     -1.240  0.0000E+00  0.0000E+00
     -1.188  0.0000E+00  0.0000E+00
     -1.136 -0.2771E-30 -0.1438E-31
     -1.084 -0.1267E-26 -0.6573E-28
     -1.032 -0.3367E-23 -0.1747E-24
     -0.980 -0.5199E-20 -0.2699E-21
     -0.929 -0.4659E-17 -0.2420E-18
     -0.877 -0.2362E-14 -0.1228E-15
     -0.825 -0.7038E-12 -0.3663E-13
     -0.773 -0.1215E-09 -0.6342E-11
     -0.721 -0.1208E-07 -0.6330E-09
     -0.669 -0.6882E-06 -0.3633E-07
     -0.617 -0.2234E-04 -0.1195E-05
     -0.565 -0.4105E-03 -0.2249E-04
     -0.514 -0.4226E-02 -0.2417E-03
     -0.462 -0.2412E-01 -0.1493E-02
     -0.410 -0.7484E-01 -0.5375E-02
     -0.358 -0.1022E+00 -0.1068E-01
     -0.306  0.2016E+00 -0.2218E-03
     -0.254  0.1625E+01  0.8408E-01
     -0.202  0.4380E+01  0.3113E+00
     -0.150  0.6349E+01  0.6406E+00
     -0.099  0.6423E+01  0.9738E+00
     -0.047  0.6951E+01  0.1334E+01
      0.005  0.8840E+01  0.1793E+01
      0.057  0.1116E+02  0.2372E+01
      0.109  0.1359E+02  0.3077E+01
      0.161  0.1435E+02  0.3821E+01
      0.213  0.1173E+02  0.4430E+01
      0.265  0.1005E+02  0.4951E+01
      0.316  0.1420E+02  0.5688E+01
      0.368  0.2029E+02  0.6740E+01
      0.420  0.2251E+02  0.7908E+01
      0.472  0.2269E+02  0.9085E+01
      0.524  0.2350E+02  0.1030E+02
      0.576  0.2256E+02  0.1147E+02
      0.628  0.2045E+02  0.1254E+02
      0.679  0.2097E+02  0.1362E+02
      0.731  0.2042E+02  0.1468E+02
      0.783  0.1470E+02  0.1545E+02
      0.835  0.8922E+01  0.1591E+02
      0.887  0.7994E+01  0.1632E+02
      0.939  0.1161E+02  0.1692E+02
      0.991  0.1876E+02  0.1790E+02
      1.043  0.2772E+02  0.1934E+02
      1.094  0.3335E+02  0.2107E+02
      1.146  0.3316E+02  0.2279E+02
      1.198  0.2893E+02  0.2429E+02
      1.250  0.2296E+02  0.2548E+02
      1.302  0.1951E+02  0.2649E+02
      1.354  0.2158E+02  0.2761E+02
      1.406  0.2706E+02  0.2901E+02
      1.458  0.3036E+02  0.3059E+02
      1.509  0.2988E+02  0.3214E+02
      1.561  0.2932E+02  0.3366E+02
      1.613  0.3036E+02  0.3523E+02
      1.665  0.3108E+02  0.3685E+02
      1.717  0.3195E+02  0.3850E+02
      1.769  0.3490E+02  0.4031E+02
      1.821  0.3899E+02  0.4234E+02
      1.873  0.4533E+02  0.4469E+02
      1.924  0.5448E+02  0.4751E+02
      1.976  0.5934E+02  0.5059E+02
      2.028  0.5490E+02  0.5344E+02
      2.080  0.5043E+02  0.5606E+02
      2.132  0.6099E+02  0.5922E+02
      2.184  0.8611E+02  0.6369E+02
      2.236  0.1083E+03  0.6931E+02
      2.288  0.1196E+03  0.7551E+02
      2.339  0.1257E+03  0.8203E+02
      2.391  0.1314E+03  0.8885E+02
      2.443  0.1373E+03  0.9597E+02
      2.495  0.1467E+03  0.1036E+03
      2.547  0.1636E+03  0.1121E+03
      2.599  0.1822E+03  0.1215E+03
      2.651  0.1945E+03  0.1316E+03
      2.703  0.2064E+03  0.1423E+03
      2.754  0.2233E+03  0.1539E+03
      2.806  0.2308E+03  0.1659E+03
      2.858  0.2248E+03  0.1775E+03
      2.910  0.2274E+03  0.1893E+03
      2.962  0.2447E+03  0.2020E+03
      3.014  0.2577E+03  0.2154E+03
      3.066  0.2599E+03  0.2289E+03
      3.118  0.2604E+03  0.2424E+03
      3.169  0.2638E+03  0.2561E+03
      3.221  0.2726E+03  0.2702E+03
      3.273  0.2876E+03  0.2851E+03
      3.325  0.3070E+03  0.3011E+03
      3.377  0.3243E+03  0.3179E+03
      3.429  0.3309E+03  0.3350E+03
      3.481  0.3280E+03  0.3521E+03
      3.533  0.3215E+03  0.3687E+03
      3.584  0.3182E+03  0.3852E+03
      3.636  0.3166E+03  0.4017E+03
      3.688  0.3111E+03  0.4178E+03
      3.740  0.3052E+03  0.4336E+03
      3.792  0.3012E+03  0.4493E+03
      3.844  0.2970E+03  0.4647E+03
      3.896  0.2935E+03  0.4799E+03
      3.948  0.2889E+03  0.4949E+03
      3.999  0.2767E+03  0.5092E+03
      4.051  0.2666E+03  0.5231E+03
      4.103  0.2749E+03  0.5373E+03
      4.155  0.2934E+03  0.5525E+03
      4.207  0.3026E+03  0.5682E+03
      4.259  0.3050E+03  0.5841E+03
      4.311  0.3118E+03  0.6002E+03
      4.363  0.3186E+03  0.6168E+03
      4.414  0.3213E+03  0.6334E+03
      4.466  0.3237E+03  0.6502E+03
      4.518  0.3213E+03  0.6669E+03
      4.570  0.3101E+03  0.6830E+03
      4.622  0.2976E+03  0.6984E+03
      4.674  0.2935E+03  0.7136E+03
      4.726  0.2980E+03  0.7291E+03
      4.778  0.3056E+03  0.7449E+03
      4.829  0.3174E+03  0.7614E+03
      4.881  0.3310E+03  0.7786E+03
      4.933  0.3374E+03  0.7961E+03
      4.985  0.3445E+03  0.8140E+03
      5.037  0.3577E+03  0.8325E+03
      5.089  0.3656E+03  0.8515E+03
      5.141  0.3645E+03  0.8704E+03
      5.193  0.3557E+03  0.8888E+03
      5.244  0.3358E+03  0.9063E+03
      5.296  0.3038E+03  0.9220E+03
      5.348  0.2631E+03  0.9357E+03
      5.400  0.2198E+03  0.9471E+03
      5.452  0.1853E+03  0.9567E+03
      5.504  0.1725E+03  0.9656E+03
      5.556  0.1881E+03  0.9754E+03
      5.608  0.2256E+03  0.9871E+03
      5.659  0.2737E+03  0.1001E+04
      5.711  0.3238E+03  0.1018E+04
      5.763  0.3662E+03  0.1037E+04
      5.815  0.3943E+03  0.1058E+04
      5.867  0.4100E+03  0.1079E+04
      5.919  0.4189E+03  0.1101E+04
      5.971  0.4254E+03  0.1123E+04
      6.023  0.4282E+03  0.1145E+04
      6.074  0.4171E+03  0.1166E+04
      6.126  0.3930E+03  0.1187E+04
      6.178  0.3726E+03  0.1206E+04
      6.230  0.3617E+03  0.1225E+04
      6.282  0.3557E+03  0.1243E+04
      6.334  0.3561E+03  0.1262E+04
      6.386  0.3683E+03  0.1281E+04
      6.438  0.3815E+03  0.1301E+04
      6.489  0.3841E+03  0.1321E+04
      6.541  0.3909E+03  0.1341E+04
      6.593  0.4091E+03  0.1362E+04
      6.645  0.4237E+03  0.1384E+04
      6.697  0.4282E+03  0.1406E+04
      6.749  0.4257E+03  0.1428E+04
      6.801  0.4142E+03  0.1450E+04
      6.853  0.3933E+03  0.1470E+04
      6.904  0.3741E+03  0.1490E+04
      6.956  0.3667E+03  0.1509E+04
      7.008  0.3636E+03  0.1528E+04
      7.060  0.3672E+03  0.1547E+04
      7.112  0.3897E+03  0.1567E+04
      7.164  0.4141E+03  0.1588E+04
      7.216  0.4223E+03  0.1610E+04
      7.268  0.4224E+03  0.1632E+04
      7.319  0.4142E+03  0.1654E+04
      7.371  0.3897E+03  0.1674E+04
      7.423  0.3604E+03  0.1693E+04
      7.475  0.3410E+03  0.1710E+04
      7.527  0.3328E+03  0.1728E+04
      7.579  0.3291E+03  0.1745E+04
      7.631  0.3180E+03  0.1761E+04
      7.683  0.2969E+03  0.1776E+04
      7.734  0.2781E+03  0.1791E+04
      7.786  0.2690E+03  0.1805E+04
      7.838  0.2640E+03  0.1819E+04
      7.890  0.2581E+03  0.1832E+04
      7.942  0.2490E+03  0.1845E+04
      7.994  0.2428E+03  0.1857E+04
      8.046  0.2431E+03  0.1870E+04
      8.098  0.2397E+03  0.1882E+04
      8.149  0.2318E+03  0.1895E+04
      8.201  0.2289E+03  0.1906E+04
      8.253  0.2330E+03  0.1918E+04
      8.305  0.2376E+03  0.1931E+04
      8.357  0.2391E+03  0.1943E+04
      8.409  0.2372E+03  0.1956E+04
      8.461  0.2294E+03  0.1967E+04
      8.512  0.2190E+03  0.1979E+04
      8.564  0.2124E+03  0.1990E+04
      8.616  0.2075E+03  0.2001E+04
      8.668  0.2003E+03  0.2011E+04
      8.720  0.1919E+03  0.2021E+04
      8.772  0.1836E+03  0.2030E+04
      8.824  0.1794E+03  0.2040E+04
      8.876  0.1871E+03  0.2049E+04
      8.927  0.2112E+03  0.2060E+04
      8.979  0.2345E+03  0.2073E+04
      9.031  0.2369E+03  0.2085E+04
      9.083  0.2245E+03  0.2096E+04
      9.135  0.2077E+03  0.2107E+04
      9.187  0.1882E+03  0.2117E+04
      9.239  0.1786E+03  0.2126E+04
      9.291  0.1954E+03  0.2136E+04
      9.342  0.2266E+03  0.2148E+04
      9.394  0.2427E+03  0.2161E+04
      9.446  0.2429E+03  0.2173E+04
      9.498  0.2447E+03  0.2186E+04
      9.550  0.2446E+03  0.2199E+04
      9.602  0.2455E+03  0.2211E+04
      9.654  0.2716E+03  0.2226E+04
      9.706  0.3149E+03  0.2242E+04
      9.757  0.3355E+03  0.2259E+04
      9.809  0.3273E+03  0.2276E+04
      9.861  0.3170E+03  0.2293E+04
      9.913  0.3151E+03  0.2309E+04
      9.965  0.3208E+03  0.2326E+04
     10.017  0.3409E+03  0.2343E+04
     10.069  0.3771E+03  0.2363E+04
     10.121  0.4111E+03  0.2384E+04
     10.172  0.4277E+03  0.2406E+04
     10.224  0.4355E+03  0.2429E+04
     10.276  0.4476E+03  0.2452E+04
     10.328  0.4659E+03  0.2476E+04
     10.380  0.4849E+03  0.2502E+04
     10.432  0.4969E+03  0.2527E+04
     10.484  0.4913E+03  0.2553E+04
     10.536  0.4561E+03  0.2577E+04
     10.587  0.3964E+03  0.2597E+04
     10.639  0.3276E+03  0.2614E+04
     10.691  0.2454E+03  0.2627E+04
     10.743  0.1456E+03  0.2634E+04
     10.795  0.5478E+02  0.2637E+04
     10.847  0.5234E+01  0.2637E+04
     10.899 -0.5681E+01  0.2637E+04
     10.951 -0.2956E+01  0.2637E+04
     11.002 -0.6854E+00  0.2637E+04
     11.054 -0.9317E-01  0.2637E+04
     11.106 -0.8282E-02  0.2637E+04
     11.158 -0.5038E-03  0.2637E+04
     11.210 -0.2052E-04  0.2637E+04
     11.262 -0.5303E-06  0.2637E+04
     11.314 -0.8310E-08  0.2637E+04
     11.366 -0.7696E-10  0.2637E+04
     11.417 -0.4201E-12  0.2637E+04
     11.469 -0.1668E-11  0.2637E+04
     11.521 -0.3124E-09  0.2637E+04
     11.573 -0.3372E-07  0.2637E+04
     11.625 -0.2083E-05  0.2637E+04
     11.677 -0.7298E-04  0.2637E+04
     11.729 -0.1425E-02  0.2637E+04
     11.781 -0.1497E-01  0.2637E+04
     11.832 -0.7729E-01  0.2637E+04
     11.884 -0.1303E+00  0.2637E+04
     11.936  0.3615E+00  0.2637E+04
     11.988  0.1790E+01  0.2637E+04
     12.040  0.2644E+01  0.2637E+04
     12.092  0.1615E+01  0.2637E+04
     12.144  0.5569E+00  0.2637E+04
     12.196  0.1180E+01  0.2637E+04
     12.247  0.2750E+01  0.2638E+04
     12.299  0.3679E+01  0.2638E+04
     12.351  0.3500E+01  0.2638E+04
     12.403  0.3211E+01  0.2638E+04
     12.455  0.2972E+01  0.2638E+04
     12.507  0.2345E+01  0.2638E+04
     12.559  0.2114E+01  0.2638E+04
     12.611  0.2685E+01  0.2639E+04
     12.662  0.3271E+01  0.2639E+04
     12.714  0.3493E+01  0.2639E+04
     12.766  0.3276E+01  0.2639E+04
     12.818  0.2817E+01  0.2639E+04
     12.870  0.2674E+01  0.2639E+04
     12.922  0.2481E+01  0.2640E+04
     12.974  0.1698E+01  0.2640E+04
     13.026  0.1098E+01  0.2640E+04
     13.077  0.1099E+01  0.2640E+04
     13.129  0.1173E+01  0.2640E+04
     13.181  0.1026E+01  0.2640E+04
     13.233  0.8948E+00  0.2640E+04
     13.285  0.9143E+00  0.2640E+04
     13.337  0.6468E+00  0.2640E+04
     13.389  0.1711E+00  0.2640E+04
     13.441 -0.3867E-01  0.2640E+04
     13.492 -0.3204E-01  0.2640E+04
     13.544 -0.7138E-02  0.2640E+04
     13.596 -0.7599E-03  0.2640E+04
     13.648 -0.4305E-04  0.2640E+04
     13.700 -0.1351E-05  0.2640E+04
     13.752 -0.2393E-07  0.2640E+04
     13.804 -0.2419E-09  0.2640E+04
     13.856 -0.1404E-11  0.2640E+04
     13.907 -0.4756E-14  0.2640E+04
     13.959  0.0000E+00  0.2640E+04
     14.011  0.0000E+00  0.2640E+04
     14.063  0.0000E+00  0.2640E+04
     14.115  0.0000E+00  0.2640E+04
     14.167  0.0000E+00  0.2640E+04
     14.219  0.0000E+00  0.2640E+04
     14.271  0.0000E+00  0.2640E+04
