       N       E                     dE             d eps       ncg     rms          rms(c)
RMM:   1     0.136791100190E+05    0.13679E+05   -0.47218E+05 25080   0.725E+02
RMM:   2     0.131338331424E+04   -0.12366E+05   -0.13120E+05 25080   0.260E+02
RMM:   3    -0.104567457835E+04   -0.23591E+04   -0.22856E+04 25080   0.111E+02
RMM:   4    -0.184599386232E+04   -0.80032E+03   -0.57408E+03 25080   0.768E+01
RMM:   5    -0.212911230747E+04   -0.28312E+03   -0.24896E+03 25080   0.451E+01
RMM:   6    -0.227483110374E+04   -0.14572E+03   -0.12952E+03 25080   0.349E+01
RMM:   7    -0.235269246610E+04   -0.77861E+02   -0.73852E+02 25080   0.235E+01
RMM:   8    -0.240018939611E+04   -0.47497E+02   -0.44556E+02 25080   0.195E+01
RMM:   9    -0.247908111711E+04   -0.78892E+02   -0.77971E+02 71876   0.137E+01
RMM:  10    -0.248863771119E+04   -0.95566E+01   -0.11979E+02 79671   0.283E+00
RMM:  11    -0.249087683581E+04   -0.22391E+01   -0.17833E+01 77270   0.686E-01
RMM:  12    -0.249118371144E+04   -0.30688E+00   -0.19881E+00 79555   0.198E-01    0.782E+01
RMM:  13    -0.241362551175E+04    0.77558E+02   -0.68478E+02 57175   0.246E+01    0.583E+01
RMM:  14    -0.236777854363E+04    0.45847E+02   -0.34126E+02 51435   0.174E+01    0.416E+01
RMM:  15    -0.233563229180E+04    0.32146E+02   -0.11845E+02 53324   0.101E+01    0.255E+01
RMM:  16    -0.232135339833E+04    0.14279E+02   -0.25832E+01 56046   0.434E+00    0.454E+00
RMM:  17    -0.232158247664E+04   -0.22908E+00   -0.65073E+00 74002   0.128E+00    0.458E+00
RMM:  18    -0.232114204614E+04    0.44043E+00   -0.11714E+00 64556   0.702E-01    0.339E+00
RMM:  19    -0.232075061957E+04    0.39143E+00   -0.69095E-01 59254   0.795E-01    0.166E+00
RMM:  20    -0.232070307405E+04    0.47546E-01   -0.24819E-01 64363   0.347E-01    0.160E+00
RMM:  21    -0.232066092923E+04    0.42145E-01   -0.11488E-01 62716   0.240E-01    0.123E+00
RMM:  22    -0.232063653469E+04    0.24395E-01   -0.50807E-02 61627   0.161E-01    0.765E-01
RMM:  23    -0.232062940764E+04    0.71271E-02   -0.14659E-02 66778   0.731E-02    0.487E-01
RMM:  24    -0.232062603920E+04    0.33684E-02   -0.10234E-02 62217   0.749E-02    0.257E-01
RMM:  25    -0.232062663834E+04   -0.59914E-03   -0.11752E-02 66794   0.732E-02    0.246E-01
RMM:  26    -0.232062699228E+04   -0.35394E-03   -0.39787E-03 72154   0.356E-02    0.260E-01
RMM:  27    -0.232062618961E+04    0.80266E-03   -0.65437E-04 60422   0.191E-02    0.182E-01
RMM:  28    -0.232062563030E+04    0.55931E-03   -0.79763E-04 62762   0.209E-02    0.904E-02
RMM:  29    -0.232062547177E+04    0.15853E-03   -0.66424E-04 68380   0.174E-02    0.288E-02
RMM:  30    -0.232062545640E+04    0.15363E-04   -0.13782E-04 72570   0.641E-03
   1 F= -.23206255E+04 E0= -.23206255E+04  d E =0.677513E-04
