 256 256   0   0
  0.1418917E+02  0.1588033E-08  0.1692661E-08  0.1693229E-08  0.5000000E-15
  1.000000000000000E-004
  CAR 
 Ir_Ru                                   
     14.27919238     -1.29225329  301      9.45702453      1.00000000
     -1.292  0.0000E+00  0.0000E+00
     -1.240  0.0000E+00  0.0000E+00
     -1.188  0.0000E+00  0.0000E+00
     -1.137 -0.2813E-30 -0.1460E-31
     -1.085 -0.1291E-26 -0.6701E-28
     -1.033 -0.3442E-23 -0.1787E-24
     -0.981 -0.5328E-20 -0.2767E-21
     -0.929 -0.4784E-17 -0.2486E-18
     -0.877 -0.2430E-14 -0.1264E-15
     -0.825 -0.7240E-12 -0.3771E-13
     -0.773 -0.1250E-09 -0.6527E-11
     -0.721 -0.1242E-07 -0.6510E-09
     -0.669 -0.7064E-06 -0.3732E-07
     -0.617 -0.2289E-04 -0.1225E-05
     -0.566 -0.4193E-03 -0.2299E-04
     -0.514 -0.4301E-02 -0.2462E-03
     -0.462 -0.2445E-01 -0.1515E-02
     -0.410 -0.7546E-01 -0.5432E-02
     -0.358 -0.1018E+00 -0.1071E-01
     -0.306  0.2094E+00  0.1569E-03
     -0.254  0.1652E+01  0.8591E-01
     -0.202  0.4416E+01  0.3151E+00
     -0.150  0.6360E+01  0.6452E+00
     -0.098  0.6423E+01  0.9786E+00
     -0.047  0.6974E+01  0.1341E+01
      0.005  0.8878E+01  0.1801E+01
      0.057  0.1120E+02  0.2383E+01
      0.109  0.1363E+02  0.3090E+01
      0.161  0.1433E+02  0.3834E+01
      0.213  0.1167E+02  0.4440E+01
      0.265  0.1009E+02  0.4964E+01
      0.317  0.1435E+02  0.5709E+01
      0.369  0.2041E+02  0.6768E+01
      0.421  0.2254E+02  0.7938E+01
      0.473  0.2273E+02  0.9118E+01
      0.524  0.2353E+02  0.1034E+02
      0.576  0.2251E+02  0.1151E+02
      0.628  0.2046E+02  0.1257E+02
      0.680  0.2104E+02  0.1366E+02
      0.732  0.2031E+02  0.1472E+02
      0.784  0.1445E+02  0.1547E+02
      0.836  0.8757E+01  0.1592E+02
      0.888  0.7971E+01  0.1633E+02
      0.940  0.1171E+02  0.1694E+02
      0.992  0.1897E+02  0.1793E+02
      1.043  0.2791E+02  0.1938E+02
      1.095  0.3340E+02  0.2111E+02
      1.147  0.3312E+02  0.2283E+02
      1.199  0.2880E+02  0.2432E+02
      1.251  0.2275E+02  0.2550E+02
      1.303  0.1944E+02  0.2651E+02
      1.355  0.2173E+02  0.2764E+02
      1.407  0.2723E+02  0.2905E+02
      1.459  0.3034E+02  0.3063E+02
      1.511  0.2982E+02  0.3218E+02
      1.563  0.2933E+02  0.3370E+02
      1.614  0.3037E+02  0.3528E+02
      1.666  0.3110E+02  0.3689E+02
      1.718  0.3205E+02  0.3855E+02
      1.770  0.3504E+02  0.4037E+02
      1.822  0.3915E+02  0.4240E+02
      1.874  0.4560E+02  0.4477E+02
      1.926  0.5478E+02  0.4761E+02
      1.978  0.5936E+02  0.5070E+02
      2.030  0.5472E+02  0.5354E+02
      2.082  0.5064E+02  0.5616E+02
      2.133  0.6195E+02  0.5938E+02
      2.185  0.8721E+02  0.6391E+02
      2.237  0.1088E+03  0.6956E+02
      2.289  0.1197E+03  0.7577E+02
      2.341  0.1257E+03  0.8230E+02
      2.393  0.1314E+03  0.8912E+02
      2.445  0.1374E+03  0.9625E+02
      2.497  0.1472E+03  0.1039E+03
      2.549  0.1646E+03  0.1124E+03
      2.601  0.1831E+03  0.1219E+03
      2.653  0.1951E+03  0.1321E+03
      2.704  0.2071E+03  0.1428E+03
      2.756  0.2240E+03  0.1544E+03
      2.808  0.2307E+03  0.1664E+03
      2.860  0.2244E+03  0.1781E+03
      2.912  0.2278E+03  0.1899E+03
      2.964  0.2455E+03  0.2026E+03
      3.016  0.2580E+03  0.2160E+03
      3.068  0.2598E+03  0.2295E+03
      3.120  0.2601E+03  0.2430E+03
      3.172  0.2636E+03  0.2567E+03
      3.223  0.2727E+03  0.2708E+03
      3.275  0.2879E+03  0.2858E+03
      3.327  0.3072E+03  0.3017E+03
      3.379  0.3243E+03  0.3186E+03
      3.431  0.3309E+03  0.3357E+03
      3.483  0.3280E+03  0.3528E+03
      3.535  0.3216E+03  0.3695E+03
      3.587  0.3184E+03  0.3860E+03
      3.639  0.3165E+03  0.4024E+03
      3.691  0.3108E+03  0.4185E+03
      3.743  0.3049E+03  0.4344E+03
      3.794  0.3009E+03  0.4500E+03
      3.846  0.2967E+03  0.4654E+03
      3.898  0.2932E+03  0.4806E+03
      3.950  0.2884E+03  0.4956E+03
      4.002  0.2759E+03  0.5099E+03
      4.054  0.2665E+03  0.5237E+03
      4.106  0.2760E+03  0.5381E+03
      4.158  0.2946E+03  0.5534E+03
      4.210  0.3030E+03  0.5691E+03
      4.262  0.3053E+03  0.5849E+03
      4.313  0.3122E+03  0.6011E+03
      4.365  0.3187E+03  0.6177E+03
      4.417  0.3213E+03  0.6344E+03
      4.469  0.3239E+03  0.6512E+03
      4.521  0.3211E+03  0.6678E+03
      4.573  0.3093E+03  0.6839E+03
      4.625  0.2969E+03  0.6993E+03
      4.677  0.2934E+03  0.7145E+03
      4.729  0.2983E+03  0.7300E+03
      4.781  0.3061E+03  0.7459E+03
      4.833  0.3181E+03  0.7624E+03
      4.884  0.3315E+03  0.7796E+03
      4.936  0.3377E+03  0.7971E+03
      4.988  0.3453E+03  0.8151E+03
      5.040  0.3585E+03  0.8337E+03
      5.092  0.3656E+03  0.8526E+03
      5.144  0.3639E+03  0.8715E+03
      5.196  0.3545E+03  0.8899E+03
      5.248  0.3340E+03  0.9073E+03
      5.300  0.3016E+03  0.9229E+03
      5.352  0.2605E+03  0.9364E+03
      5.403  0.2174E+03  0.9477E+03
      5.455  0.1839E+03  0.9573E+03
      5.507  0.1728E+03  0.9662E+03
      5.559  0.1901E+03  0.9761E+03
      5.611  0.2287E+03  0.9880E+03
      5.663  0.2771E+03  0.1002E+04
      5.715  0.3269E+03  0.1019E+04
      5.767  0.3684E+03  0.1038E+04
      5.819  0.3956E+03  0.1059E+04
      5.871  0.4106E+03  0.1080E+04
      5.923  0.4195E+03  0.1102E+04
      5.974  0.4262E+03  0.1124E+04
      6.026  0.4283E+03  0.1146E+04
      6.078  0.4158E+03  0.1168E+04
      6.130  0.3912E+03  0.1188E+04
      6.182  0.3714E+03  0.1208E+04
      6.234  0.3608E+03  0.1226E+04
      6.286  0.3552E+03  0.1245E+04
      6.338  0.3566E+03  0.1263E+04
      6.390  0.3697E+03  0.1282E+04
      6.442  0.3821E+03  0.1302E+04
      6.493  0.3843E+03  0.1322E+04
      6.545  0.3920E+03  0.1343E+04
      6.597  0.4104E+03  0.1364E+04
      6.649  0.4241E+03  0.1386E+04
      6.701  0.4280E+03  0.1408E+04
      6.753  0.4249E+03  0.1430E+04
      6.805  0.4127E+03  0.1452E+04
      6.857  0.3914E+03  0.1472E+04
      6.909  0.3731E+03  0.1491E+04
      6.961  0.3665E+03  0.1510E+04
      7.013  0.3636E+03  0.1529E+04
      7.064  0.3684E+03  0.1548E+04
      7.116  0.3920E+03  0.1569E+04
      7.168  0.4153E+03  0.1590E+04
      7.220  0.4225E+03  0.1612E+04
      7.272  0.4224E+03  0.1634E+04
      7.324  0.4129E+03  0.1655E+04
      7.376  0.3871E+03  0.1676E+04
      7.428  0.3580E+03  0.1694E+04
      7.480  0.3397E+03  0.1712E+04
      7.532  0.3325E+03  0.1729E+04
      7.583  0.3285E+03  0.1746E+04
      7.635  0.3165E+03  0.1763E+04
      7.687  0.2951E+03  0.1778E+04
      7.739  0.2771E+03  0.1792E+04
      7.791  0.2684E+03  0.1806E+04
      7.843  0.2634E+03  0.1820E+04
      7.895  0.2572E+03  0.1833E+04
      7.947  0.2481E+03  0.1846E+04
      7.999  0.2428E+03  0.1859E+04
      8.051  0.2432E+03  0.1871E+04
      8.103  0.2389E+03  0.1884E+04
      8.154  0.2311E+03  0.1896E+04
      8.206  0.2291E+03  0.1908E+04
      8.258  0.2336E+03  0.1920E+04
      8.310  0.2379E+03  0.1932E+04
      8.362  0.2391E+03  0.1944E+04
      8.414  0.2367E+03  0.1957E+04
      8.466  0.2284E+03  0.1969E+04
      8.518  0.2182E+03  0.1980E+04
      8.570  0.2119E+03  0.1991E+04
      8.622  0.2068E+03  0.2002E+04
      8.673  0.1994E+03  0.2012E+04
      8.725  0.1910E+03  0.2022E+04
      8.777  0.1829E+03  0.2031E+04
      8.829  0.1796E+03  0.2041E+04
      8.881  0.1889E+03  0.2051E+04
      8.933  0.2140E+03  0.2062E+04
      8.985  0.2358E+03  0.2074E+04
      9.037  0.2360E+03  0.2086E+04
      9.089  0.2229E+03  0.2098E+04
      9.141  0.2058E+03  0.2108E+04
      9.193  0.1864E+03  0.2118E+04
      9.244  0.1792E+03  0.2127E+04
      9.296  0.1986E+03  0.2138E+04
      9.348  0.2294E+03  0.2150E+04
      9.400  0.2431E+03  0.2162E+04
      9.452  0.2429E+03  0.2175E+04
      9.504  0.2451E+03  0.2188E+04
      9.556  0.2443E+03  0.2200E+04
      9.608  0.2469E+03  0.2213E+04
      9.660  0.2763E+03  0.2227E+04
      9.712  0.3189E+03  0.2244E+04
      9.763  0.3356E+03  0.2261E+04
      9.815  0.3259E+03  0.2278E+04
      9.867  0.3164E+03  0.2295E+04
      9.919  0.3153E+03  0.2311E+04
      9.971  0.3222E+03  0.2328E+04
     10.023  0.3446E+03  0.2346E+04
     10.075  0.3817E+03  0.2365E+04
     10.127  0.4139E+03  0.2387E+04
     10.179  0.4288E+03  0.2409E+04
     10.231  0.4368E+03  0.2432E+04
     10.283  0.4496E+03  0.2455E+04
     10.334  0.4682E+03  0.2479E+04
     10.386  0.4869E+03  0.2505E+04
     10.438  0.4975E+03  0.2531E+04
     10.490  0.4889E+03  0.2556E+04
     10.542  0.4496E+03  0.2579E+04
     10.594  0.3881E+03  0.2599E+04
     10.646  0.3186E+03  0.2616E+04
     10.698  0.2340E+03  0.2628E+04
     10.750  0.1331E+03  0.2635E+04
     10.802  0.4608E+02  0.2637E+04
     10.853  0.2429E+01  0.2638E+04
     10.905 -0.5469E+01  0.2637E+04
     10.957 -0.2512E+01  0.2637E+04
     11.009 -0.5536E+00  0.2637E+04
     11.061 -0.7613E-01  0.2637E+04
     11.113 -0.7424E-02  0.2637E+04
     11.165 -0.5213E-03  0.2637E+04
     11.217 -0.2438E-04  0.2637E+04
     11.269 -0.7026E-06  0.2637E+04
     11.321 -0.1196E-07  0.2637E+04
     11.373 -0.1184E-09  0.2637E+04
     11.424 -0.7876E-12  0.2637E+04
     11.476 -0.2474E-10  0.2637E+04
     11.528 -0.3214E-08  0.2637E+04
     11.580 -0.2405E-06  0.2637E+04
     11.632 -0.1031E-04  0.2637E+04
     11.684 -0.2512E-03  0.2637E+04
     11.736 -0.3415E-02  0.2637E+04
     11.788 -0.2488E-01  0.2637E+04
     11.840 -0.8507E-01  0.2637E+04
     11.892 -0.4134E-01  0.2637E+04
     11.943  0.5807E+00  0.2637E+04
     11.995  0.1797E+01  0.2637E+04
     12.047  0.2386E+01  0.2637E+04
     12.099  0.1752E+01  0.2637E+04
     12.151  0.1036E+01  0.2637E+04
     12.203  0.1015E+01  0.2638E+04
     12.255  0.1801E+01  0.2638E+04
     12.307  0.3082E+01  0.2638E+04
     12.359  0.3621E+01  0.2638E+04
     12.411  0.2955E+01  0.2638E+04
     12.463  0.2110E+01  0.2638E+04
     12.514  0.1899E+01  0.2638E+04
     12.566  0.2195E+01  0.2638E+04
     12.618  0.2690E+01  0.2639E+04
     12.670  0.3734E+01  0.2639E+04
     12.722  0.4601E+01  0.2639E+04
     12.774  0.3718E+01  0.2639E+04
     12.826  0.2389E+01  0.2639E+04
     12.878  0.2189E+01  0.2639E+04
     12.930  0.2077E+01  0.2640E+04
     12.982  0.1503E+01  0.2640E+04
     13.033  0.1095E+01  0.2640E+04
     13.085  0.8836E+00  0.2640E+04
     13.137  0.7412E+00  0.2640E+04
     13.189  0.9189E+00  0.2640E+04
     13.241  0.1171E+01  0.2640E+04
     13.293  0.1122E+01  0.2640E+04
     13.345  0.6767E+00  0.2640E+04
     13.397  0.1582E+00  0.2640E+04
     13.449 -0.4425E-01  0.2640E+04
     13.501 -0.3318E-01  0.2640E+04
     13.553 -0.7312E-02  0.2640E+04
     13.604 -0.7779E-03  0.2640E+04
     13.656 -0.4413E-04  0.2640E+04
     13.708 -0.1387E-05  0.2640E+04
     13.760 -0.2460E-07  0.2640E+04
     13.812 -0.2488E-09  0.2640E+04
     13.864 -0.1445E-11  0.2640E+04
     13.916 -0.4753E-14  0.2640E+04
     13.968  0.0000E+00  0.2640E+04
     14.020  0.0000E+00  0.2640E+04
     14.072  0.0000E+00  0.2640E+04
     14.123  0.0000E+00  0.2640E+04
     14.175  0.0000E+00  0.2640E+04
     14.227  0.0000E+00  0.2640E+04
     14.279  0.0000E+00  0.2640E+04
