 256 256   0   0
  0.1418917E+02  0.1588033E-08  0.1692661E-08  0.1693229E-08  0.5000000E-15
  1.000000000000000E-004
  CAR 
 Ir_Ru                                   
     14.27207555     -1.29184250  301      9.45683075      1.00000000
     -1.292  0.0000E+00  0.0000E+00
     -1.240  0.0000E+00  0.0000E+00
     -1.188  0.0000E+00  0.0000E+00
     -1.136 -0.2779E-30 -0.1442E-31
     -1.084 -0.1271E-26 -0.6596E-28
     -1.032 -0.3381E-23 -0.1755E-24
     -0.981 -0.5222E-20 -0.2711E-21
     -0.929 -0.4682E-17 -0.2432E-18
     -0.877 -0.2374E-14 -0.1234E-15
     -0.825 -0.7074E-12 -0.3682E-13
     -0.773 -0.1222E-09 -0.6375E-11
     -0.721 -0.1214E-07 -0.6362E-09
     -0.669 -0.6914E-06 -0.3651E-07
     -0.617 -0.2244E-04 -0.1201E-05
     -0.566 -0.4121E-03 -0.2258E-04
     -0.514 -0.4239E-02 -0.2425E-03
     -0.462 -0.2418E-01 -0.1497E-02
     -0.410 -0.7495E-01 -0.5385E-02
     -0.358 -0.1021E+00 -0.1068E-01
     -0.306  0.2030E+00 -0.1544E-03
     -0.254  0.1630E+01  0.8441E-01
     -0.202  0.4386E+01  0.3120E+00
     -0.150  0.6350E+01  0.6414E+00
     -0.099  0.6423E+01  0.9746E+00
     -0.047  0.6954E+01  0.1335E+01
      0.005  0.8846E+01  0.1794E+01
      0.057  0.1116E+02  0.2374E+01
      0.109  0.1360E+02  0.3079E+01
      0.161  0.1435E+02  0.3823E+01
      0.213  0.1172E+02  0.4431E+01
      0.265  0.1006E+02  0.4953E+01
      0.316  0.1422E+02  0.5691E+01
      0.368  0.2030E+02  0.6744E+01
      0.420  0.2249E+02  0.7911E+01
      0.472  0.2267E+02  0.9087E+01
      0.524  0.2348E+02  0.1031E+02
      0.576  0.2253E+02  0.1147E+02
      0.628  0.2042E+02  0.1253E+02
      0.680  0.2095E+02  0.1362E+02
      0.731  0.2043E+02  0.1468E+02
      0.783  0.1472E+02  0.1544E+02
      0.835  0.8971E+01  0.1591E+02
      0.887  0.8109E+01  0.1633E+02
      0.939  0.1176E+02  0.1694E+02
      0.991  0.1890E+02  0.1792E+02
      1.043  0.2781E+02  0.1936E+02
      1.095  0.3336E+02  0.2109E+02
      1.147  0.3309E+02  0.2281E+02
      1.198  0.2880E+02  0.2430E+02
      1.250  0.2283E+02  0.2549E+02
      1.302  0.1950E+02  0.2650E+02
      1.354  0.2166E+02  0.2762E+02
      1.406  0.2711E+02  0.2903E+02
      1.458  0.3033E+02  0.3060E+02
      1.510  0.2984E+02  0.3215E+02
      1.562  0.2931E+02  0.3367E+02
      1.613  0.3037E+02  0.3525E+02
      1.665  0.3111E+02  0.3686E+02
      1.717  0.3199E+02  0.3852E+02
      1.769  0.3489E+02  0.4033E+02
      1.821  0.3897E+02  0.4235E+02
      1.873  0.4533E+02  0.4471E+02
      1.925  0.5447E+02  0.4753E+02
      1.977  0.5931E+02  0.5061E+02
      2.028  0.5487E+02  0.5345E+02
      2.080  0.5041E+02  0.5607E+02
      2.132  0.6101E+02  0.5924E+02
      2.184  0.8617E+02  0.6371E+02
      2.236  0.1084E+03  0.6933E+02
      2.288  0.1197E+03  0.7554E+02
      2.340  0.1259E+03  0.8207E+02
      2.392  0.1316E+03  0.8889E+02
      2.443  0.1375E+03  0.9603E+02
      2.495  0.1470E+03  0.1037E+03
      2.547  0.1639E+03  0.1122E+03
      2.599  0.1825E+03  0.1216E+03
      2.651  0.1946E+03  0.1317E+03
      2.703  0.2063E+03  0.1424E+03
      2.755  0.2232E+03  0.1540E+03
      2.807  0.2309E+03  0.1660E+03
      2.859  0.2249E+03  0.1777E+03
      2.910  0.2275E+03  0.1895E+03
      2.962  0.2448E+03  0.2022E+03
      3.014  0.2579E+03  0.2155E+03
      3.066  0.2603E+03  0.2290E+03
      3.118  0.2608E+03  0.2426E+03
      3.170  0.2640E+03  0.2563E+03
      3.222  0.2727E+03  0.2704E+03
      3.274  0.2875E+03  0.2853E+03
      3.325  0.3067E+03  0.3012E+03
      3.377  0.3239E+03  0.3180E+03
      3.429  0.3307E+03  0.3352E+03
      3.481  0.3279E+03  0.3522E+03
      3.533  0.3214E+03  0.3689E+03
      3.585  0.3180E+03  0.3854E+03
      3.637  0.3165E+03  0.4018E+03
      3.689  0.3112E+03  0.4180E+03
      3.740  0.3052E+03  0.4338E+03
      3.792  0.3012E+03  0.4494E+03
      3.844  0.2970E+03  0.4648E+03
      3.896  0.2934E+03  0.4800E+03
      3.948  0.2888E+03  0.4950E+03
      4.000  0.2765E+03  0.5094E+03
      4.052  0.2665E+03  0.5232E+03
      4.104  0.2752E+03  0.5375E+03
      4.156  0.2938E+03  0.5527E+03
      4.207  0.3027E+03  0.5684E+03
      4.259  0.3050E+03  0.5842E+03
      4.311  0.3118E+03  0.6004E+03
      4.363  0.3185E+03  0.6169E+03
      4.415  0.3212E+03  0.6336E+03
      4.467  0.3236E+03  0.6504E+03
      4.519  0.3212E+03  0.6671E+03
      4.571  0.3099E+03  0.6831E+03
      4.622  0.2975E+03  0.6986E+03
      4.674  0.2935E+03  0.7138E+03
      4.726  0.2980E+03  0.7292E+03
      4.778  0.3057E+03  0.7451E+03
      4.830  0.3175E+03  0.7616E+03
      4.882  0.3311E+03  0.7788E+03
      4.934  0.3378E+03  0.7963E+03
      4.986  0.3450E+03  0.8142E+03
      5.037  0.3580E+03  0.8328E+03
      5.089  0.3655E+03  0.8517E+03
      5.141  0.3643E+03  0.8706E+03
      5.193  0.3555E+03  0.8891E+03
      5.245  0.3355E+03  0.9065E+03
      5.297  0.3034E+03  0.9222E+03
      5.349  0.2624E+03  0.9358E+03
      5.401  0.2192E+03  0.9472E+03
      5.453  0.1851E+03  0.9568E+03
      5.504  0.1726E+03  0.9658E+03
      5.556  0.1884E+03  0.9755E+03
      5.608  0.2260E+03  0.9872E+03
      5.660  0.2742E+03  0.1001E+04
      5.712  0.3245E+03  0.1018E+04
      5.764  0.3669E+03  0.1037E+04
      5.816  0.3947E+03  0.1058E+04
      5.868  0.4102E+03  0.1079E+04
      5.919  0.4189E+03  0.1101E+04
      5.971  0.4253E+03  0.1123E+04
      6.023  0.4280E+03  0.1145E+04
      6.075  0.4169E+03  0.1167E+04
      6.127  0.3926E+03  0.1187E+04
      6.179  0.3722E+03  0.1206E+04
      6.231  0.3614E+03  0.1225E+04
      6.283  0.3555E+03  0.1244E+04
      6.334  0.3563E+03  0.1262E+04
      6.386  0.3687E+03  0.1281E+04
      6.438  0.3816E+03  0.1301E+04
      6.490  0.3841E+03  0.1321E+04
      6.542  0.3913E+03  0.1341E+04
      6.594  0.4096E+03  0.1362E+04
      6.646  0.4238E+03  0.1384E+04
      6.698  0.4282E+03  0.1407E+04
      6.750  0.4255E+03  0.1429E+04
      6.801  0.4137E+03  0.1450E+04
      6.853  0.3926E+03  0.1471E+04
      6.905  0.3738E+03  0.1490E+04
      6.957  0.3668E+03  0.1509E+04
      7.009  0.3640E+03  0.1528E+04
      7.061  0.3675E+03  0.1547E+04
      7.113  0.3899E+03  0.1567E+04
      7.165  0.4140E+03  0.1589E+04
      7.216  0.4221E+03  0.1611E+04
      7.268  0.4224E+03  0.1632E+04
      7.320  0.4141E+03  0.1654E+04
      7.372  0.3893E+03  0.1674E+04
      7.424  0.3599E+03  0.1693E+04
      7.476  0.3407E+03  0.1711E+04
      7.528  0.3328E+03  0.1728E+04
      7.580  0.3290E+03  0.1745E+04
      7.631  0.3178E+03  0.1761E+04
      7.683  0.2966E+03  0.1777E+04
      7.735  0.2780E+03  0.1791E+04
      7.787  0.2689E+03  0.1805E+04
      7.839  0.2639E+03  0.1819E+04
      7.891  0.2580E+03  0.1832E+04
      7.943  0.2489E+03  0.1845E+04
      7.995  0.2430E+03  0.1858E+04
      8.047  0.2432E+03  0.1870E+04
      8.098  0.2395E+03  0.1883E+04
      8.150  0.2315E+03  0.1895E+04
      8.202  0.2289E+03  0.1907E+04
      8.254  0.2332E+03  0.1919E+04
      8.306  0.2376E+03  0.1931E+04
      8.358  0.2390E+03  0.1943E+04
      8.410  0.2371E+03  0.1956E+04
      8.462  0.2292E+03  0.1968E+04
      8.513  0.2189E+03  0.1979E+04
      8.565  0.2124E+03  0.1990E+04
      8.617  0.2076E+03  0.2001E+04
      8.669  0.2002E+03  0.2011E+04
      8.721  0.1916E+03  0.2021E+04
      8.773  0.1834E+03  0.2031E+04
      8.825  0.1794E+03  0.2040E+04
      8.877  0.1875E+03  0.2050E+04
      8.928  0.2119E+03  0.2061E+04
      8.980  0.2350E+03  0.2073E+04
      9.032  0.2368E+03  0.2085E+04
      9.084  0.2241E+03  0.2097E+04
      9.136  0.2072E+03  0.2107E+04
      9.188  0.1878E+03  0.2117E+04
      9.240  0.1787E+03  0.2127E+04
      9.292  0.1962E+03  0.2137E+04
      9.344  0.2273E+03  0.2148E+04
      9.395  0.2428E+03  0.2161E+04
      9.447  0.2428E+03  0.2174E+04
      9.499  0.2447E+03  0.2186E+04
      9.551  0.2444E+03  0.2199E+04
      9.603  0.2457E+03  0.2212E+04
      9.655  0.2725E+03  0.2226E+04
      9.707  0.3158E+03  0.2242E+04
      9.759  0.3355E+03  0.2260E+04
      9.810  0.3270E+03  0.2277E+04
      9.862  0.3169E+03  0.2293E+04
      9.914  0.3153E+03  0.2309E+04
      9.966  0.3212E+03  0.2326E+04
     10.018  0.3416E+03  0.2344E+04
     10.070  0.3779E+03  0.2363E+04
     10.122  0.4116E+03  0.2385E+04
     10.174  0.4280E+03  0.2407E+04
     10.225  0.4358E+03  0.2430E+04
     10.277  0.4478E+03  0.2453E+04
     10.329  0.4657E+03  0.2477E+04
     10.381  0.4837E+03  0.2502E+04
     10.433  0.4941E+03  0.2528E+04
     10.485  0.4871E+03  0.2553E+04
     10.537  0.4516E+03  0.2576E+04
     10.589  0.3933E+03  0.2597E+04
     10.640  0.3268E+03  0.2614E+04
     10.692  0.2465E+03  0.2627E+04
     10.744  0.1475E+03  0.2634E+04
     10.796  0.5635E+02  0.2637E+04
     10.848  0.5874E+01  0.2637E+04
     10.900 -0.5592E+01  0.2637E+04
     10.952 -0.2979E+01  0.2637E+04
     11.004 -0.7048E+00  0.2637E+04
     11.056 -0.1015E+00  0.2637E+04
     11.107 -0.1031E-01  0.2637E+04
     11.159 -0.7628E-03  0.2637E+04
     11.211 -0.3816E-04  0.2637E+04
     11.263 -0.1186E-05  0.2637E+04
     11.315 -0.2183E-07  0.2637E+04
     11.367 -0.2339E-09  0.2637E+04
     11.419 -0.1766E-11  0.2637E+04
     11.471 -0.6618E-10  0.2637E+04
     11.522 -0.8021E-08  0.2637E+04
     11.574 -0.5622E-06  0.2637E+04
     11.626 -0.2264E-04  0.2637E+04
     11.678 -0.5181E-03  0.2637E+04
     11.730 -0.6570E-02  0.2637E+04
     11.782 -0.4355E-01  0.2637E+04
     11.834 -0.1236E+00  0.2637E+04
     11.886  0.4692E-01  0.2637E+04
     11.937  0.1085E+01  0.2637E+04
     11.989  0.2446E+01  0.2637E+04
     12.041  0.2468E+01  0.2637E+04
     12.093  0.1466E+01  0.2637E+04
     12.145  0.8518E+00  0.2637E+04
     12.197  0.9987E+00  0.2637E+04
     12.249  0.2166E+01  0.2638E+04
     12.301  0.3816E+01  0.2638E+04
     12.353  0.4183E+01  0.2638E+04
     12.404  0.3097E+01  0.2638E+04
     12.456  0.2215E+01  0.2638E+04
     12.508  0.1871E+01  0.2638E+04
     12.560  0.1962E+01  0.2638E+04
     12.612  0.2506E+01  0.2639E+04
     12.664  0.3168E+01  0.2639E+04
     12.716  0.3857E+01  0.2639E+04
     12.768  0.3793E+01  0.2639E+04
     12.819  0.2833E+01  0.2639E+04
     12.871  0.2346E+01  0.2639E+04
     12.923  0.2280E+01  0.2640E+04
     12.975  0.1764E+01  0.2640E+04
     13.027  0.1216E+01  0.2640E+04
     13.079  0.9133E+00  0.2640E+04
     13.131  0.7722E+00  0.2640E+04
     13.183  0.9333E+00  0.2640E+04
     13.234  0.1131E+01  0.2640E+04
     13.286  0.1079E+01  0.2640E+04
     13.338  0.6636E+00  0.2640E+04
     13.390  0.1579E+00  0.2640E+04
     13.442 -0.4322E-01  0.2640E+04
     13.494 -0.3269E-01  0.2640E+04
     13.546 -0.7197E-02  0.2640E+04
     13.598 -0.7641E-03  0.2640E+04
     13.650 -0.4326E-04  0.2640E+04
     13.701 -0.1357E-05  0.2640E+04
     13.753 -0.2405E-07  0.2640E+04
     13.805 -0.2431E-09  0.2640E+04
     13.857 -0.1411E-11  0.2640E+04
     13.909 -0.4756E-14  0.2640E+04
     13.961  0.0000E+00  0.2640E+04
     14.013  0.0000E+00  0.2640E+04
     14.065  0.0000E+00  0.2640E+04
     14.116  0.0000E+00  0.2640E+04
     14.168  0.0000E+00  0.2640E+04
     14.220  0.0000E+00  0.2640E+04
     14.272  0.0000E+00  0.2640E+04
