 256 256   0   0
  0.1418917E+02  0.1588033E-08  0.1692661E-08  0.1693229E-08  0.5000000E-15
  1.000000000000000E-004
  CAR 
 Ir_Ru                                   
     14.27115373     -1.29179985  301      9.45689565      1.00000000
     -1.292  0.0000E+00  0.0000E+00
     -1.240  0.0000E+00  0.0000E+00
     -1.188  0.0000E+00  0.0000E+00
     -1.136 -0.2774E-30 -0.1439E-31
     -1.084 -0.1269E-26 -0.6583E-28
     -1.032 -0.3373E-23 -0.1750E-24
     -0.981 -0.5209E-20 -0.2704E-21
     -0.929 -0.4669E-17 -0.2425E-18
     -0.877 -0.2367E-14 -0.1231E-15
     -0.825 -0.7054E-12 -0.3671E-13
     -0.773 -0.1218E-09 -0.6356E-11
     -0.721 -0.1211E-07 -0.6344E-09
     -0.669 -0.6895E-06 -0.3640E-07
     -0.617 -0.2239E-04 -0.1198E-05
     -0.566 -0.4111E-03 -0.2253E-04
     -0.514 -0.4231E-02 -0.2420E-03
     -0.462 -0.2414E-01 -0.1495E-02
     -0.410 -0.7490E-01 -0.5380E-02
     -0.358 -0.1022E+00 -0.1068E-01
     -0.306  0.2022E+00 -0.1957E-03
     -0.254  0.1628E+01  0.8424E-01
     -0.202  0.4383E+01  0.3116E+00
     -0.151  0.6349E+01  0.6410E+00
     -0.099  0.6423E+01  0.9742E+00
     -0.047  0.6954E+01  0.1335E+01
      0.005  0.8846E+01  0.1794E+01
      0.057  0.1116E+02  0.2373E+01
      0.109  0.1359E+02  0.3078E+01
      0.161  0.1435E+02  0.3822E+01
      0.213  0.1173E+02  0.4431E+01
      0.264  0.1006E+02  0.4953E+01
      0.316  0.1422E+02  0.5690E+01
      0.368  0.2030E+02  0.6744E+01
      0.420  0.2251E+02  0.7911E+01
      0.472  0.2270E+02  0.9089E+01
      0.524  0.2350E+02  0.1031E+02
      0.576  0.2255E+02  0.1148E+02
      0.628  0.2046E+02  0.1254E+02
      0.680  0.2099E+02  0.1363E+02
      0.731  0.2041E+02  0.1469E+02
      0.783  0.1466E+02  0.1545E+02
      0.835  0.8916E+01  0.1591E+02
      0.887  0.8015E+01  0.1633E+02
      0.939  0.1164E+02  0.1693E+02
      0.991  0.1879E+02  0.1790E+02
      1.043  0.2773E+02  0.1934E+02
      1.095  0.3331E+02  0.2107E+02
      1.146  0.3311E+02  0.2279E+02
      1.198  0.2892E+02  0.2429E+02
      1.250  0.2294E+02  0.2548E+02
      1.302  0.1949E+02  0.2649E+02
      1.354  0.2156E+02  0.2761E+02
      1.406  0.2705E+02  0.2901E+02
      1.458  0.3036E+02  0.3059E+02
      1.510  0.2990E+02  0.3214E+02
      1.561  0.2933E+02  0.3366E+02
      1.613  0.3035E+02  0.3523E+02
      1.665  0.3109E+02  0.3685E+02
      1.717  0.3202E+02  0.3851E+02
      1.769  0.3498E+02  0.4032E+02
      1.821  0.3899E+02  0.4234E+02
      1.873  0.4529E+02  0.4469E+02
      1.925  0.5449E+02  0.4752E+02
      1.976  0.5937E+02  0.5060E+02
      2.028  0.5495E+02  0.5345E+02
      2.080  0.5050E+02  0.5607E+02
      2.132  0.6112E+02  0.5924E+02
      2.184  0.8632E+02  0.6372E+02
      2.236  0.1085E+03  0.6935E+02
      2.288  0.1196E+03  0.7555E+02
      2.340  0.1256E+03  0.8207E+02
      2.391  0.1313E+03  0.8888E+02
      2.443  0.1372E+03  0.9600E+02
      2.495  0.1467E+03  0.1036E+03
      2.547  0.1637E+03  0.1121E+03
      2.599  0.1824E+03  0.1216E+03
      2.651  0.1945E+03  0.1317E+03
      2.703  0.2063E+03  0.1424E+03
      2.755  0.2232E+03  0.1539E+03
      2.806  0.2309E+03  0.1659E+03
      2.858  0.2249E+03  0.1776E+03
      2.910  0.2276E+03  0.1894E+03
      2.962  0.2449E+03  0.2021E+03
      3.014  0.2579E+03  0.2155E+03
      3.066  0.2600E+03  0.2290E+03
      3.118  0.2604E+03  0.2425E+03
      3.170  0.2638E+03  0.2562E+03
      3.221  0.2727E+03  0.2703E+03
      3.273  0.2875E+03  0.2852E+03
      3.325  0.3066E+03  0.3011E+03
      3.377  0.3239E+03  0.3179E+03
      3.429  0.3307E+03  0.3351E+03
      3.481  0.3280E+03  0.3521E+03
      3.533  0.3218E+03  0.3688E+03
      3.585  0.3185E+03  0.3853E+03
      3.636  0.3169E+03  0.4017E+03
      3.688  0.3113E+03  0.4179E+03
      3.740  0.3053E+03  0.4337E+03
      3.792  0.3013E+03  0.4494E+03
      3.844  0.2970E+03  0.4648E+03
      3.896  0.2933E+03  0.4800E+03
      3.948  0.2887E+03  0.4950E+03
      4.000  0.2765E+03  0.5093E+03
      4.051  0.2664E+03  0.5231E+03
      4.103  0.2750E+03  0.5374E+03
      4.155  0.2937E+03  0.5526E+03
      4.207  0.3027E+03  0.5683E+03
      4.259  0.3050E+03  0.5842E+03
      4.311  0.3118E+03  0.6003E+03
      4.363  0.3186E+03  0.6169E+03
      4.415  0.3213E+03  0.6335E+03
      4.466  0.3237E+03  0.6503E+03
      4.518  0.3213E+03  0.6670E+03
      4.570  0.3100E+03  0.6831E+03
      4.622  0.2976E+03  0.6985E+03
      4.674  0.2936E+03  0.7137E+03
      4.726  0.2980E+03  0.7292E+03
      4.778  0.3055E+03  0.7450E+03
      4.830  0.3173E+03  0.7615E+03
      4.882  0.3310E+03  0.7787E+03
      4.933  0.3374E+03  0.7962E+03
      4.985  0.3445E+03  0.8140E+03
      5.037  0.3578E+03  0.8326E+03
      5.089  0.3658E+03  0.8516E+03
      5.141  0.3645E+03  0.8705E+03
      5.193  0.3554E+03  0.8889E+03
      5.245  0.3353E+03  0.9063E+03
      5.297  0.3035E+03  0.9221E+03
      5.348  0.2628E+03  0.9357E+03
      5.400  0.2196E+03  0.9471E+03
      5.452  0.1853E+03  0.9567E+03
      5.504  0.1725E+03  0.9657E+03
      5.556  0.1881E+03  0.9754E+03
      5.608  0.2259E+03  0.9871E+03
      5.660  0.2742E+03  0.1001E+04
      5.712  0.3245E+03  0.1018E+04
      5.763  0.3667E+03  0.1037E+04
      5.815  0.3944E+03  0.1058E+04
      5.867  0.4098E+03  0.1079E+04
      5.919  0.4189E+03  0.1101E+04
      5.971  0.4255E+03  0.1123E+04
      6.023  0.4282E+03  0.1145E+04
      6.075  0.4170E+03  0.1167E+04
      6.127  0.3929E+03  0.1187E+04
      6.178  0.3726E+03  0.1206E+04
      6.230  0.3617E+03  0.1225E+04
      6.282  0.3557E+03  0.1244E+04
      6.334  0.3563E+03  0.1262E+04
      6.386  0.3684E+03  0.1281E+04
      6.438  0.3813E+03  0.1301E+04
      6.490  0.3838E+03  0.1321E+04
      6.542  0.3908E+03  0.1341E+04
      6.593  0.4092E+03  0.1362E+04
      6.645  0.4238E+03  0.1384E+04
      6.697  0.4282E+03  0.1406E+04
      6.749  0.4255E+03  0.1429E+04
      6.801  0.4140E+03  0.1450E+04
      6.853  0.3931E+03  0.1470E+04
      6.905  0.3740E+03  0.1490E+04
      6.957  0.3667E+03  0.1509E+04
      7.008  0.3639E+03  0.1528E+04
      7.060  0.3677E+03  0.1547E+04
      7.112  0.3901E+03  0.1567E+04
      7.164  0.4140E+03  0.1589E+04
      7.216  0.4220E+03  0.1610E+04
      7.268  0.4222E+03  0.1632E+04
      7.320  0.4140E+03  0.1654E+04
      7.372  0.3895E+03  0.1674E+04
      7.423  0.3601E+03  0.1693E+04
      7.475  0.3409E+03  0.1710E+04
      7.527  0.3328E+03  0.1728E+04
      7.579  0.3290E+03  0.1745E+04
      7.631  0.3179E+03  0.1761E+04
      7.683  0.2968E+03  0.1777E+04
      7.735  0.2781E+03  0.1791E+04
      7.787  0.2689E+03  0.1805E+04
      7.838  0.2639E+03  0.1819E+04
      7.890  0.2579E+03  0.1832E+04
      7.942  0.2488E+03  0.1845E+04
      7.994  0.2429E+03  0.1858E+04
      8.046  0.2432E+03  0.1870E+04
      8.098  0.2397E+03  0.1883E+04
      8.150  0.2318E+03  0.1895E+04
      8.202  0.2289E+03  0.1906E+04
      8.253  0.2330E+03  0.1919E+04
      8.305  0.2375E+03  0.1931E+04
      8.357  0.2391E+03  0.1943E+04
      8.409  0.2373E+03  0.1956E+04
      8.461  0.2294E+03  0.1968E+04
      8.513  0.2190E+03  0.1979E+04
      8.565  0.2124E+03  0.1990E+04
      8.617  0.2075E+03  0.2001E+04
      8.668  0.2003E+03  0.2011E+04
      8.720  0.1918E+03  0.2021E+04
      8.772  0.1835E+03  0.2031E+04
      8.824  0.1795E+03  0.2040E+04
      8.876  0.1873E+03  0.2050E+04
      8.928  0.2115E+03  0.2061E+04
      8.980  0.2347E+03  0.2073E+04
      9.032  0.2368E+03  0.2085E+04
      9.084  0.2244E+03  0.2097E+04
      9.135  0.2075E+03  0.2107E+04
      9.187  0.1880E+03  0.2117E+04
      9.239  0.1787E+03  0.2126E+04
      9.291  0.1957E+03  0.2137E+04
      9.343  0.2268E+03  0.2148E+04
      9.395  0.2427E+03  0.2161E+04
      9.447  0.2429E+03  0.2174E+04
      9.499  0.2448E+03  0.2186E+04
      9.550  0.2446E+03  0.2199E+04
      9.602  0.2457E+03  0.2212E+04
      9.654  0.2720E+03  0.2226E+04
      9.706  0.3151E+03  0.2242E+04
      9.758  0.3353E+03  0.2259E+04
      9.810  0.3271E+03  0.2276E+04
      9.862  0.3169E+03  0.2293E+04
      9.914  0.3152E+03  0.2309E+04
      9.965  0.3212E+03  0.2326E+04
     10.017  0.3415E+03  0.2344E+04
     10.069  0.3776E+03  0.2363E+04
     10.121  0.4113E+03  0.2385E+04
     10.173  0.4278E+03  0.2407E+04
     10.225  0.4356E+03  0.2429E+04
     10.277  0.4475E+03  0.2453E+04
     10.329  0.4655E+03  0.2477E+04
     10.380  0.4836E+03  0.2502E+04
     10.432  0.4939E+03  0.2527E+04
     10.484  0.4871E+03  0.2553E+04
     10.536  0.4521E+03  0.2576E+04
     10.588  0.3941E+03  0.2597E+04
     10.640  0.3276E+03  0.2614E+04
     10.692  0.2473E+03  0.2626E+04
     10.744  0.1488E+03  0.2634E+04
     10.795  0.5794E+02  0.2637E+04
     10.847  0.6827E+01  0.2637E+04
     10.899 -0.5487E+01  0.2637E+04
     10.951 -0.3102E+01  0.2637E+04
     11.003 -0.7522E+00  0.2637E+04
     11.055 -0.1054E+00  0.2637E+04
     11.107 -0.9530E-02  0.2637E+04
     11.159 -0.5832E-03  0.2637E+04
     11.210 -0.2386E-04  0.2637E+04
     11.262 -0.6216E-06  0.2637E+04
     11.314 -0.9865E-08  0.2637E+04
     11.366 -0.9284E-10  0.2637E+04
     11.418 -0.5446E-12  0.2637E+04
     11.470 -0.8737E-11  0.2637E+04
     11.522 -0.1272E-08  0.2637E+04
     11.574 -0.1067E-06  0.2637E+04
     11.625 -0.5141E-05  0.2637E+04
     11.677 -0.1409E-03  0.2637E+04
     11.729 -0.2159E-02  0.2637E+04
     11.781 -0.1784E-01  0.2637E+04
     11.833 -0.7163E-01  0.2637E+04
     11.885 -0.7613E-01  0.2637E+04
     11.937  0.3752E+00  0.2637E+04
     11.989  0.1487E+01  0.2637E+04
     12.040  0.2454E+01  0.2637E+04
     12.092  0.2386E+01  0.2637E+04
     12.144  0.1479E+01  0.2637E+04
     12.196  0.8804E+00  0.2637E+04
     12.248  0.1577E+01  0.2638E+04
     12.300  0.3157E+01  0.2638E+04
     12.352  0.4227E+01  0.2638E+04
     12.404  0.3866E+01  0.2638E+04
     12.455  0.2755E+01  0.2638E+04
     12.507  0.1887E+01  0.2638E+04
     12.559  0.1900E+01  0.2638E+04
     12.611  0.2776E+01  0.2639E+04
     12.663  0.3699E+01  0.2639E+04
     12.715  0.4207E+01  0.2639E+04
     12.767  0.3589E+01  0.2639E+04
     12.819  0.2416E+01  0.2639E+04
     12.870  0.2213E+01  0.2639E+04
     12.922  0.2306E+01  0.2640E+04
     12.974  0.1745E+01  0.2640E+04
     13.026  0.1138E+01  0.2640E+04
     13.078  0.7829E+00  0.2640E+04
     13.130  0.5350E+00  0.2640E+04
     13.182  0.7810E+00  0.2640E+04
     13.234  0.1293E+01  0.2640E+04
     13.286  0.1307E+01  0.2640E+04
     13.337  0.7292E+00  0.2640E+04
     13.389  0.1455E+00  0.2640E+04
     13.441 -0.5242E-01  0.2640E+04
     13.493 -0.3437E-01  0.2640E+04
     13.545 -0.7334E-02  0.2640E+04
     13.597 -0.7692E-03  0.2640E+04
     13.649 -0.4332E-04  0.2640E+04
     13.701 -0.1356E-05  0.2640E+04
     13.752 -0.2400E-07  0.2640E+04
     13.804 -0.2425E-09  0.2640E+04
     13.856 -0.1407E-11  0.2640E+04
     13.908 -0.4756E-14  0.2640E+04
     13.960  0.0000E+00  0.2640E+04
     14.012  0.0000E+00  0.2640E+04
     14.064  0.0000E+00  0.2640E+04
     14.116  0.0000E+00  0.2640E+04
     14.167  0.0000E+00  0.2640E+04
     14.219  0.0000E+00  0.2640E+04
     14.271  0.0000E+00  0.2640E+04
