   8   8   0   0
  0.1439516E+02  0.5494667E-09  0.5494667E-09  0.4404504E-09  0.5000000E-15
  1.000000000000000E-004
  CAR 
 Ir_Ru                                   
     29.52513130     -1.96572972  301      9.75099916      1.00000000
     -1.966  0.0000E+00  0.0000E+00
     -1.861  0.0000E+00  0.0000E+00
     -1.756  0.0000E+00  0.0000E+00
     -1.651  0.0000E+00  0.0000E+00
     -1.546  0.0000E+00  0.0000E+00
     -1.441  0.0000E+00  0.0000E+00
     -1.336  0.0000E+00  0.0000E+00
     -1.231  0.0000E+00  0.0000E+00
     -1.126  0.0000E+00  0.0000E+00
     -1.021  0.0000E+00  0.0000E+00
     -0.916  0.0000E+00  0.0000E+00
     -0.811  0.0000E+00  0.0000E+00
     -0.706  0.0000E+00  0.0000E+00
     -0.601  0.0000E+00  0.0000E+00
     -0.496  0.2228E-01  0.2835E-03
     -0.391  0.1628E+00  0.1161E-01
     -0.286  0.2222E+00  0.3104E-01
     -0.181  0.2870E+00  0.5833E-01
     -0.076  0.3236E+00  0.9003E-01
      0.029  0.3739E+00  0.1266E+00
      0.134  0.4236E+00  0.1686E+00
      0.239  0.4613E+00  0.2150E+00
      0.344  0.5019E+00  0.2655E+00
      0.449  0.5483E+00  0.3206E+00
      0.554  0.5981E+00  0.3808E+00
      0.659  0.6426E+00  0.4459E+00
      0.763  0.6934E+00  0.5159E+00
      0.868  0.7521E+00  0.5917E+00
      0.973  0.8213E+00  0.6742E+00
      1.078  0.9037E+00  0.7645E+00
      1.183  0.1203E+01  0.8713E+00
      1.288  0.1094E+01  0.9902E+00
      1.393  0.1051E+01  0.1104E+01
      1.498  0.1063E+01  0.1213E+01
      1.603  0.1003E+01  0.1328E+01
      1.708  0.9510E+00  0.1431E+01
      1.813  0.1070E+01  0.1535E+01
      1.918  0.1623E+01  0.1665E+01
      2.023  0.1730E+01  0.1834E+01
      2.128  0.2219E+01  0.2039E+01
      2.233  0.3209E+01  0.2315E+01
      2.338  0.6255E+01  0.2805E+01
      2.443  0.6521E+01  0.3516E+01
      2.548  0.5368E+01  0.4142E+01
      2.653  0.5529E+01  0.4677E+01
      2.758  0.6319E+01  0.5303E+01
      2.863  0.7379E+01  0.6048E+01
      2.968  0.8625E+01  0.6869E+01
      3.073  0.9950E+01  0.7850E+01
      3.178  0.8939E+01  0.8820E+01
      3.283  0.9229E+01  0.9769E+01
      3.388  0.1166E+02  0.1082E+02
      3.493  0.1003E+02  0.1195E+02
      3.598  0.9208E+01  0.1293E+02
      3.703  0.8488E+01  0.1383E+02
      3.808  0.8708E+01  0.1476E+02
      3.913  0.7946E+01  0.1561E+02
      4.018  0.5948E+01  0.1637E+02
      4.123  0.1023E+02  0.1714E+02
      4.227  0.1446E+02  0.1830E+02
      4.332  0.1129E+02  0.1971E+02
      4.437  0.9055E+01  0.2075E+02
      4.542  0.9675E+01  0.2159E+02
      4.647  0.6047E+01  0.2234E+02
      4.752  0.1011E+02  0.2321E+02
      4.857  0.1119E+02  0.2439E+02
      4.962  0.1211E+02  0.2556E+02
      5.067  0.1088E+02  0.2680E+02
      5.172  0.9945E+01  0.2798E+02
      5.277  0.7286E+01  0.2887E+02
      5.382  0.7442E+01  0.2959E+02
      5.487  0.4441E+01  0.3020E+02
      5.592  0.5559E+01  0.3068E+02
      5.697  0.1068E+02  0.3152E+02
      5.802  0.1464E+02  0.3282E+02
      5.907  0.1262E+02  0.3433E+02
      6.012  0.1171E+02  0.3571E+02
      6.117  0.1175E+02  0.3689E+02
      6.222  0.1211E+02  0.3821E+02
      6.327  0.1119E+02  0.3945E+02
      6.432  0.1191E+02  0.4071E+02
      6.537  0.1340E+02  0.4205E+02
      6.642  0.1417E+02  0.4341E+02
      6.747  0.1038E+02  0.4478E+02
      6.852  0.1430E+02  0.4611E+02
      6.957  0.1113E+02  0.4743E+02
      7.062  0.1376E+02  0.4868E+02
      7.167  0.1439E+02  0.5017E+02
      7.272  0.9364E+01  0.5142E+02
      7.377  0.8517E+01  0.5230E+02
      7.482  0.1319E+02  0.5343E+02
      7.586  0.1037E+02  0.5455E+02
      7.691  0.9171E+01  0.5560E+02
      7.796  0.7999E+01  0.5647E+02
      7.901  0.1063E+02  0.5734E+02
      8.006  0.7704E+01  0.5819E+02
      8.111  0.7093E+01  0.5895E+02
      8.216  0.7430E+01  0.5971E+02
      8.321  0.6687E+01  0.6052E+02
      8.426  0.7844E+01  0.6120E+02
      8.531  0.4568E+01  0.6189E+02
      8.636  0.6033E+01  0.6249E+02
      8.741  0.6072E+01  0.6312E+02
      8.846  0.4940E+01  0.6369E+02
      8.951  0.5003E+01  0.6419E+02
      9.056  0.6220E+01  0.6482E+02
      9.161  0.8510E+01  0.6557E+02
      9.266  0.6780E+01  0.6630E+02
      9.371  0.7342E+01  0.6702E+02
      9.476  0.5887E+01  0.6779E+02
      9.581  0.7412E+01  0.6845E+02
      9.686  0.9531E+01  0.6933E+02
      9.791  0.1122E+02  0.7046E+02
      9.896  0.9469E+01  0.7153E+02
     10.001  0.9488E+01  0.7251E+02
     10.106  0.1224E+02  0.7364E+02
     10.211  0.1301E+02  0.7500E+02
     10.316  0.1404E+02  0.7640E+02
     10.421  0.1392E+02  0.7788E+02
     10.526  0.1611E+02  0.7940E+02
     10.631  0.1539E+02  0.8118E+02
     10.736  0.1341E+02  0.8262E+02
     10.841  0.1113E+02  0.8383E+02
     10.946  0.4261E+01  0.8452E+02
     11.050  0.2582E+01  0.8488E+02
     11.155  0.2087E+01  0.8512E+02
     11.260  0.2056E+01  0.8533E+02
     11.365  0.2279E+01  0.8556E+02
     11.470  0.2669E+01  0.8582E+02
     11.575  0.2433E+01  0.8610E+02
     11.680  0.2349E+01  0.8635E+02
     11.785  0.2200E+01  0.8659E+02
     11.890  0.2104E+01  0.8682E+02
     11.995  0.2134E+01  0.8704E+02
     12.100  0.2128E+01  0.8727E+02
     12.205  0.2227E+01  0.8750E+02
     12.310  0.2289E+01  0.8773E+02
     12.415  0.2186E+01  0.8797E+02
     12.520  0.2281E+01  0.8820E+02
     12.625  0.2471E+01  0.8845E+02
     12.730  0.2244E+01  0.8870E+02
     12.835  0.2117E+01  0.8893E+02
     12.940  0.2062E+01  0.8915E+02
     13.045  0.2059E+01  0.8936E+02
     13.150  0.2020E+01  0.8958E+02
     13.255  0.1776E+01  0.8978E+02
     13.360  0.1734E+01  0.8996E+02
     13.465  0.1731E+01  0.9014E+02
     13.570  0.1798E+01  0.9033E+02
     13.675  0.1839E+01  0.9052E+02
     13.780  0.1852E+01  0.9072E+02
     13.885  0.1802E+01  0.9091E+02
     13.990  0.1861E+01  0.9110E+02
     14.095  0.1929E+01  0.9130E+02
     14.200  0.1909E+01  0.9150E+02
     14.305  0.1907E+01  0.9170E+02
     14.410  0.1920E+01  0.9190E+02
     14.514  0.2039E+01  0.9211E+02
     14.619  0.2093E+01  0.9233E+02
     14.724  0.2340E+01  0.9257E+02
     14.829  0.2197E+01  0.9282E+02
     14.934  0.2151E+01  0.9304E+02
     15.039  0.1936E+01  0.9326E+02
     15.144  0.1821E+01  0.9345E+02
     15.249  0.1790E+01  0.9364E+02
     15.354  0.1588E+01  0.9382E+02
     15.459  0.1581E+01  0.9398E+02
     15.564  0.1677E+01  0.9416E+02
     15.669  0.1663E+01  0.9433E+02
     15.774  0.1586E+01  0.9450E+02
     15.879  0.1540E+01  0.9467E+02
     15.984  0.1438E+01  0.9482E+02
     16.089  0.1351E+01  0.9497E+02
     16.194  0.1372E+01  0.9511E+02
     16.299  0.1230E+01  0.9525E+02
     16.404  0.1130E+01  0.9537E+02
     16.509  0.1043E+01  0.9549E+02
     16.614  0.1117E+01  0.9560E+02
     16.719  0.9563E+00  0.9571E+02
     16.824  0.7573E+00  0.9580E+02
     16.929  0.7868E+00  0.9588E+02
     17.034  0.7900E+00  0.9597E+02
     17.139  0.7532E+00  0.9605E+02
     17.244  0.9096E+00  0.9614E+02
     17.349  0.1977E+01  0.9628E+02
     17.454  0.2999E+01  0.9654E+02
     17.559  0.2917E+01  0.9688E+02
     17.664  0.2926E+01  0.9717E+02
     17.769  0.3415E+01  0.9750E+02
     17.874  0.3256E+01  0.9785E+02
     17.978  0.2677E+01  0.9816E+02
     18.083  0.2758E+01  0.9844E+02
     18.188  0.3883E+01  0.9880E+02
     18.293  0.3857E+01  0.9922E+02
     18.398  0.3174E+01  0.9958E+02
     18.503  0.2830E+01  0.9989E+02
     18.608  0.2907E+01  0.1002E+03
     18.713  0.2838E+01  0.1005E+03
     18.818  0.2899E+01  0.1008E+03
     18.923  0.2967E+01  0.1011E+03
     19.028  0.2938E+01  0.1014E+03
     19.133  0.3080E+01  0.1017E+03
     19.238  0.3206E+01  0.1021E+03
     19.343  0.2970E+01  0.1024E+03
     19.448  0.2653E+01  0.1027E+03
     19.553  0.2792E+01  0.1030E+03
     19.658  0.3432E+01  0.1033E+03
     19.763  0.3211E+01  0.1037E+03
     19.868  0.2950E+01  0.1040E+03
     19.973  0.3040E+01  0.1043E+03
     20.078  0.3018E+01  0.1046E+03
     20.183  0.2800E+01  0.1049E+03
     20.288  0.2862E+01  0.1052E+03
     20.393  0.2880E+01  0.1055E+03
     20.498  0.3121E+01  0.1058E+03
     20.603  0.3180E+01  0.1062E+03
     20.708  0.3295E+01  0.1065E+03
     20.813  0.3168E+01  0.1068E+03
     20.918  0.3354E+01  0.1072E+03
     21.023  0.2922E+01  0.1075E+03
     21.128  0.2698E+01  0.1078E+03
     21.233  0.2770E+01  0.1081E+03
     21.338  0.2999E+01  0.1084E+03
     21.442  0.3104E+01  0.1087E+03
     21.547  0.3090E+01  0.1090E+03
     21.652  0.3080E+01  0.1094E+03
     21.757  0.3029E+01  0.1097E+03
     21.862  0.2798E+01  0.1100E+03
     21.967  0.2840E+01  0.1103E+03
     22.072  0.2866E+01  0.1106E+03
     22.177  0.2820E+01  0.1109E+03
     22.282  0.2917E+01  0.1112E+03
     22.387  0.3188E+01  0.1115E+03
     22.492  0.2842E+01  0.1119E+03
     22.597  0.2851E+01  0.1121E+03
     22.702  0.2604E+01  0.1124E+03
     22.807  0.2347E+01  0.1127E+03
     22.912  0.2355E+01  0.1129E+03
     23.017  0.2547E+01  0.1132E+03
     23.122  0.2732E+01  0.1135E+03
     23.227  0.2946E+01  0.1138E+03
     23.332  0.3044E+01  0.1141E+03
     23.437  0.3196E+01  0.1144E+03
     23.542  0.3175E+01  0.1147E+03
     23.647  0.3602E+01  0.1151E+03
     23.752  0.3722E+01  0.1155E+03
     23.857  0.3984E+01  0.1159E+03
     23.962  0.4343E+01  0.1163E+03
     24.067  0.4754E+01  0.1168E+03
     24.172  0.5189E+01  0.1173E+03
     24.277  0.5321E+01  0.1178E+03
     24.382  0.4710E+01  0.1184E+03
     24.487  0.4906E+01  0.1189E+03
     24.592  0.5762E+01  0.1194E+03
     24.697  0.7149E+01  0.1201E+03
     24.802  0.6399E+01  0.1208E+03
     24.906  0.8252E+01  0.1216E+03
     25.011  0.5791E+01  0.1223E+03
     25.116  0.4803E+01  0.1228E+03
     25.221  0.4509E+01  0.1233E+03
     25.326  0.4038E+01  0.1238E+03
     25.431  0.4433E+01  0.1242E+03
     25.536  0.5689E+01  0.1247E+03
     25.641  0.3899E+01  0.1252E+03
     25.746  0.3658E+01  0.1256E+03
     25.851  0.2891E+01  0.1259E+03
     25.956  0.2939E+01  0.1262E+03
     26.061  0.3195E+01  0.1265E+03
     26.166  0.3045E+01  0.1269E+03
     26.271  0.2490E+01  0.1272E+03
     26.376  0.2206E+01  0.1274E+03
     26.481  0.1509E+01  0.1276E+03
     26.586  0.9281E+00  0.1277E+03
     26.691  0.6695E+00  0.1278E+03
     26.796  0.4674E+00  0.1279E+03
     26.901  0.3312E+00  0.1279E+03
     27.006  0.2374E+00  0.1279E+03
     27.111  0.1639E+00  0.1280E+03
     27.216  0.1055E+00  0.1280E+03
     27.321  0.6562E-01  0.1280E+03
     27.426  0.4114E-01  0.1280E+03
     27.531  0.2916E-01  0.1280E+03
     27.636  0.2229E-01  0.1280E+03
     27.741  0.1459E-01  0.1280E+03
     27.846  0.8476E-02  0.1280E+03
     27.951  0.3800E-02  0.1280E+03
     28.056  0.4222E-03  0.1280E+03
     28.161  0.0000E+00  0.1280E+03
     28.265  0.0000E+00  0.1280E+03
     28.370  0.0000E+00  0.1280E+03
     28.475  0.0000E+00  0.1280E+03
     28.580  0.0000E+00  0.1280E+03
     28.685  0.0000E+00  0.1280E+03
     28.790  0.0000E+00  0.1280E+03
     28.895  0.0000E+00  0.1280E+03
     29.000  0.0000E+00  0.1280E+03
     29.105  0.0000E+00  0.1280E+03
     29.210  0.0000E+00  0.1280E+03
     29.315  0.0000E+00  0.1280E+03
     29.420  0.0000E+00  0.1280E+03
     29.525  0.0000E+00  0.1280E+03
