<?xml version="1.0" encoding="ISO-8859-1"?>
<modeling>
 <generator>
  <i name="program" type="string">vasp </i>
  <i name="version" type="string">5.4.1  </i>
  <i name="subversion" type="string">24Jun15 (build Dec 12 2017 15:24:27) complex                          parallel </i>
  <i name="platform" type="string">IFC91_ompi </i>
  <i name="date" type="string">2020 04 03 </i>
  <i name="time" type="string">15:42:04 </i>
 </generator>
 <incar>
  <i type="string" name="SYSTEM"> Ir_Ru</i>
  <i type="int" name="ISTART">     0</i>
  <i type="string" name="PREC">accurate</i>
  <i type="string" name="ALGO"> Very_Fast</i>
  <i type="int" name="ICHARG">     2</i>
  <i type="int" name="NELMIN">     5</i>
  <i type="int" name="IBRION">    -1</i>
  <i name="EDIFFG">      0.00001000</i>
  <i type="int" name="ISIF">     2</i>
  <i type="int" name="ISMEAR">    -5</i>
  <i name="SIGMA">      0.10000000</i>
  <v type="int" name="KPOINT_BSE">    -1     0     0     0</v>
 </incar>
 <kpoints>
  <generation param="Gamma">
   <v type="int" name="divisions">      10       10       12 </v>
   <v name="usershift">      0.00000000       0.00000000       0.00000000 </v>
   <v name="genvec1">      0.10000000       0.00000000       0.00000000 </v>
   <v name="genvec2">     -0.00000000       0.10000000       0.00000000 </v>
   <v name="genvec3">      0.00000000       0.00000000       0.08333333 </v>
   <v name="shift">      0.00000000       0.00000000       0.00000000 </v>
  </generation>
  <varray name="kpointlist" >
   <v>       0.00000000       0.00000000       0.00000000 </v>
   <v>       0.10000000      -0.00000000       0.00000000 </v>
   <v>       0.20000000       0.00000000       0.00000000 </v>
   <v>       0.30000000      -0.00000000       0.00000000 </v>
   <v>       0.40000000       0.00000000       0.00000000 </v>
   <v>       0.50000000       0.00000000       0.00000000 </v>
   <v>       0.10000000       0.10000000       0.00000000 </v>
   <v>       0.20000000       0.10000000       0.00000000 </v>
   <v>       0.30000000       0.10000000       0.00000000 </v>
   <v>       0.40000000       0.10000000       0.00000000 </v>
   <v>       0.50000000       0.10000000       0.00000000 </v>
   <v>      -0.40000000       0.10000000       0.00000000 </v>
   <v>      -0.30000000       0.10000000       0.00000000 </v>
   <v>      -0.20000000       0.10000000       0.00000000 </v>
   <v>      -0.10000000       0.10000000       0.00000000 </v>
   <v>       0.20000000       0.20000000       0.00000000 </v>
   <v>       0.30000000       0.20000000       0.00000000 </v>
   <v>       0.40000000       0.20000000       0.00000000 </v>
   <v>       0.50000000       0.20000000       0.00000000 </v>
   <v>      -0.40000000       0.20000000       0.00000000 </v>
   <v>      -0.30000000       0.20000000       0.00000000 </v>
   <v>      -0.20000000       0.20000000       0.00000000 </v>
   <v>       0.30000000       0.30000000       0.00000000 </v>
   <v>       0.40000000       0.30000000       0.00000000 </v>
   <v>       0.50000000       0.30000000       0.00000000 </v>
   <v>      -0.40000000       0.30000000       0.00000000 </v>
   <v>      -0.30000000       0.30000000       0.00000000 </v>
   <v>       0.40000000       0.40000000       0.00000000 </v>
   <v>       0.50000000       0.40000000       0.00000000 </v>
   <v>      -0.40000000       0.40000000       0.00000000 </v>
   <v>       0.50000000       0.50000000       0.00000000 </v>
   <v>       0.00000000       0.00000000       0.08333333 </v>
   <v>       0.10000000      -0.00000000       0.08333333 </v>
   <v>       0.20000000       0.00000000       0.08333333 </v>
   <v>       0.30000000      -0.00000000       0.08333333 </v>
   <v>       0.40000000       0.00000000       0.08333333 </v>
   <v>       0.50000000       0.00000000       0.08333333 </v>
   <v>       0.10000000       0.10000000       0.08333333 </v>
   <v>       0.20000000       0.10000000       0.08333333 </v>
   <v>       0.30000000       0.10000000       0.08333333 </v>
   <v>       0.40000000       0.10000000       0.08333333 </v>
   <v>       0.50000000       0.10000000       0.08333333 </v>
   <v>      -0.40000000       0.10000000       0.08333333 </v>
   <v>      -0.30000000       0.10000000       0.08333333 </v>
   <v>      -0.20000000       0.10000000       0.08333333 </v>
   <v>      -0.10000000       0.10000000       0.08333333 </v>
   <v>       0.20000000       0.20000000       0.08333333 </v>
   <v>       0.30000000       0.20000000       0.08333333 </v>
   <v>       0.40000000       0.20000000       0.08333333 </v>
   <v>       0.50000000       0.20000000       0.08333333 </v>
   <v>      -0.40000000       0.20000000       0.08333333 </v>
   <v>      -0.30000000       0.20000000       0.08333333 </v>
   <v>      -0.20000000       0.20000000       0.08333333 </v>
   <v>       0.30000000       0.30000000       0.08333333 </v>
   <v>       0.40000000       0.30000000       0.08333333 </v>
   <v>       0.50000000       0.30000000       0.08333333 </v>
   <v>      -0.40000000       0.30000000       0.08333333 </v>
   <v>      -0.30000000       0.30000000       0.08333333 </v>
   <v>       0.40000000       0.40000000       0.08333333 </v>
   <v>       0.50000000       0.40000000       0.08333333 </v>
   <v>      -0.40000000       0.40000000       0.08333333 </v>
   <v>       0.50000000       0.50000000       0.08333333 </v>
   <v>       0.00000000       0.00000000       0.16666667 </v>
   <v>       0.10000000      -0.00000000       0.16666667 </v>
   <v>       0.20000000       0.00000000       0.16666667 </v>
   <v>       0.30000000      -0.00000000       0.16666667 </v>
   <v>       0.40000000       0.00000000       0.16666667 </v>
   <v>       0.50000000       0.00000000       0.16666667 </v>
   <v>       0.10000000       0.10000000       0.16666667 </v>
   <v>       0.20000000       0.10000000       0.16666667 </v>
   <v>       0.30000000       0.10000000       0.16666667 </v>
   <v>       0.40000000       0.10000000       0.16666667 </v>
   <v>       0.50000000       0.10000000       0.16666667 </v>
   <v>      -0.40000000       0.10000000       0.16666667 </v>
   <v>      -0.30000000       0.10000000       0.16666667 </v>
   <v>      -0.20000000       0.10000000       0.16666667 </v>
   <v>      -0.10000000       0.10000000       0.16666667 </v>
   <v>       0.20000000       0.20000000       0.16666667 </v>
   <v>       0.30000000       0.20000000       0.16666667 </v>
   <v>       0.40000000       0.20000000       0.16666667 </v>
   <v>       0.50000000       0.20000000       0.16666667 </v>
   <v>      -0.40000000       0.20000000       0.16666667 </v>
   <v>      -0.30000000       0.20000000       0.16666667 </v>
   <v>      -0.20000000       0.20000000       0.16666667 </v>
   <v>       0.30000000       0.30000000       0.16666667 </v>
   <v>       0.40000000       0.30000000       0.16666667 </v>
   <v>       0.50000000       0.30000000       0.16666667 </v>
   <v>      -0.40000000       0.30000000       0.16666667 </v>
   <v>      -0.30000000       0.30000000       0.16666667 </v>
   <v>       0.40000000       0.40000000       0.16666667 </v>
   <v>       0.50000000       0.40000000       0.16666667 </v>
   <v>      -0.40000000       0.40000000       0.16666667 </v>
   <v>       0.50000000       0.50000000       0.16666667 </v>
   <v>       0.00000000       0.00000000       0.25000000 </v>
   <v>       0.10000000      -0.00000000       0.25000000 </v>
   <v>       0.20000000       0.00000000       0.25000000 </v>
   <v>       0.30000000      -0.00000000       0.25000000 </v>
   <v>       0.40000000       0.00000000       0.25000000 </v>
   <v>       0.50000000       0.00000000       0.25000000 </v>
   <v>       0.10000000       0.10000000       0.25000000 </v>
   <v>       0.20000000       0.10000000       0.25000000 </v>
   <v>       0.30000000       0.10000000       0.25000000 </v>
   <v>       0.40000000       0.10000000       0.25000000 </v>
   <v>       0.50000000       0.10000000       0.25000000 </v>
   <v>      -0.40000000       0.10000000       0.25000000 </v>
   <v>      -0.30000000       0.10000000       0.25000000 </v>
   <v>      -0.20000000       0.10000000       0.25000000 </v>
   <v>      -0.10000000       0.10000000       0.25000000 </v>
   <v>       0.20000000       0.20000000       0.25000000 </v>
   <v>       0.30000000       0.20000000       0.25000000 </v>
   <v>       0.40000000       0.20000000       0.25000000 </v>
   <v>       0.50000000       0.20000000       0.25000000 </v>
   <v>      -0.40000000       0.20000000       0.25000000 </v>
   <v>      -0.30000000       0.20000000       0.25000000 </v>
   <v>      -0.20000000       0.20000000       0.25000000 </v>
   <v>       0.30000000       0.30000000       0.25000000 </v>
   <v>       0.40000000       0.30000000       0.25000000 </v>
   <v>       0.50000000       0.30000000       0.25000000 </v>
   <v>      -0.40000000       0.30000000       0.25000000 </v>
   <v>      -0.30000000       0.30000000       0.25000000 </v>
   <v>       0.40000000       0.40000000       0.25000000 </v>
   <v>       0.50000000       0.40000000       0.25000000 </v>
   <v>      -0.40000000       0.40000000       0.25000000 </v>
   <v>       0.50000000       0.50000000       0.25000000 </v>
   <v>       0.00000000       0.00000000       0.33333333 </v>
   <v>       0.10000000      -0.00000000       0.33333333 </v>
   <v>       0.20000000       0.00000000       0.33333333 </v>
   <v>       0.30000000      -0.00000000       0.33333333 </v>
   <v>       0.40000000       0.00000000       0.33333333 </v>
   <v>       0.50000000       0.00000000       0.33333333 </v>
   <v>       0.10000000       0.10000000       0.33333333 </v>
   <v>       0.20000000       0.10000000       0.33333333 </v>
   <v>       0.30000000       0.10000000       0.33333333 </v>
   <v>       0.40000000       0.10000000       0.33333333 </v>
   <v>       0.50000000       0.10000000       0.33333333 </v>
   <v>      -0.40000000       0.10000000       0.33333333 </v>
   <v>      -0.30000000       0.10000000       0.33333333 </v>
   <v>      -0.20000000       0.10000000       0.33333333 </v>
   <v>      -0.10000000       0.10000000       0.33333333 </v>
   <v>       0.20000000       0.20000000       0.33333333 </v>
   <v>       0.30000000       0.20000000       0.33333333 </v>
   <v>       0.40000000       0.20000000       0.33333333 </v>
   <v>       0.50000000       0.20000000       0.33333333 </v>
   <v>      -0.40000000       0.20000000       0.33333333 </v>
   <v>      -0.30000000       0.20000000       0.33333333 </v>
   <v>      -0.20000000       0.20000000       0.33333333 </v>
   <v>       0.30000000       0.30000000       0.33333333 </v>
   <v>       0.40000000       0.30000000       0.33333333 </v>
   <v>       0.50000000       0.30000000       0.33333333 </v>
   <v>      -0.40000000       0.30000000       0.33333333 </v>
   <v>      -0.30000000       0.30000000       0.33333333 </v>
   <v>       0.40000000       0.40000000       0.33333333 </v>
   <v>       0.50000000       0.40000000       0.33333333 </v>
   <v>      -0.40000000       0.40000000       0.33333333 </v>
   <v>       0.50000000       0.50000000       0.33333333 </v>
   <v>       0.00000000       0.00000000       0.41666667 </v>
   <v>       0.10000000      -0.00000000       0.41666667 </v>
   <v>       0.20000000       0.00000000       0.41666667 </v>
   <v>       0.30000000      -0.00000000       0.41666667 </v>
   <v>       0.40000000       0.00000000       0.41666667 </v>
   <v>       0.50000000       0.00000000       0.41666667 </v>
   <v>       0.10000000       0.10000000       0.41666667 </v>
   <v>       0.20000000       0.10000000       0.41666667 </v>
   <v>       0.30000000       0.10000000       0.41666667 </v>
   <v>       0.40000000       0.10000000       0.41666667 </v>
   <v>       0.50000000       0.10000000       0.41666667 </v>
   <v>      -0.40000000       0.10000000       0.41666667 </v>
   <v>      -0.30000000       0.10000000       0.41666667 </v>
   <v>      -0.20000000       0.10000000       0.41666667 </v>
   <v>      -0.10000000       0.10000000       0.41666667 </v>
   <v>       0.20000000       0.20000000       0.41666667 </v>
   <v>       0.30000000       0.20000000       0.41666667 </v>
   <v>       0.40000000       0.20000000       0.41666667 </v>
   <v>       0.50000000       0.20000000       0.41666667 </v>
   <v>      -0.40000000       0.20000000       0.41666667 </v>
   <v>      -0.30000000       0.20000000       0.41666667 </v>
   <v>      -0.20000000       0.20000000       0.41666667 </v>
   <v>       0.30000000       0.30000000       0.41666667 </v>
   <v>       0.40000000       0.30000000       0.41666667 </v>
   <v>       0.50000000       0.30000000       0.41666667 </v>
   <v>      -0.40000000       0.30000000       0.41666667 </v>
   <v>      -0.30000000       0.30000000       0.41666667 </v>
   <v>       0.40000000       0.40000000       0.41666667 </v>
   <v>       0.50000000       0.40000000       0.41666667 </v>
   <v>      -0.40000000       0.40000000       0.41666667 </v>
   <v>       0.50000000       0.50000000       0.41666667 </v>
   <v>       0.00000000       0.00000000       0.50000000 </v>
   <v>       0.10000000      -0.00000000       0.50000000 </v>
   <v>       0.20000000       0.00000000       0.50000000 </v>
   <v>       0.30000000      -0.00000000       0.50000000 </v>
   <v>       0.40000000       0.00000000       0.50000000 </v>
   <v>       0.50000000       0.00000000       0.50000000 </v>
   <v>       0.10000000       0.10000000       0.50000000 </v>
   <v>       0.20000000       0.10000000       0.50000000 </v>
   <v>       0.30000000       0.10000000       0.50000000 </v>
   <v>       0.40000000       0.10000000       0.50000000 </v>
   <v>       0.50000000       0.10000000       0.50000000 </v>
   <v>      -0.40000000       0.10000000       0.50000000 </v>
   <v>      -0.30000000       0.10000000       0.50000000 </v>
   <v>      -0.20000000       0.10000000       0.50000000 </v>
   <v>      -0.10000000       0.10000000       0.50000000 </v>
   <v>       0.20000000       0.20000000       0.50000000 </v>
   <v>       0.30000000       0.20000000       0.50000000 </v>
   <v>       0.40000000       0.20000000       0.50000000 </v>
   <v>       0.50000000       0.20000000       0.50000000 </v>
   <v>      -0.40000000       0.20000000       0.50000000 </v>
   <v>      -0.30000000       0.20000000       0.50000000 </v>
   <v>      -0.20000000       0.20000000       0.50000000 </v>
   <v>       0.30000000       0.30000000       0.50000000 </v>
   <v>       0.40000000       0.30000000       0.50000000 </v>
   <v>       0.50000000       0.30000000       0.50000000 </v>
   <v>      -0.40000000       0.30000000       0.50000000 </v>
   <v>      -0.30000000       0.30000000       0.50000000 </v>
   <v>       0.40000000       0.40000000       0.50000000 </v>
   <v>       0.50000000       0.40000000       0.50000000 </v>
   <v>      -0.40000000       0.40000000       0.50000000 </v>
   <v>       0.50000000       0.50000000       0.50000000 </v>
  </varray>
  <varray name="weights" >
   <v>       0.00083333 </v>
   <v>       0.00333333 </v>
   <v>       0.00333333 </v>
   <v>       0.00333333 </v>
   <v>       0.00333333 </v>
   <v>       0.00166667 </v>
   <v>       0.00166667 </v>
   <v>       0.00333333 </v>
   <v>       0.00333333 </v>
   <v>       0.00333333 </v>
   <v>       0.00333333 </v>
   <v>       0.00333333 </v>
   <v>       0.00333333 </v>
   <v>       0.00333333 </v>
   <v>       0.00166667 </v>
   <v>       0.00166667 </v>
   <v>       0.00333333 </v>
   <v>       0.00333333 </v>
   <v>       0.00333333 </v>
   <v>       0.00333333 </v>
   <v>       0.00333333 </v>
   <v>       0.00166667 </v>
   <v>       0.00166667 </v>
   <v>       0.00333333 </v>
   <v>       0.00333333 </v>
   <v>       0.00333333 </v>
   <v>       0.00166667 </v>
   <v>       0.00166667 </v>
   <v>       0.00333333 </v>
   <v>       0.00166667 </v>
   <v>       0.00083333 </v>
   <v>       0.00166667 </v>
   <v>       0.00666667 </v>
   <v>       0.00666667 </v>
   <v>       0.00666667 </v>
   <v>       0.00666667 </v>
   <v>       0.00333333 </v>
   <v>       0.00333333 </v>
   <v>       0.00666667 </v>
   <v>       0.00666667 </v>
   <v>       0.00666667 </v>
   <v>       0.00666667 </v>
   <v>       0.00666667 </v>
   <v>       0.00666667 </v>
   <v>       0.00666667 </v>
   <v>       0.00333333 </v>
   <v>       0.00333333 </v>
   <v>       0.00666667 </v>
   <v>       0.00666667 </v>
   <v>       0.00666667 </v>
   <v>       0.00666667 </v>
   <v>       0.00666667 </v>
   <v>       0.00333333 </v>
   <v>       0.00333333 </v>
   <v>       0.00666667 </v>
   <v>       0.00666667 </v>
   <v>       0.00666667 </v>
   <v>       0.00333333 </v>
   <v>       0.00333333 </v>
   <v>       0.00666667 </v>
   <v>       0.00333333 </v>
   <v>       0.00166667 </v>
   <v>       0.00166667 </v>
   <v>       0.00666667 </v>
   <v>       0.00666667 </v>
   <v>       0.00666667 </v>
   <v>       0.00666667 </v>
   <v>       0.00333333 </v>
   <v>       0.00333333 </v>
   <v>       0.00666667 </v>
   <v>       0.00666667 </v>
   <v>       0.00666667 </v>
   <v>       0.00666667 </v>
   <v>       0.00666667 </v>
   <v>       0.00666667 </v>
   <v>       0.00666667 </v>
   <v>       0.00333333 </v>
   <v>       0.00333333 </v>
   <v>       0.00666667 </v>
   <v>       0.00666667 </v>
   <v>       0.00666667 </v>
   <v>       0.00666667 </v>
   <v>       0.00666667 </v>
   <v>       0.00333333 </v>
   <v>       0.00333333 </v>
   <v>       0.00666667 </v>
   <v>       0.00666667 </v>
   <v>       0.00666667 </v>
   <v>       0.00333333 </v>
   <v>       0.00333333 </v>
   <v>       0.00666667 </v>
   <v>       0.00333333 </v>
   <v>       0.00166667 </v>
   <v>       0.00166667 </v>
   <v>       0.00666667 </v>
   <v>       0.00666667 </v>
   <v>       0.00666667 </v>
   <v>       0.00666667 </v>
   <v>       0.00333333 </v>
   <v>       0.00333333 </v>
   <v>       0.00666667 </v>
   <v>       0.00666667 </v>
   <v>       0.00666667 </v>
   <v>       0.00666667 </v>
   <v>       0.00666667 </v>
   <v>       0.00666667 </v>
   <v>       0.00666667 </v>
   <v>       0.00333333 </v>
   <v>       0.00333333 </v>
   <v>       0.00666667 </v>
   <v>       0.00666667 </v>
   <v>       0.00666667 </v>
   <v>       0.00666667 </v>
   <v>       0.00666667 </v>
   <v>       0.00333333 </v>
   <v>       0.00333333 </v>
   <v>       0.00666667 </v>
   <v>       0.00666667 </v>
   <v>       0.00666667 </v>
   <v>       0.00333333 </v>
   <v>       0.00333333 </v>
   <v>       0.00666667 </v>
   <v>       0.00333333 </v>
   <v>       0.00166667 </v>
   <v>       0.00166667 </v>
   <v>       0.00666667 </v>
   <v>       0.00666667 </v>
   <v>       0.00666667 </v>
   <v>       0.00666667 </v>
   <v>       0.00333333 </v>
   <v>       0.00333333 </v>
   <v>       0.00666667 </v>
   <v>       0.00666667 </v>
   <v>       0.00666667 </v>
   <v>       0.00666667 </v>
   <v>       0.00666667 </v>
   <v>       0.00666667 </v>
   <v>       0.00666667 </v>
   <v>       0.00333333 </v>
   <v>       0.00333333 </v>
   <v>       0.00666667 </v>
   <v>       0.00666667 </v>
   <v>       0.00666667 </v>
   <v>       0.00666667 </v>
   <v>       0.00666667 </v>
   <v>       0.00333333 </v>
   <v>       0.00333333 </v>
   <v>       0.00666667 </v>
   <v>       0.00666667 </v>
   <v>       0.00666667 </v>
   <v>       0.00333333 </v>
   <v>       0.00333333 </v>
   <v>       0.00666667 </v>
   <v>       0.00333333 </v>
   <v>       0.00166667 </v>
   <v>       0.00166667 </v>
   <v>       0.00666667 </v>
   <v>       0.00666667 </v>
   <v>       0.00666667 </v>
   <v>       0.00666667 </v>
   <v>       0.00333333 </v>
   <v>       0.00333333 </v>
   <v>       0.00666667 </v>
   <v>       0.00666667 </v>
   <v>       0.00666667 </v>
   <v>       0.00666667 </v>
   <v>       0.00666667 </v>
   <v>       0.00666667 </v>
   <v>       0.00666667 </v>
   <v>       0.00333333 </v>
   <v>       0.00333333 </v>
   <v>       0.00666667 </v>
   <v>       0.00666667 </v>
   <v>       0.00666667 </v>
   <v>       0.00666667 </v>
   <v>       0.00666667 </v>
   <v>       0.00333333 </v>
   <v>       0.00333333 </v>
   <v>       0.00666667 </v>
   <v>       0.00666667 </v>
   <v>       0.00666667 </v>
   <v>       0.00333333 </v>
   <v>       0.00333333 </v>
   <v>       0.00666667 </v>
   <v>       0.00333333 </v>
   <v>       0.00166667 </v>
   <v>       0.00083333 </v>
   <v>       0.00333333 </v>
   <v>       0.00333333 </v>
   <v>       0.00333333 </v>
   <v>       0.00333333 </v>
   <v>       0.00166667 </v>
   <v>       0.00166667 </v>
   <v>       0.00333333 </v>
   <v>       0.00333333 </v>
   <v>       0.00333333 </v>
   <v>       0.00333333 </v>
   <v>       0.00333333 </v>
   <v>       0.00333333 </v>
   <v>       0.00333333 </v>
   <v>       0.00166667 </v>
   <v>       0.00166667 </v>
   <v>       0.00333333 </v>
   <v>       0.00333333 </v>
   <v>       0.00333333 </v>
   <v>       0.00333333 </v>
   <v>       0.00333333 </v>
   <v>       0.00166667 </v>
   <v>       0.00166667 </v>
   <v>       0.00333333 </v>
   <v>       0.00333333 </v>
   <v>       0.00333333 </v>
   <v>       0.00166667 </v>
   <v>       0.00166667 </v>
   <v>       0.00333333 </v>
   <v>       0.00166667 </v>
   <v>       0.00083333 </v>
  </varray>
  <varray name="tetrahedronlist"  type="int" >
   <v type="int" >        4        2        2        7       33 </v>
   <v type="int" >        4        1        2        2       33 </v>
   <v type="int" >        4        1        2       32       33 </v>
   <v type="int" >        4        2        7       33       38 </v>
   <v type="int" >        4        2       33       33       38 </v>
   <v type="int" >        4        2       32       33       33 </v>
   <v type="int" >        4        3        7        8       38 </v>
   <v type="int" >        4        2        3        7       38 </v>
   <v type="int" >        4        2        3       33       38 </v>
   <v type="int" >        4        3        8       38       39 </v>
   <v type="int" >        4        3       34       38       39 </v>
   <v type="int" >        4        3       33       34       38 </v>
   <v type="int" >        4        4        8        9       39 </v>
   <v type="int" >        4        3        4        8       39 </v>
   <v type="int" >        4        3        4       34       39 </v>
   <v type="int" >        4        4        9       39       40 </v>
   <v type="int" >        4        4       35       39       40 </v>
   <v type="int" >        4        4       34       35       39 </v>
   <v type="int" >        4        5        9       10       40 </v>
   <v type="int" >        4        4        5        9       40 </v>
   <v type="int" >        4        4        5       35       40 </v>
   <v type="int" >        4        5       10       40       41 </v>
   <v type="int" >        4        5       36       40       41 </v>
   <v type="int" >        4        5       35       36       40 </v>
   <v type="int" >        4        6       10       11       41 </v>
   <v type="int" >        4        5        6       10       41 </v>
   <v type="int" >        4        5        6       36       41 </v>
   <v type="int" >        4        6       11       41       42 </v>
   <v type="int" >        4        6       37       41       42 </v>
   <v type="int" >        4        6       36       37       41 </v>
   <v type="int" >        4        5       11       12       42 </v>
   <v type="int" >        4        5        6       11       42 </v>
   <v type="int" >        4        5        6       37       42 </v>
   <v type="int" >        4        5       12       42       43 </v>
   <v type="int" >        4        5       36       42       43 </v>
   <v type="int" >        4        5       36       37       42 </v>
   <v type="int" >        4        4       12       13       43 </v>
   <v type="int" >        4        4        5       12       43 </v>
   <v type="int" >        4        4        5       36       43 </v>
   <v type="int" >        4        4       13       43       44 </v>
   <v type="int" >        4        4       35       43       44 </v>
   <v type="int" >        4        4       35       36       43 </v>
   <v type="int" >        4        3       13       14       44 </v>
   <v type="int" >        4        3        4       13       44 </v>
   <v type="int" >        4        3        4       35       44 </v>
   <v type="int" >        4        3       14       44       45 </v>
   <v type="int" >        4        3       34       44       45 </v>
   <v type="int" >        4        3       34       35       44 </v>
   <v type="int" >        4        2       14       15       45 </v>
   <v type="int" >        4        2        3       14       45 </v>
   <v type="int" >        4        2        3       34       45 </v>
   <v type="int" >        4        2       15       45       46 </v>
   <v type="int" >        4        2       33       45       46 </v>
   <v type="int" >        4        2       33       34       45 </v>
   <v type="int" >        4        1        2       15       46 </v>
   <v type="int" >        4        1        2       33       46 </v>
   <v type="int" >        4        1       32       33       46 </v>
   <v type="int" >        4        3        7        8       34 </v>
   <v type="int" >        4        2        3        7       34 </v>
   <v type="int" >        4        2        7       33       34 </v>
   <v type="int" >        4        7        8       34       39 </v>
   <v type="int" >        4        7       34       38       39 </v>
   <v type="int" >        4        7       33       34       38 </v>
   <v type="int" >        4        8        8       16       39 </v>
   <v type="int" >        4        7        8        8       39 </v>
   <v type="int" >        4        7        8       38       39 </v>
   <v type="int" >        4        8       16       39       47 </v>
   <v type="int" >        4        8       39       39       47 </v>
   <v type="int" >        4        8       38       39       39 </v>
   <v type="int" >        4        9       16       17       47 </v>
   <v type="int" >        4        8        9       16       47 </v>
   <v type="int" >        4        8        9       39       47 </v>
   <v type="int" >        4        9       17       47       48 </v>
   <v type="int" >        4        9       40       47       48 </v>
   <v type="int" >        4        9       39       40       47 </v>
   <v type="int" >        4       10       17       18       48 </v>
   <v type="int" >        4        9       10       17       48 </v>
   <v type="int" >        4        9       10       40       48 </v>
   <v type="int" >        4       10       18       48       49 </v>
   <v type="int" >        4       10       41       48       49 </v>
   <v type="int" >        4       10       40       41       48 </v>
   <v type="int" >        4       11       18       19       49 </v>
   <v type="int" >        4       10       11       18       49 </v>
   <v type="int" >        4       10       11       41       49 </v>
   <v type="int" >        4       11       19       49       50 </v>
   <v type="int" >        4       11       42       49       50 </v>
   <v type="int" >        4       11       41       42       49 </v>
   <v type="int" >        4       12       19       20       50 </v>
   <v type="int" >        4       11       12       19       50 </v>
   <v type="int" >        4       11       12       42       50 </v>
   <v type="int" >        4       12       20       50       51 </v>
   <v type="int" >        4       12       43       50       51 </v>
   <v type="int" >        4       12       42       43       50 </v>
   <v type="int" >        4       13       20       21       51 </v>
   <v type="int" >        4       12       13       20       51 </v>
   <v type="int" >        4       12       13       43       51 </v>
   <v type="int" >        4       13       21       51       52 </v>
   <v type="int" >        4       13       44       51       52 </v>
   <v type="int" >        4       13       43       44       51 </v>
   <v type="int" >        4       14       21       22       52 </v>
   <v type="int" >        4       13       14       21       52 </v>
   <v type="int" >        4       13       14       44       52 </v>
   <v type="int" >        4       14       22       52       53 </v>
   <v type="int" >        4       14       45       52       53 </v>
   <v type="int" >        4       14       44       45       52 </v>
   <v type="int" >        4       14       15       22       53 </v>
   <v type="int" >        4       14       15       45       53 </v>
   <v type="int" >        4       15       45       46       53 </v>
   <v type="int" >        4        4        8        9       35 </v>
   <v type="int" >        4        3        4        8       35 </v>
   <v type="int" >        4        3        8       34       35 </v>
   <v type="int" >        4        8        9       35       40 </v>
   <v type="int" >        4        8       35       39       40 </v>
   <v type="int" >        4        8       34       35       39 </v>
   <v type="int" >        4        9       16       17       40 </v>
   <v type="int" >        4        8        9       16       40 </v>
   <v type="int" >        4        8       16       39       40 </v>
   <v type="int" >        4       16       17       40       48 </v>
   <v type="int" >        4       16       40       47       48 </v>
   <v type="int" >        4       16       39       40       47 </v>
   <v type="int" >        4       17       17       23       48 </v>
   <v type="int" >        4       16       17       17       48 </v>
   <v type="int" >        4       16       17       47       48 </v>
   <v type="int" >        4       17       23       48       54 </v>
   <v type="int" >        4       17       48       48       54 </v>
   <v type="int" >        4       17       47       48       48 </v>
   <v type="int" >        4       18       23       24       54 </v>
   <v type="int" >        4       17       18       23       54 </v>
   <v type="int" >        4       17       18       48       54 </v>
   <v type="int" >        4       18       24       54       55 </v>
   <v type="int" >        4       18       49       54       55 </v>
   <v type="int" >        4       18       48       49       54 </v>
   <v type="int" >        4       19       24       25       55 </v>
   <v type="int" >        4       18       19       24       55 </v>
   <v type="int" >        4       18       19       49       55 </v>
   <v type="int" >        4       19       25       55       56 </v>
   <v type="int" >        4       19       50       55       56 </v>
   <v type="int" >        4       19       49       50       55 </v>
   <v type="int" >        4       20       25       26       56 </v>
   <v type="int" >        4       19       20       25       56 </v>
   <v type="int" >        4       19       20       50       56 </v>
   <v type="int" >        4       20       26       56       57 </v>
   <v type="int" >        4       20       51       56       57 </v>
   <v type="int" >        4       20       50       51       56 </v>
   <v type="int" >        4       21       26       27       57 </v>
   <v type="int" >        4       20       21       26       57 </v>
   <v type="int" >        4       20       21       51       57 </v>
   <v type="int" >        4       21       27       57       58 </v>
   <v type="int" >        4       21       52       57       58 </v>
   <v type="int" >        4       21       51       52       57 </v>
   <v type="int" >        4       21       22       27       58 </v>
   <v type="int" >        4       21       22       52       58 </v>
   <v type="int" >        4       22       52       53       58 </v>
   <v type="int" >        4        5        9       10       36 </v>
   <v type="int" >        4        4        5        9       36 </v>
   <v type="int" >        4        4        9       35       36 </v>
   <v type="int" >        4        9       10       36       41 </v>
   <v type="int" >        4        9       36       40       41 </v>
   <v type="int" >        4        9       35       36       40 </v>
   <v type="int" >        4       10       17       18       41 </v>
   <v type="int" >        4        9       10       17       41 </v>
   <v type="int" >        4        9       17       40       41 </v>
   <v type="int" >        4       17       18       41       49 </v>
   <v type="int" >        4       17       41       48       49 </v>
   <v type="int" >        4       17       40       41       48 </v>
   <v type="int" >        4       18       23       24       49 </v>
   <v type="int" >        4       17       18       23       49 </v>
   <v type="int" >        4       17       23       48       49 </v>
   <v type="int" >        4       23       24       49       55 </v>
   <v type="int" >        4       23       49       54       55 </v>
   <v type="int" >        4       23       48       49       54 </v>
   <v type="int" >        4       24       24       28       55 </v>
   <v type="int" >        4       23       24       24       55 </v>
   <v type="int" >        4       23       24       54       55 </v>
   <v type="int" >        4       24       28       55       59 </v>
   <v type="int" >        4       24       55       55       59 </v>
   <v type="int" >        4       24       54       55       55 </v>
   <v type="int" >        4       25       28       29       59 </v>
   <v type="int" >        4       24       25       28       59 </v>
   <v type="int" >        4       24       25       55       59 </v>
   <v type="int" >        4       25       29       59       60 </v>
   <v type="int" >        4       25       56       59       60 </v>
   <v type="int" >        4       25       55       56       59 </v>
   <v type="int" >        4       26       29       30       60 </v>
   <v type="int" >        4       25       26       29       60 </v>
   <v type="int" >        4       25       26       56       60 </v>
   <v type="int" >        4       26       30       60       61 </v>
   <v type="int" >        4       26       57       60       61 </v>
   <v type="int" >        4       26       56       57       60 </v>
   <v type="int" >        4       26       27       30       61 </v>
   <v type="int" >        4       26       27       57       61 </v>
   <v type="int" >        4       27       57       58       61 </v>
   <v type="int" >        4        6       10       11       37 </v>
   <v type="int" >        4        5        6       10       37 </v>
   <v type="int" >        4        5       10       36       37 </v>
   <v type="int" >        4       10       11       37       42 </v>
   <v type="int" >        4       10       37       41       42 </v>
   <v type="int" >        4       10       36       37       41 </v>
   <v type="int" >        4       11       18       19       42 </v>
   <v type="int" >        4       10       11       18       42 </v>
   <v type="int" >        4       10       18       41       42 </v>
   <v type="int" >        4       18       19       42       50 </v>
   <v type="int" >        4       18       42       49       50 </v>
   <v type="int" >        4       18       41       42       49 </v>
   <v type="int" >        4       19       24       25       50 </v>
   <v type="int" >        4       18       19       24       50 </v>
   <v type="int" >        4       18       24       49       50 </v>
   <v type="int" >        4       24       25       50       56 </v>
   <v type="int" >        4       24       50       55       56 </v>
   <v type="int" >        4       24       49       50       55 </v>
   <v type="int" >        4       25       28       29       56 </v>
   <v type="int" >        4       24       25       28       56 </v>
   <v type="int" >        4       24       28       55       56 </v>
   <v type="int" >        4       28       29       56       60 </v>
   <v type="int" >        4       28       56       59       60 </v>
   <v type="int" >        4       28       55       56       59 </v>
   <v type="int" >        4       29       29       31       60 </v>
   <v type="int" >        4       28       29       29       60 </v>
   <v type="int" >        4       28       29       59       60 </v>
   <v type="int" >        4       29       31       60       62 </v>
   <v type="int" >        4       29       60       60       62 </v>
   <v type="int" >        4       29       59       60       60 </v>
   <v type="int" >        4       29       30       31       62 </v>
   <v type="int" >        4       29       30       60       62 </v>
   <v type="int" >        4       30       60       61       62 </v>
   <v type="int" >        4        5       11       12       36 </v>
   <v type="int" >        4        5        6       11       36 </v>
   <v type="int" >        4        6       11       36       37 </v>
   <v type="int" >        4       11       12       36       43 </v>
   <v type="int" >        4       11       36       42       43 </v>
   <v type="int" >        4       11       36       37       42 </v>
   <v type="int" >        4       12       19       20       43 </v>
   <v type="int" >        4       11       12       19       43 </v>
   <v type="int" >        4       11       19       42       43 </v>
   <v type="int" >        4       19       20       43       51 </v>
   <v type="int" >        4       19       43       50       51 </v>
   <v type="int" >        4       19       42       43       50 </v>
   <v type="int" >        4       20       25       26       51 </v>
   <v type="int" >        4       19       20       25       51 </v>
   <v type="int" >        4       19       25       50       51 </v>
   <v type="int" >        4       25       26       51       57 </v>
   <v type="int" >        4       25       51       56       57 </v>
   <v type="int" >        4       25       50       51       56 </v>
   <v type="int" >        4       26       29       30       57 </v>
   <v type="int" >        4       25       26       29       57 </v>
   <v type="int" >        4       25       29       56       57 </v>
   <v type="int" >        4       29       30       57       61 </v>
   <v type="int" >        4       29       57       60       61 </v>
   <v type="int" >        4       29       56       57       60 </v>
   <v type="int" >        4       29       30       31       61 </v>
   <v type="int" >        4       29       31       60       61 </v>
   <v type="int" >        4       31       60       61       62 </v>
   <v type="int" >        4        4       12       13       35 </v>
   <v type="int" >        4        4        5       12       35 </v>
   <v type="int" >        4        5       12       35       36 </v>
   <v type="int" >        4       12       13       35       44 </v>
   <v type="int" >        4       12       35       43       44 </v>
   <v type="int" >        4       12       35       36       43 </v>
   <v type="int" >        4       13       20       21       44 </v>
   <v type="int" >        4       12       13       20       44 </v>
   <v type="int" >        4       12       20       43       44 </v>
   <v type="int" >        4       20       21       44       52 </v>
   <v type="int" >        4       20       44       51       52 </v>
   <v type="int" >        4       20       43       44       51 </v>
   <v type="int" >        4       21       26       27       52 </v>
   <v type="int" >        4       20       21       26       52 </v>
   <v type="int" >        4       20       26       51       52 </v>
   <v type="int" >        4       26       27       52       58 </v>
   <v type="int" >        4       26       52       57       58 </v>
   <v type="int" >        4       26       51       52       57 </v>
   <v type="int" >        4       26       27       30       58 </v>
   <v type="int" >        4       26       30       57       58 </v>
   <v type="int" >        4       30       57       58       61 </v>
   <v type="int" >        4        3       13       14       34 </v>
   <v type="int" >        4        3        4       13       34 </v>
   <v type="int" >        4        4       13       34       35 </v>
   <v type="int" >        4       13       14       34       45 </v>
   <v type="int" >        4       13       34       44       45 </v>
   <v type="int" >        4       13       34       35       44 </v>
   <v type="int" >        4       14       21       22       45 </v>
   <v type="int" >        4       13       14       21       45 </v>
   <v type="int" >        4       13       21       44       45 </v>
   <v type="int" >        4       21       22       45       53 </v>
   <v type="int" >        4       21       45       52       53 </v>
   <v type="int" >        4       21       44       45       52 </v>
   <v type="int" >        4       21       22       27       53 </v>
   <v type="int" >        4       21       27       52       53 </v>
   <v type="int" >        4       27       52       53       58 </v>
   <v type="int" >        4        2       14       15       33 </v>
   <v type="int" >        4        2        3       14       33 </v>
   <v type="int" >        4        3       14       33       34 </v>
   <v type="int" >        4       14       15       33       46 </v>
   <v type="int" >        4       14       33       45       46 </v>
   <v type="int" >        4       14       33       34       45 </v>
   <v type="int" >        4       14       15       22       46 </v>
   <v type="int" >        4       14       22       45       46 </v>
   <v type="int" >        4       22       45       46       53 </v>
   <v type="int" >        4        1        2       15       32 </v>
   <v type="int" >        4        2       15       32       33 </v>
   <v type="int" >        4       15       32       33       46 </v>
   <v type="int" >        4       33       33       38       64 </v>
   <v type="int" >        4       32       33       33       64 </v>
   <v type="int" >        4       32       33       63       64 </v>
   <v type="int" >        4       33       38       64       69 </v>
   <v type="int" >        4       33       64       64       69 </v>
   <v type="int" >        4       33       63       64       64 </v>
   <v type="int" >        4       34       38       39       69 </v>
   <v type="int" >        4       33       34       38       69 </v>
   <v type="int" >        4       33       34       64       69 </v>
   <v type="int" >        4       34       39       69       70 </v>
   <v type="int" >        4       34       65       69       70 </v>
   <v type="int" >        4       34       64       65       69 </v>
   <v type="int" >        4       35       39       40       70 </v>
   <v type="int" >        4       34       35       39       70 </v>
   <v type="int" >        4       34       35       65       70 </v>
   <v type="int" >        4       35       40       70       71 </v>
   <v type="int" >        4       35       66       70       71 </v>
   <v type="int" >        4       35       65       66       70 </v>
   <v type="int" >        4       36       40       41       71 </v>
   <v type="int" >        4       35       36       40       71 </v>
   <v type="int" >        4       35       36       66       71 </v>
   <v type="int" >        4       36       41       71       72 </v>
   <v type="int" >        4       36       67       71       72 </v>
   <v type="int" >        4       36       66       67       71 </v>
   <v type="int" >        4       37       41       42       72 </v>
   <v type="int" >        4       36       37       41       72 </v>
   <v type="int" >        4       36       37       67       72 </v>
   <v type="int" >        4       37       42       72       73 </v>
   <v type="int" >        4       37       68       72       73 </v>
   <v type="int" >        4       37       67       68       72 </v>
   <v type="int" >        4       36       42       43       73 </v>
   <v type="int" >        4       36       37       42       73 </v>
   <v type="int" >        4       36       37       68       73 </v>
   <v type="int" >        4       36       43       73       74 </v>
   <v type="int" >        4       36       67       73       74 </v>
   <v type="int" >        4       36       67       68       73 </v>
   <v type="int" >        4       35       43       44       74 </v>
   <v type="int" >        4       35       36       43       74 </v>
   <v type="int" >        4       35       36       67       74 </v>
   <v type="int" >        4       35       44       74       75 </v>
   <v type="int" >        4       35       66       74       75 </v>
   <v type="int" >        4       35       66       67       74 </v>
   <v type="int" >        4       34       44       45       75 </v>
   <v type="int" >        4       34       35       44       75 </v>
   <v type="int" >        4       34       35       66       75 </v>
   <v type="int" >        4       34       45       75       76 </v>
   <v type="int" >        4       34       65       75       76 </v>
   <v type="int" >        4       34       65       66       75 </v>
   <v type="int" >        4       33       45       46       76 </v>
   <v type="int" >        4       33       34       45       76 </v>
   <v type="int" >        4       33       34       65       76 </v>
   <v type="int" >        4       33       46       76       77 </v>
   <v type="int" >        4       33       64       76       77 </v>
   <v type="int" >        4       33       64       65       76 </v>
   <v type="int" >        4       32       33       46       77 </v>
   <v type="int" >        4       32       33       64       77 </v>
   <v type="int" >        4       32       63       64       77 </v>
   <v type="int" >        4       34       38       39       65 </v>
   <v type="int" >        4       33       34       38       65 </v>
   <v type="int" >        4       33       38       64       65 </v>
   <v type="int" >        4       38       39       65       70 </v>
   <v type="int" >        4       38       65       69       70 </v>
   <v type="int" >        4       38       64       65       69 </v>
   <v type="int" >        4       39       39       47       70 </v>
   <v type="int" >        4       38       39       39       70 </v>
   <v type="int" >        4       38       39       69       70 </v>
   <v type="int" >        4       39       47       70       78 </v>
   <v type="int" >        4       39       70       70       78 </v>
   <v type="int" >        4       39       69       70       70 </v>
   <v type="int" >        4       40       47       48       78 </v>
   <v type="int" >        4       39       40       47       78 </v>
   <v type="int" >        4       39       40       70       78 </v>
   <v type="int" >        4       40       48       78       79 </v>
   <v type="int" >        4       40       71       78       79 </v>
   <v type="int" >        4       40       70       71       78 </v>
   <v type="int" >        4       41       48       49       79 </v>
   <v type="int" >        4       40       41       48       79 </v>
   <v type="int" >        4       40       41       71       79 </v>
   <v type="int" >        4       41       49       79       80 </v>
   <v type="int" >        4       41       72       79       80 </v>
   <v type="int" >        4       41       71       72       79 </v>
   <v type="int" >        4       42       49       50       80 </v>
   <v type="int" >        4       41       42       49       80 </v>
   <v type="int" >        4       41       42       72       80 </v>
   <v type="int" >        4       42       50       80       81 </v>
   <v type="int" >        4       42       73       80       81 </v>
   <v type="int" >        4       42       72       73       80 </v>
   <v type="int" >        4       43       50       51       81 </v>
   <v type="int" >        4       42       43       50       81 </v>
   <v type="int" >        4       42       43       73       81 </v>
   <v type="int" >        4       43       51       81       82 </v>
   <v type="int" >        4       43       74       81       82 </v>
   <v type="int" >        4       43       73       74       81 </v>
   <v type="int" >        4       44       51       52       82 </v>
   <v type="int" >        4       43       44       51       82 </v>
   <v type="int" >        4       43       44       74       82 </v>
   <v type="int" >        4       44       52       82       83 </v>
   <v type="int" >        4       44       75       82       83 </v>
   <v type="int" >        4       44       74       75       82 </v>
   <v type="int" >        4       45       52       53       83 </v>
   <v type="int" >        4       44       45       52       83 </v>
   <v type="int" >        4       44       45       75       83 </v>
   <v type="int" >        4       45       53       83       84 </v>
   <v type="int" >        4       45       76       83       84 </v>
   <v type="int" >        4       45       75       76       83 </v>
   <v type="int" >        4       45       46       53       84 </v>
   <v type="int" >        4       45       46       76       84 </v>
   <v type="int" >        4       46       76       77       84 </v>
   <v type="int" >        4       35       39       40       66 </v>
   <v type="int" >        4       34       35       39       66 </v>
   <v type="int" >        4       34       39       65       66 </v>
   <v type="int" >        4       39       40       66       71 </v>
   <v type="int" >        4       39       66       70       71 </v>
   <v type="int" >        4       39       65       66       70 </v>
   <v type="int" >        4       40       47       48       71 </v>
   <v type="int" >        4       39       40       47       71 </v>
   <v type="int" >        4       39       47       70       71 </v>
   <v type="int" >        4       47       48       71       79 </v>
   <v type="int" >        4       47       71       78       79 </v>
   <v type="int" >        4       47       70       71       78 </v>
   <v type="int" >        4       48       48       54       79 </v>
   <v type="int" >        4       47       48       48       79 </v>
   <v type="int" >        4       47       48       78       79 </v>
   <v type="int" >        4       48       54       79       85 </v>
   <v type="int" >        4       48       79       79       85 </v>
   <v type="int" >        4       48       78       79       79 </v>
   <v type="int" >        4       49       54       55       85 </v>
   <v type="int" >        4       48       49       54       85 </v>
   <v type="int" >        4       48       49       79       85 </v>
   <v type="int" >        4       49       55       85       86 </v>
   <v type="int" >        4       49       80       85       86 </v>
   <v type="int" >        4       49       79       80       85 </v>
   <v type="int" >        4       50       55       56       86 </v>
   <v type="int" >        4       49       50       55       86 </v>
   <v type="int" >        4       49       50       80       86 </v>
   <v type="int" >        4       50       56       86       87 </v>
   <v type="int" >        4       50       81       86       87 </v>
   <v type="int" >        4       50       80       81       86 </v>
   <v type="int" >        4       51       56       57       87 </v>
   <v type="int" >        4       50       51       56       87 </v>
   <v type="int" >        4       50       51       81       87 </v>
   <v type="int" >        4       51       57       87       88 </v>
   <v type="int" >        4       51       82       87       88 </v>
   <v type="int" >        4       51       81       82       87 </v>
   <v type="int" >        4       52       57       58       88 </v>
   <v type="int" >        4       51       52       57       88 </v>
   <v type="int" >        4       51       52       82       88 </v>
   <v type="int" >        4       52       58       88       89 </v>
   <v type="int" >        4       52       83       88       89 </v>
   <v type="int" >        4       52       82       83       88 </v>
   <v type="int" >        4       52       53       58       89 </v>
   <v type="int" >        4       52       53       83       89 </v>
   <v type="int" >        4       53       83       84       89 </v>
   <v type="int" >        4       36       40       41       67 </v>
   <v type="int" >        4       35       36       40       67 </v>
   <v type="int" >        4       35       40       66       67 </v>
   <v type="int" >        4       40       41       67       72 </v>
   <v type="int" >        4       40       67       71       72 </v>
   <v type="int" >        4       40       66       67       71 </v>
   <v type="int" >        4       41       48       49       72 </v>
   <v type="int" >        4       40       41       48       72 </v>
   <v type="int" >        4       40       48       71       72 </v>
   <v type="int" >        4       48       49       72       80 </v>
   <v type="int" >        4       48       72       79       80 </v>
   <v type="int" >        4       48       71       72       79 </v>
   <v type="int" >        4       49       54       55       80 </v>
   <v type="int" >        4       48       49       54       80 </v>
   <v type="int" >        4       48       54       79       80 </v>
   <v type="int" >        4       54       55       80       86 </v>
   <v type="int" >        4       54       80       85       86 </v>
   <v type="int" >        4       54       79       80       85 </v>
   <v type="int" >        4       55       55       59       86 </v>
   <v type="int" >        4       54       55       55       86 </v>
   <v type="int" >        4       54       55       85       86 </v>
   <v type="int" >        4       55       59       86       90 </v>
   <v type="int" >        4       55       86       86       90 </v>
   <v type="int" >        4       55       85       86       86 </v>
   <v type="int" >        4       56       59       60       90 </v>
   <v type="int" >        4       55       56       59       90 </v>
   <v type="int" >        4       55       56       86       90 </v>
   <v type="int" >        4       56       60       90       91 </v>
   <v type="int" >        4       56       87       90       91 </v>
   <v type="int" >        4       56       86       87       90 </v>
   <v type="int" >        4       57       60       61       91 </v>
   <v type="int" >        4       56       57       60       91 </v>
   <v type="int" >        4       56       57       87       91 </v>
   <v type="int" >        4       57       61       91       92 </v>
   <v type="int" >        4       57       88       91       92 </v>
   <v type="int" >        4       57       87       88       91 </v>
   <v type="int" >        4       57       58       61       92 </v>
   <v type="int" >        4       57       58       88       92 </v>
   <v type="int" >        4       58       88       89       92 </v>
   <v type="int" >        4       37       41       42       68 </v>
   <v type="int" >        4       36       37       41       68 </v>
   <v type="int" >        4       36       41       67       68 </v>
   <v type="int" >        4       41       42       68       73 </v>
   <v type="int" >        4       41       68       72       73 </v>
   <v type="int" >        4       41       67       68       72 </v>
   <v type="int" >        4       42       49       50       73 </v>
   <v type="int" >        4       41       42       49       73 </v>
   <v type="int" >        4       41       49       72       73 </v>
   <v type="int" >        4       49       50       73       81 </v>
   <v type="int" >        4       49       73       80       81 </v>
   <v type="int" >        4       49       72       73       80 </v>
   <v type="int" >        4       50       55       56       81 </v>
   <v type="int" >        4       49       50       55       81 </v>
   <v type="int" >        4       49       55       80       81 </v>
   <v type="int" >        4       55       56       81       87 </v>
   <v type="int" >        4       55       81       86       87 </v>
   <v type="int" >        4       55       80       81       86 </v>
   <v type="int" >        4       56       59       60       87 </v>
   <v type="int" >        4       55       56       59       87 </v>
   <v type="int" >        4       55       59       86       87 </v>
   <v type="int" >        4       59       60       87       91 </v>
   <v type="int" >        4       59       87       90       91 </v>
   <v type="int" >        4       59       86       87       90 </v>
   <v type="int" >        4       60       60       62       91 </v>
   <v type="int" >        4       59       60       60       91 </v>
   <v type="int" >        4       59       60       90       91 </v>
   <v type="int" >        4       60       62       91       93 </v>
   <v type="int" >        4       60       91       91       93 </v>
   <v type="int" >        4       60       90       91       91 </v>
   <v type="int" >        4       60       61       62       93 </v>
   <v type="int" >        4       60       61       91       93 </v>
   <v type="int" >        4       61       91       92       93 </v>
   <v type="int" >        4       36       42       43       67 </v>
   <v type="int" >        4       36       37       42       67 </v>
   <v type="int" >        4       37       42       67       68 </v>
   <v type="int" >        4       42       43       67       74 </v>
   <v type="int" >        4       42       67       73       74 </v>
   <v type="int" >        4       42       67       68       73 </v>
   <v type="int" >        4       43       50       51       74 </v>
   <v type="int" >        4       42       43       50       74 </v>
   <v type="int" >        4       42       50       73       74 </v>
   <v type="int" >        4       50       51       74       82 </v>
   <v type="int" >        4       50       74       81       82 </v>
   <v type="int" >        4       50       73       74       81 </v>
   <v type="int" >        4       51       56       57       82 </v>
   <v type="int" >        4       50       51       56       82 </v>
   <v type="int" >        4       50       56       81       82 </v>
   <v type="int" >        4       56       57       82       88 </v>
   <v type="int" >        4       56       82       87       88 </v>
   <v type="int" >        4       56       81       82       87 </v>
   <v type="int" >        4       57       60       61       88 </v>
   <v type="int" >        4       56       57       60       88 </v>
   <v type="int" >        4       56       60       87       88 </v>
   <v type="int" >        4       60       61       88       92 </v>
   <v type="int" >        4       60       88       91       92 </v>
   <v type="int" >        4       60       87       88       91 </v>
   <v type="int" >        4       60       61       62       92 </v>
   <v type="int" >        4       60       62       91       92 </v>
   <v type="int" >        4       62       91       92       93 </v>
   <v type="int" >        4       35       43       44       66 </v>
   <v type="int" >        4       35       36       43       66 </v>
   <v type="int" >        4       36       43       66       67 </v>
   <v type="int" >        4       43       44       66       75 </v>
   <v type="int" >        4       43       66       74       75 </v>
   <v type="int" >        4       43       66       67       74 </v>
   <v type="int" >        4       44       51       52       75 </v>
   <v type="int" >        4       43       44       51       75 </v>
   <v type="int" >        4       43       51       74       75 </v>
   <v type="int" >        4       51       52       75       83 </v>
   <v type="int" >        4       51       75       82       83 </v>
   <v type="int" >        4       51       74       75       82 </v>
   <v type="int" >        4       52       57       58       83 </v>
   <v type="int" >        4       51       52       57       83 </v>
   <v type="int" >        4       51       57       82       83 </v>
   <v type="int" >        4       57       58       83       89 </v>
   <v type="int" >        4       57       83       88       89 </v>
   <v type="int" >        4       57       82       83       88 </v>
   <v type="int" >        4       57       58       61       89 </v>
   <v type="int" >        4       57       61       88       89 </v>
   <v type="int" >        4       61       88       89       92 </v>
   <v type="int" >        4       34       44       45       65 </v>
   <v type="int" >        4       34       35       44       65 </v>
   <v type="int" >        4       35       44       65       66 </v>
   <v type="int" >        4       44       45       65       76 </v>
   <v type="int" >        4       44       65       75       76 </v>
   <v type="int" >        4       44       65       66       75 </v>
   <v type="int" >        4       45       52       53       76 </v>
   <v type="int" >        4       44       45       52       76 </v>
   <v type="int" >        4       44       52       75       76 </v>
   <v type="int" >        4       52       53       76       84 </v>
   <v type="int" >        4       52       76       83       84 </v>
   <v type="int" >        4       52       75       76       83 </v>
   <v type="int" >        4       52       53       58       84 </v>
   <v type="int" >        4       52       58       83       84 </v>
   <v type="int" >        4       58       83       84       89 </v>
   <v type="int" >        4       33       45       46       64 </v>
   <v type="int" >        4       33       34       45       64 </v>
   <v type="int" >        4       34       45       64       65 </v>
   <v type="int" >        4       45       46       64       77 </v>
   <v type="int" >        4       45       64       76       77 </v>
   <v type="int" >        4       45       64       65       76 </v>
   <v type="int" >        4       45       46       53       77 </v>
   <v type="int" >        4       45       53       76       77 </v>
   <v type="int" >        4       53       76       77       84 </v>
   <v type="int" >        4       32       33       46       63 </v>
   <v type="int" >        4       33       46       63       64 </v>
   <v type="int" >        4       46       63       64       77 </v>
   <v type="int" >        4       64       64       69       95 </v>
   <v type="int" >        4       63       64       64       95 </v>
   <v type="int" >        4       63       64       94       95 </v>
   <v type="int" >        4       64       69       95      100 </v>
   <v type="int" >        4       64       95       95      100 </v>
   <v type="int" >        4       64       94       95       95 </v>
   <v type="int" >        4       65       69       70      100 </v>
   <v type="int" >        4       64       65       69      100 </v>
   <v type="int" >        4       64       65       95      100 </v>
   <v type="int" >        4       65       70      100      101 </v>
   <v type="int" >        4       65       96      100      101 </v>
   <v type="int" >        4       65       95       96      100 </v>
   <v type="int" >        4       66       70       71      101 </v>
   <v type="int" >        4       65       66       70      101 </v>
   <v type="int" >        4       65       66       96      101 </v>
   <v type="int" >        4       66       71      101      102 </v>
   <v type="int" >        4       66       97      101      102 </v>
   <v type="int" >        4       66       96       97      101 </v>
   <v type="int" >        4       67       71       72      102 </v>
   <v type="int" >        4       66       67       71      102 </v>
   <v type="int" >        4       66       67       97      102 </v>
   <v type="int" >        4       67       72      102      103 </v>
   <v type="int" >        4       67       98      102      103 </v>
   <v type="int" >        4       67       97       98      102 </v>
   <v type="int" >        4       68       72       73      103 </v>
   <v type="int" >        4       67       68       72      103 </v>
   <v type="int" >        4       67       68       98      103 </v>
   <v type="int" >        4       68       73      103      104 </v>
   <v type="int" >        4       68       99      103      104 </v>
   <v type="int" >        4       68       98       99      103 </v>
   <v type="int" >        4       67       73       74      104 </v>
   <v type="int" >        4       67       68       73      104 </v>
   <v type="int" >        4       67       68       99      104 </v>
   <v type="int" >        4       67       74      104      105 </v>
   <v type="int" >        4       67       98      104      105 </v>
   <v type="int" >        4       67       98       99      104 </v>
   <v type="int" >        4       66       74       75      105 </v>
   <v type="int" >        4       66       67       74      105 </v>
   <v type="int" >        4       66       67       98      105 </v>
   <v type="int" >        4       66       75      105      106 </v>
   <v type="int" >        4       66       97      105      106 </v>
   <v type="int" >        4       66       97       98      105 </v>
   <v type="int" >        4       65       75       76      106 </v>
   <v type="int" >        4       65       66       75      106 </v>
   <v type="int" >        4       65       66       97      106 </v>
   <v type="int" >        4       65       76      106      107 </v>
   <v type="int" >        4       65       96      106      107 </v>
   <v type="int" >        4       65       96       97      106 </v>
   <v type="int" >        4       64       76       77      107 </v>
   <v type="int" >        4       64       65       76      107 </v>
   <v type="int" >        4       64       65       96      107 </v>
   <v type="int" >        4       64       77      107      108 </v>
   <v type="int" >        4       64       95      107      108 </v>
   <v type="int" >        4       64       95       96      107 </v>
   <v type="int" >        4       63       64       77      108 </v>
   <v type="int" >        4       63       64       95      108 </v>
   <v type="int" >        4       63       94       95      108 </v>
   <v type="int" >        4       65       69       70       96 </v>
   <v type="int" >        4       64       65       69       96 </v>
   <v type="int" >        4       64       69       95       96 </v>
   <v type="int" >        4       69       70       96      101 </v>
   <v type="int" >        4       69       96      100      101 </v>
   <v type="int" >        4       69       95       96      100 </v>
   <v type="int" >        4       70       70       78      101 </v>
   <v type="int" >        4       69       70       70      101 </v>
   <v type="int" >        4       69       70      100      101 </v>
   <v type="int" >        4       70       78      101      109 </v>
   <v type="int" >        4       70      101      101      109 </v>
   <v type="int" >        4       70      100      101      101 </v>
   <v type="int" >        4       71       78       79      109 </v>
   <v type="int" >        4       70       71       78      109 </v>
   <v type="int" >        4       70       71      101      109 </v>
   <v type="int" >        4       71       79      109      110 </v>
   <v type="int" >        4       71      102      109      110 </v>
   <v type="int" >        4       71      101      102      109 </v>
   <v type="int" >        4       72       79       80      110 </v>
   <v type="int" >        4       71       72       79      110 </v>
   <v type="int" >        4       71       72      102      110 </v>
   <v type="int" >        4       72       80      110      111 </v>
   <v type="int" >        4       72      103      110      111 </v>
   <v type="int" >        4       72      102      103      110 </v>
   <v type="int" >        4       73       80       81      111 </v>
   <v type="int" >        4       72       73       80      111 </v>
   <v type="int" >        4       72       73      103      111 </v>
   <v type="int" >        4       73       81      111      112 </v>
   <v type="int" >        4       73      104      111      112 </v>
   <v type="int" >        4       73      103      104      111 </v>
   <v type="int" >        4       74       81       82      112 </v>
   <v type="int" >        4       73       74       81      112 </v>
   <v type="int" >        4       73       74      104      112 </v>
   <v type="int" >        4       74       82      112      113 </v>
   <v type="int" >        4       74      105      112      113 </v>
   <v type="int" >        4       74      104      105      112 </v>
   <v type="int" >        4       75       82       83      113 </v>
   <v type="int" >        4       74       75       82      113 </v>
   <v type="int" >        4       74       75      105      113 </v>
   <v type="int" >        4       75       83      113      114 </v>
   <v type="int" >        4       75      106      113      114 </v>
   <v type="int" >        4       75      105      106      113 </v>
   <v type="int" >        4       76       83       84      114 </v>
   <v type="int" >        4       75       76       83      114 </v>
   <v type="int" >        4       75       76      106      114 </v>
   <v type="int" >        4       76       84      114      115 </v>
   <v type="int" >        4       76      107      114      115 </v>
   <v type="int" >        4       76      106      107      114 </v>
   <v type="int" >        4       76       77       84      115 </v>
   <v type="int" >        4       76       77      107      115 </v>
   <v type="int" >        4       77      107      108      115 </v>
   <v type="int" >        4       66       70       71       97 </v>
   <v type="int" >        4       65       66       70       97 </v>
   <v type="int" >        4       65       70       96       97 </v>
   <v type="int" >        4       70       71       97      102 </v>
   <v type="int" >        4       70       97      101      102 </v>
   <v type="int" >        4       70       96       97      101 </v>
   <v type="int" >        4       71       78       79      102 </v>
   <v type="int" >        4       70       71       78      102 </v>
   <v type="int" >        4       70       78      101      102 </v>
   <v type="int" >        4       78       79      102      110 </v>
   <v type="int" >        4       78      102      109      110 </v>
   <v type="int" >        4       78      101      102      109 </v>
   <v type="int" >        4       79       79       85      110 </v>
   <v type="int" >        4       78       79       79      110 </v>
   <v type="int" >        4       78       79      109      110 </v>
   <v type="int" >        4       79       85      110      116 </v>
   <v type="int" >        4       79      110      110      116 </v>
   <v type="int" >        4       79      109      110      110 </v>
   <v type="int" >        4       80       85       86      116 </v>
   <v type="int" >        4       79       80       85      116 </v>
   <v type="int" >        4       79       80      110      116 </v>
   <v type="int" >        4       80       86      116      117 </v>
   <v type="int" >        4       80      111      116      117 </v>
   <v type="int" >        4       80      110      111      116 </v>
   <v type="int" >        4       81       86       87      117 </v>
   <v type="int" >        4       80       81       86      117 </v>
   <v type="int" >        4       80       81      111      117 </v>
   <v type="int" >        4       81       87      117      118 </v>
   <v type="int" >        4       81      112      117      118 </v>
   <v type="int" >        4       81      111      112      117 </v>
   <v type="int" >        4       82       87       88      118 </v>
   <v type="int" >        4       81       82       87      118 </v>
   <v type="int" >        4       81       82      112      118 </v>
   <v type="int" >        4       82       88      118      119 </v>
   <v type="int" >        4       82      113      118      119 </v>
   <v type="int" >        4       82      112      113      118 </v>
   <v type="int" >        4       83       88       89      119 </v>
   <v type="int" >        4       82       83       88      119 </v>
   <v type="int" >        4       82       83      113      119 </v>
   <v type="int" >        4       83       89      119      120 </v>
   <v type="int" >        4       83      114      119      120 </v>
   <v type="int" >        4       83      113      114      119 </v>
   <v type="int" >        4       83       84       89      120 </v>
   <v type="int" >        4       83       84      114      120 </v>
   <v type="int" >        4       84      114      115      120 </v>
   <v type="int" >        4       67       71       72       98 </v>
   <v type="int" >        4       66       67       71       98 </v>
   <v type="int" >        4       66       71       97       98 </v>
   <v type="int" >        4       71       72       98      103 </v>
   <v type="int" >        4       71       98      102      103 </v>
   <v type="int" >        4       71       97       98      102 </v>
   <v type="int" >        4       72       79       80      103 </v>
   <v type="int" >        4       71       72       79      103 </v>
   <v type="int" >        4       71       79      102      103 </v>
   <v type="int" >        4       79       80      103      111 </v>
   <v type="int" >        4       79      103      110      111 </v>
   <v type="int" >        4       79      102      103      110 </v>
   <v type="int" >        4       80       85       86      111 </v>
   <v type="int" >        4       79       80       85      111 </v>
   <v type="int" >        4       79       85      110      111 </v>
   <v type="int" >        4       85       86      111      117 </v>
   <v type="int" >        4       85      111      116      117 </v>
   <v type="int" >        4       85      110      111      116 </v>
   <v type="int" >        4       86       86       90      117 </v>
   <v type="int" >        4       85       86       86      117 </v>
   <v type="int" >        4       85       86      116      117 </v>
   <v type="int" >        4       86       90      117      121 </v>
   <v type="int" >        4       86      117      117      121 </v>
   <v type="int" >        4       86      116      117      117 </v>
   <v type="int" >        4       87       90       91      121 </v>
   <v type="int" >        4       86       87       90      121 </v>
   <v type="int" >        4       86       87      117      121 </v>
   <v type="int" >        4       87       91      121      122 </v>
   <v type="int" >        4       87      118      121      122 </v>
   <v type="int" >        4       87      117      118      121 </v>
   <v type="int" >        4       88       91       92      122 </v>
   <v type="int" >        4       87       88       91      122 </v>
   <v type="int" >        4       87       88      118      122 </v>
   <v type="int" >        4       88       92      122      123 </v>
   <v type="int" >        4       88      119      122      123 </v>
   <v type="int" >        4       88      118      119      122 </v>
   <v type="int" >        4       88       89       92      123 </v>
   <v type="int" >        4       88       89      119      123 </v>
   <v type="int" >        4       89      119      120      123 </v>
   <v type="int" >        4       68       72       73       99 </v>
   <v type="int" >        4       67       68       72       99 </v>
   <v type="int" >        4       67       72       98       99 </v>
   <v type="int" >        4       72       73       99      104 </v>
   <v type="int" >        4       72       99      103      104 </v>
   <v type="int" >        4       72       98       99      103 </v>
   <v type="int" >        4       73       80       81      104 </v>
   <v type="int" >        4       72       73       80      104 </v>
   <v type="int" >        4       72       80      103      104 </v>
   <v type="int" >        4       80       81      104      112 </v>
   <v type="int" >        4       80      104      111      112 </v>
   <v type="int" >        4       80      103      104      111 </v>
   <v type="int" >        4       81       86       87      112 </v>
   <v type="int" >        4       80       81       86      112 </v>
   <v type="int" >        4       80       86      111      112 </v>
   <v type="int" >        4       86       87      112      118 </v>
   <v type="int" >        4       86      112      117      118 </v>
   <v type="int" >        4       86      111      112      117 </v>
   <v type="int" >        4       87       90       91      118 </v>
   <v type="int" >        4       86       87       90      118 </v>
   <v type="int" >        4       86       90      117      118 </v>
   <v type="int" >        4       90       91      118      122 </v>
   <v type="int" >        4       90      118      121      122 </v>
   <v type="int" >        4       90      117      118      121 </v>
   <v type="int" >        4       91       91       93      122 </v>
   <v type="int" >        4       90       91       91      122 </v>
   <v type="int" >        4       90       91      121      122 </v>
   <v type="int" >        4       91       93      122      124 </v>
   <v type="int" >        4       91      122      122      124 </v>
   <v type="int" >        4       91      121      122      122 </v>
   <v type="int" >        4       91       92       93      124 </v>
   <v type="int" >        4       91       92      122      124 </v>
   <v type="int" >        4       92      122      123      124 </v>
   <v type="int" >        4       67       73       74       98 </v>
   <v type="int" >        4       67       68       73       98 </v>
   <v type="int" >        4       68       73       98       99 </v>
   <v type="int" >        4       73       74       98      105 </v>
   <v type="int" >        4       73       98      104      105 </v>
   <v type="int" >        4       73       98       99      104 </v>
   <v type="int" >        4       74       81       82      105 </v>
   <v type="int" >        4       73       74       81      105 </v>
   <v type="int" >        4       73       81      104      105 </v>
   <v type="int" >        4       81       82      105      113 </v>
   <v type="int" >        4       81      105      112      113 </v>
   <v type="int" >        4       81      104      105      112 </v>
   <v type="int" >        4       82       87       88      113 </v>
   <v type="int" >        4       81       82       87      113 </v>
   <v type="int" >        4       81       87      112      113 </v>
   <v type="int" >        4       87       88      113      119 </v>
   <v type="int" >        4       87      113      118      119 </v>
   <v type="int" >        4       87      112      113      118 </v>
   <v type="int" >        4       88       91       92      119 </v>
   <v type="int" >        4       87       88       91      119 </v>
   <v type="int" >        4       87       91      118      119 </v>
[...]
       <r>    7.7918    1.0000 </r>
       <r>    9.3858    1.0000 </r>
       <r>    9.3858    1.0000 </r>
       <r>    9.6912    0.8679 </r>
       <r>    9.6912    0.8156 </r>
       <r>   10.0843    0.0000 </r>
       <r>   10.0843    0.0000 </r>
       <r>   10.5767    0.0000 </r>
       <r>   10.5767    0.0000 </r>
       <r>   10.6408    0.0000 </r>
       <r>   10.6408    0.0000 </r>
       <r>   10.6524    0.0000 </r>
       <r>   10.6524    0.0000 </r>
       <r>   13.3612    0.0000 </r>
       <r>   13.3612    0.0000 </r>
       <r>   13.4720    0.0000 </r>
       <r>   13.4720    0.0000 </r>
       <r>   19.3844    0.0000 </r>
       <r>   19.3844    0.0000 </r>
       <r>   20.0656    0.0000 </r>
       <r>   20.0656    0.0000 </r>
       <r>   22.5287    0.0000 </r>
       <r>   22.5287    0.0000 </r>
       <r>   22.5458    0.0000 </r>
       <r>   22.5458    0.0000 </r>
       <r>   22.9259    0.0000 </r>
       <r>   22.9259    0.0000 </r>
       <r>   24.3772    0.0000 </r>
       <r>   24.3772    0.0000 </r>
       <r>   25.5145    0.0000 </r>
       <r>   25.5148    0.0000 </r>
       <r>   26.1587    0.0000 </r>
       <r>   26.1807    0.0000 </r>
      </set>
      <set comment="kpoint 217">
       <r>    2.6136    1.0000 </r>
       <r>    2.6136    1.0000 </r>
       <r>    3.0583    1.0000 </r>
       <r>    3.0583    1.0000 </r>
       <r>    3.4739    1.0000 </r>
       <r>    3.4739    1.0000 </r>
       <r>    3.6188    1.0000 </r>
       <r>    3.6188    1.0000 </r>
       <r>    4.5916    1.0000 </r>
       <r>    4.5916    1.0000 </r>
       <r>    4.9226    1.0000 </r>
       <r>    4.9226    1.0000 </r>
       <r>    5.0695    1.0000 </r>
       <r>    5.0695    1.0000 </r>
       <r>    5.1065    1.0000 </r>
       <r>    5.1065    1.0000 </r>
       <r>    5.8972    1.0000 </r>
       <r>    5.8972    1.0000 </r>
       <r>    5.9529    1.0000 </r>
       <r>    5.9529    1.0000 </r>
       <r>    6.2072    1.0000 </r>
       <r>    6.2072    1.0000 </r>
       <r>    6.5181    1.0000 </r>
       <r>    6.5181    1.0000 </r>
       <r>    7.2124    1.0000 </r>
       <r>    7.2124    1.0000 </r>
       <r>    7.2832    1.0000 </r>
       <r>    7.2832    1.0000 </r>
       <r>    7.6008    1.0000 </r>
       <r>    7.6008    1.0000 </r>
       <r>    7.6278    1.0000 </r>
       <r>    7.6278    1.0000 </r>
       <r>    9.4070    1.0000 </r>
       <r>    9.4070    1.0000 </r>
       <r>    9.5400    1.0000 </r>
       <r>    9.5400    1.1969 </r>
       <r>   10.2725    0.0000 </r>
       <r>   10.2725    0.0000 </r>
       <r>   10.4461    0.0000 </r>
       <r>   10.4461    0.0000 </r>
       <r>   10.5998    0.0000 </r>
       <r>   10.5998    0.0000 </r>
       <r>   10.6703    0.0000 </r>
       <r>   10.6703    0.0000 </r>
       <r>   13.4469    0.0000 </r>
       <r>   13.4469    0.0000 </r>
       <r>   13.5733    0.0000 </r>
       <r>   13.5733    0.0000 </r>
       <r>   19.8219    0.0000 </r>
       <r>   19.8219    0.0000 </r>
       <r>   20.4586    0.0000 </r>
       <r>   20.4586    0.0000 </r>
       <r>   21.9979    0.0000 </r>
       <r>   21.9979    0.0000 </r>
       <r>   22.4626    0.0000 </r>
       <r>   22.4626    0.0000 </r>
       <r>   23.4448    0.0000 </r>
       <r>   23.4448    0.0000 </r>
       <r>   24.0630    0.0000 </r>
       <r>   24.0630    0.0000 </r>
       <r>   25.5004    0.0000 </r>
       <r>   25.5048    0.0000 </r>
       <r>   25.9006    0.0000 </r>
       <r>   26.8620    0.0000 </r>
      </set>
     </set>
    </set>
   </array>
  </eigenvalues>
  <separator name="orbital magnetization" >
   <v name="MAGDIPOLOUT">      0.00000000      0.00000000      0.00000000</v>
  </separator>
  <dos>
   <i name="efermi">      9.75099916 </i>
   <total>
    <array>
     <dimension dim="1">gridpoints</dimension>
     <dimension dim="2">spin</dimension>
     <field>energy</field>
     <field>total</field>
     <field>integrated</field>
     <set>
      <set comment="spin 1">
       <r>    -1.9657     0.0000     0.0000 </r>
       <r>    -1.8608     0.0000     0.0000 </r>
       <r>    -1.7558     0.0000     0.0000 </r>
       <r>    -1.6508     0.0000     0.0000 </r>
       <r>    -1.5459     0.0000     0.0000 </r>
       <r>    -1.4409     0.0000     0.0000 </r>
       <r>    -1.3359     0.0000     0.0000 </r>
       <r>    -1.2309     0.0000     0.0000 </r>
       <r>    -1.1260     0.0000     0.0000 </r>
       <r>    -1.0210     0.0000     0.0000 </r>
       <r>    -0.9160     0.0000     0.0000 </r>
       <r>    -0.8111     0.0000     0.0000 </r>
       <r>    -0.7061     0.0000     0.0000 </r>
       <r>    -0.6011     0.0000     0.0000 </r>
       <r>    -0.4962     0.0223     0.0003 </r>
       <r>    -0.3912     0.1628     0.0116 </r>
       <r>    -0.2862     0.2222     0.0310 </r>
       <r>    -0.1812     0.2870     0.0583 </r>
       <r>    -0.0763     0.3236     0.0900 </r>
       <r>     0.0287     0.3739     0.1266 </r>
       <r>     0.1337     0.4236     0.1686 </r>
       <r>     0.2386     0.4613     0.2150 </r>
       <r>     0.3436     0.5019     0.2655 </r>
       <r>     0.4486     0.5483     0.3206 </r>
       <r>     0.5535     0.5981     0.3808 </r>
       <r>     0.6585     0.6426     0.4459 </r>
       <r>     0.7635     0.6934     0.5159 </r>
       <r>     0.8684     0.7521     0.5917 </r>
       <r>     0.9734     0.8213     0.6742 </r>
       <r>     1.0784     0.9037     0.7645 </r>
       <r>     1.1834     1.2026     0.8713 </r>
       <r>     1.2883     1.0937     0.9902 </r>
       <r>     1.3933     1.0512     1.1036 </r>
       <r>     1.4983     1.0626     1.2128 </r>
       <r>     1.6032     1.0028     1.3283 </r>
       <r>     1.7082     0.9510     1.4307 </r>
       <r>     1.8132     1.0695     1.5349 </r>
       <r>     1.9181     1.6233     1.6653 </r>
       <r>     2.0231     1.7298     1.8339 </r>
       <r>     2.1281     2.2194     2.0389 </r>
       <r>     2.2331     3.2091     2.3147 </r>
       <r>     2.3380     6.2549     2.8050 </r>
       <r>     2.4430     6.5213     3.5163 </r>
       <r>     2.5480     5.3675     4.1425 </r>
       <r>     2.6529     5.5293     4.6765 </r>
       <r>     2.7579     6.3187     5.3029 </r>
       <r>     2.8629     7.3788     6.0480 </r>
       <r>     2.9678     8.6250     6.8686 </r>
       <r>     3.0728     9.9499     7.8496 </r>
       <r>     3.1778     8.9388     8.8199 </r>
       <r>     3.2827     9.2288     9.7688 </r>
       <r>     3.3877    11.6591    10.8206 </r>
       <r>     3.4927    10.0309    11.9469 </r>
       <r>     3.5977     9.2077    12.9304 </r>
       <r>     3.7026     8.4876    13.8349 </r>
       <r>     3.8076     8.7075    14.7649 </r>
       <r>     3.9126     7.9462    15.6133 </r>
       <r>     4.0175     5.9481    16.3725 </r>
       <r>     4.1225    10.2325    17.1441 </r>
       <r>     4.2275    14.4594    18.2988 </r>
       <r>     4.3324    11.2871    19.7078 </r>
       <r>     4.4374     9.0551    20.7490 </r>
       <r>     4.5424     9.6749    21.5899 </r>
       <r>     4.6474     6.0471    22.3358 </r>
       <r>     4.7523    10.1086    23.2136 </r>
       <r>     4.8573    11.1904    24.3870 </r>
       <r>     4.9623    12.1079    25.5638 </r>
       <r>     5.0672    10.8834    26.8017 </r>
       <r>     5.1722     9.9446    27.9763 </r>
       <r>     5.2772     7.2861    28.8671 </r>
       <r>     5.3821     7.4416    29.5850 </r>
       <r>     5.4871     4.4414    30.1957 </r>
       <r>     5.5921     5.5589    30.6850 </r>
       <r>     5.6970    10.6783    31.5206 </r>
       <r>     5.8020    14.6409    32.8160 </r>
       <r>     5.9070    12.6182    34.3346 </r>
       <r>     6.0120    11.7099    35.7088 </r>
       <r>     6.1169    11.7535    36.8889 </r>
       <r>     6.2219    12.1123    38.2095 </r>
       <r>     6.3269    11.1941    39.4472 </r>
       <r>     6.4318    11.9092    40.7100 </r>
       <r>     6.5368    13.4020    42.0473 </r>
       <r>     6.6418    14.1725    43.4112 </r>
       <r>     6.7467    10.3832    44.7836 </r>
       <r>     6.8517    14.3046    46.1140 </r>
       <r>     6.9567    11.1339    47.4279 </r>
       <r>     7.0617    13.7611    48.6776 </r>
       <r>     7.1666    14.3939    50.1740 </r>
       <r>     7.2716     9.3637    51.4217 </r>
       <r>     7.3766     8.5173    52.2999 </r>
       <r>     7.4815    13.1881    53.4271 </r>
       <r>     7.5865    10.3666    54.5530 </r>
       <r>     7.6915     9.1710    55.6038 </r>
       <r>     7.7964     7.9989    56.4690 </r>
       <r>     7.9014    10.6277    57.3394 </r>
       <r>     8.0064     7.7038    58.1917 </r>
       <r>     8.1113     7.0934    58.9488 </r>
       <r>     8.2163     7.4304    59.7085 </r>
       <r>     8.3213     6.6870    60.5197 </r>
       <r>     8.4263     7.8445    61.2006 </r>
       <r>     8.5312     4.5681    61.8934 </r>
       <r>     8.6362     6.0327    62.4882 </r>
       <r>     8.7412     6.0723    63.1192 </r>
       <r>     8.8461     4.9402    63.6861 </r>
       <r>     8.9511     5.0032    64.1950 </r>
       <r>     9.0561     6.2202    64.8181 </r>
       <r>     9.1610     8.5103    65.5715 </r>
       <r>     9.2660     6.7800    66.3046 </r>
       <r>     9.3710     7.3419    67.0236 </r>
       <r>     9.4759     5.8867    67.7877 </r>
       <r>     9.5809     7.4117    68.4486 </r>
       <r>     9.6859     9.5307    69.3339 </r>
       <r>     9.7909    11.2153    70.4550 </r>
       <r>     9.8958     9.4690    71.5305 </r>
       <r>    10.0008     9.4883    72.5086 </r>
       <r>    10.1058    12.2364    73.6352 </r>
       <r>    10.2107    13.0070    74.9953 </r>
       <r>    10.3157    14.0385    76.4035 </r>
       <r>    10.4207    13.9224    77.8783 </r>
       <r>    10.5256    16.1105    79.3965 </r>
       <r>    10.6306    15.3861    81.1783 </r>
       <r>    10.7356    13.4131    82.6190 </r>
       <r>    10.8406    11.1317    83.8318 </r>
       <r>    10.9455     4.2611    84.5183 </r>
       <r>    11.0505     2.5824    84.8791 </r>
       <r>    11.1555     2.0872    85.1170 </r>
       <r>    11.2604     2.0557    85.3316 </r>
       <r>    11.3654     2.2787    85.5576 </r>
       <r>    11.4704     2.6693    85.8188 </r>
       <r>    11.5753     2.4331    86.1020 </r>
       <r>    11.6803     2.3494    86.3524 </r>
       <r>    11.7853     2.1997    86.5936 </r>
       <r>    11.8902     2.1035    86.8201 </r>
       <r>    11.9952     2.1336    87.0399 </r>
       <r>    12.1002     2.1281    87.2679 </r>
       <r>    12.2052     2.2268    87.4961 </r>
       <r>    12.3101     2.2895    87.7346 </r>
       <r>    12.4151     2.1860    87.9673 </r>
       <r>    12.5201     2.2809    88.2004 </r>
       <r>    12.6250     2.4713    88.4492 </r>
       <r>    12.7300     2.2441    88.7013 </r>
       <r>    12.8350     2.1170    88.9270 </r>
       <r>    12.9399     2.0620    89.1469 </r>
       <r>    13.0449     2.0586    89.3627 </r>
       <r>    13.1499     2.0198    89.5781 </r>
       <r>    13.2549     1.7760    89.7788 </r>
       <r>    13.3598     1.7336    89.9630 </r>
       <r>    13.4648     1.7312    90.1442 </r>
       <r>    13.5698     1.7983    90.3290 </r>
       <r>    13.6747     1.8389    90.5201 </r>
       <r>    13.7797     1.8524    90.7151 </r>
       <r>    13.8847     1.8018    90.9069 </r>
       <r>    13.9896     1.8610    91.0979 </r>
       <r>    14.0946     1.9293    91.2982 </r>
       <r>    14.1996     1.9091    91.4988 </r>
       <r>    14.3045     1.9073    91.7007 </r>
       <r>    14.4095     1.9199    91.9014 </r>
       <r>    14.5145     2.0394    92.1069 </r>
       <r>    14.6195     2.0930    92.3281 </r>
       <r>    14.7244     2.3397    92.5654 </r>
       <r>    14.8294     2.1974    92.8161 </r>
       <r>    14.9344     2.1510    93.0441 </r>
       <r>    15.0393     1.9358    93.2576 </r>
       <r>    15.1443     1.8208    93.4544 </r>
       <r>    15.2493     1.7905    93.6441 </r>
       <r>    15.3542     1.5879    93.8194 </r>
       <r>    15.4592     1.5815    93.9835 </r>
       <r>    15.5642     1.6770    94.1569 </r>
       <r>    15.6692     1.6633    94.3330 </r>
       <r>    15.7741     1.5860    94.5035 </r>
       <r>    15.8791     1.5403    94.6674 </r>
       <r>    15.9841     1.4378    94.8234 </r>
       <r>    16.0890     1.3509    94.9696 </r>
       <r>    16.1940     1.3715    95.1130 </r>
       <r>    16.2990     1.2302    95.2499 </r>
       <r>    16.4039     1.1297    95.3734 </r>
       <r>    16.5089     1.0428    95.4874 </r>
       <r>    16.6139     1.1173    95.6011 </r>
       <r>    16.7188     0.9563    95.7102 </r>
       <r>    16.8238     0.7573    95.8029 </r>
       <r>    16.9288     0.7868    95.8824 </r>
       <r>    17.0338     0.7900    95.9659 </r>
       <r>    17.1387     0.7532    96.0469 </r>
       <r>    17.2437     0.9096    96.1419 </r>
       <r>    17.3487     1.9767    96.2808 </r>
       <r>    17.4536     2.9986    96.5430 </r>
       <r>    17.5586     2.9167    96.8758 </r>
       <r>    17.6636     2.9264    97.1711 </r>
       <r>    17.7685     3.4148    97.4993 </r>
       <r>    17.8735     3.2564    97.8493 </r>
       <r>    17.9785     2.6766    98.1607 </r>
       <r>    18.0835     2.7583    98.4368 </r>
       <r>    18.1884     3.8831    98.7997 </r>
       <r>    18.2934     3.8571    99.2157 </r>
       <r>    18.3984     3.1743    99.5840 </r>
       <r>    18.5033     2.8304    99.8941 </r>
       <r>    18.6083     2.9066   100.1948 </r>
       <r>    18.7133     2.8383   100.4953 </r>
       <r>    18.8182     2.8991   100.7955 </r>
       <r>    18.9232     2.9671   101.1068 </r>
       <r>    19.0282     2.9375   101.4168 </r>
       <r>    19.1331     3.0796   101.7281 </r>
       <r>    19.2381     3.2060   102.0602 </r>
       <r>    19.3431     2.9698   102.3880 </r>
       <r>    19.4481     2.6529   102.6818 </r>
       <r>    19.5530     2.7920   102.9662 </r>
       <r>    19.6580     3.4319   103.3042 </r>
       <r>    19.7630     3.2105   103.6581 </r>
       <r>    19.8679     2.9497   103.9790 </r>
       <r>    19.9729     3.0399   104.2904 </r>
       <r>    20.0779     3.0181   104.6239 </r>
       <r>    20.1828     2.7997   104.9265 </r>
       <r>    20.2878     2.8620   105.2229 </r>
       <r>    20.3928     2.8805   105.5245 </r>
       <r>    20.4978     3.1215   105.8381 </r>
       <r>    20.6027     3.1804   106.1687 </r>
       <r>    20.7077     3.2947   106.5076 </r>
       <r>    20.8127     3.1677   106.8488 </r>
       <r>    20.9176     3.3544   107.1871 </r>
       <r>    21.0226     2.9219   107.5167 </r>
       <r>    21.1276     2.6977   107.8058 </r>
       <r>    21.2325     2.7704   108.0904 </r>
       <r>    21.3375     2.9990   108.3946 </r>
       <r>    21.4425     3.1044   108.7151 </r>
       <r>    21.5474     3.0896   109.0423 </r>
       <r>    21.6524     3.0800   109.3692 </r>
       <r>    21.7574     3.0294   109.6993 </r>
       <r>    21.8624     2.7983   110.0026 </r>
       <r>    21.9673     2.8405   110.3031 </r>
       <r>    22.0723     2.8656   110.6042 </r>
       <r>    22.1773     2.8197   110.9042 </r>
       <r>    22.2822     2.9170   111.2037 </r>
       <r>    22.3872     3.1881   111.5341 </r>
       <r>    22.4922     2.8419   111.8537 </r>
       <r>    22.5971     2.8510   112.1455 </r>
       <r>    22.7021     2.6043   112.4411 </r>
       <r>    22.8071     2.3466   112.7008 </r>
       <r>    22.9121     2.3550   112.9453 </r>
       <r>    23.0170     2.5470   113.2018 </r>
       <r>    23.1220     2.7322   113.4786 </r>
       <r>    23.2270     2.9457   113.7744 </r>
       <r>    23.3319     3.0436   114.0888 </r>
       <r>    23.4369     3.1962   114.4144 </r>
       <r>    23.5419     3.1755   114.7483 </r>
       <r>    23.6468     3.6025   115.0835 </r>
       <r>    23.7518     3.7224   115.4514 </r>
       <r>    23.8568     3.9841   115.8592 </r>
       <r>    23.9617     4.3431   116.2982 </r>
       <r>    24.0667     4.7544   116.7755 </r>
       <r>    24.1717     5.1891   117.2992 </r>
       <r>    24.2767     5.3213   117.8460 </r>
       <r>    24.3816     4.7105   118.3730 </r>
       <r>    24.4866     4.9062   118.8651 </r>
       <r>    24.5916     5.7618   119.4201 </r>
       <r>    24.6965     7.1493   120.1039 </r>
       <r>    24.8015     6.3990   120.7969 </r>
       <r>    24.9065     8.2517   121.5588 </r>
       <r>    25.0114     5.7912   122.2890 </r>
       <r>    25.1164     4.8028   122.8332 </r>
       <r>    25.2214     4.5093   123.3272 </r>
       <r>    25.3263     4.0384   123.7580 </r>
       <r>    25.4313     4.4335   124.1967 </r>
       <r>    25.5363     5.6891   124.7258 </r>
       <r>    25.6413     3.8993   125.1764 </r>
       <r>    25.7462     3.6578   125.5729 </r>
       <r>    25.8512     2.8912   125.9149 </r>
       <r>    25.9562     2.9394   126.2174 </r>
       <r>    26.0611     3.1951   126.5380 </r>
       <r>    26.1661     3.0448   126.8611 </r>
       <r>    26.2711     2.4896   127.1615 </r>
       <r>    26.3760     2.2056   127.4052 </r>
       <r>    26.4810     1.5087   127.6042 </r>
       <r>    26.5860     0.9281   127.7276 </r>
       <r>    26.6910     0.6695   127.8103 </r>
       <r>    26.7959     0.4674   127.8695 </r>
       <r>    26.9009     0.3312   127.9109 </r>
       <r>    27.0059     0.2374   127.9405 </r>
       <r>    27.1108     0.1639   127.9615 </r>
       <r>    27.2158     0.1055   127.9754 </r>
       <r>    27.3208     0.0656   127.9843 </r>
       <r>    27.4257     0.0411   127.9897 </r>
       <r>    27.5307     0.0292   127.9933 </r>
       <r>    27.6357     0.0223   127.9960 </r>
       <r>    27.7406     0.0146   127.9980 </r>
       <r>    27.8456     0.0085   127.9992 </r>
       <r>    27.9506     0.0038   127.9998 </r>
       <r>    28.0556     0.0004   128.0000 </r>
       <r>    28.1605     0.0000   128.0000 </r>
       <r>    28.2655     0.0000   128.0000 </r>
       <r>    28.3705     0.0000   128.0000 </r>
       <r>    28.4754     0.0000   128.0000 </r>
       <r>    28.5804     0.0000   128.0000 </r>
       <r>    28.6854     0.0000   128.0000 </r>
       <r>    28.7903     0.0000   128.0000 </r>
       <r>    28.8953     0.0000   128.0000 </r>
       <r>    29.0003     0.0000   128.0000 </r>
       <r>    29.1053     0.0000   128.0000 </r>
       <r>    29.2102     0.0000   128.0000 </r>
       <r>    29.3152     0.0000   128.0000 </r>
       <r>    29.4202     0.0000   128.0000 </r>
       <r>    29.5251     0.0000   128.0000 </r>
      </set>
     </set>
    </array>
   </total>
  </dos>
 </calculation>
 <structure name="finalpos" >
  <crystal>
   <varray name="basis" >
    <v>       5.49466742      -0.00004329       0.00000000 </v>
    <v>      -2.74737120       4.75849982       0.00000000 </v>
    <v>       0.00000000       0.00000000       4.40450403 </v>
   </varray>
   <i name="volume">    115.16128545 </i>
   <varray name="rec_basis" >
    <v>       0.18199546       0.10507704       0.00000000 </v>
    <v>       0.00000166       0.21015122       0.00000000 </v>
    <v>       0.00000000       0.00000000       0.22704032 </v>
   </varray>
  </crystal>
  <varray name="positions" >
   <v>       0.83285585       0.66574511       0.25000000 </v>
   <v>       0.83285383       0.16714617       0.25000000 </v>
   <v>       0.33425489       0.16714415       0.25000000 </v>
   <v>       0.16714415       0.33425489       0.75000000 </v>
   <v>       0.66574511       0.83285585       0.75000000 </v>
   <v>       0.16714617       0.83285383       0.75000000 </v>
   <v>       0.33332198       0.66667802       0.25000000 </v>
   <v>       0.66667802       0.33332198       0.75000000 </v>
  </varray>
 </structure>
</modeling>
