 256 256   0   0
  0.1418917E+02  0.1588033E-08  0.1692661E-08  0.1693229E-08  0.5000000E-15
  1.000000000000000E-004
  CAR 
 Ir_Ru                                   
     14.27578671     -1.29154578  301      9.45681379      1.00000000
     -1.292  0.0000E+00  0.0000E+00
     -1.240  0.0000E+00  0.0000E+00
     -1.188  0.0000E+00  0.0000E+00
     -1.136 -0.2794E-30 -0.1450E-31
     -1.084 -0.1280E-26 -0.6643E-28
     -1.032 -0.3408E-23 -0.1769E-24
     -0.980 -0.5270E-20 -0.2736E-21
     -0.928 -0.4728E-17 -0.2456E-18
     -0.876 -0.2400E-14 -0.1248E-15
     -0.825 -0.7149E-12 -0.3722E-13
     -0.773 -0.1235E-09 -0.6444E-11
     -0.721 -0.1227E-07 -0.6429E-09
     -0.669 -0.6982E-06 -0.3687E-07
     -0.617 -0.2264E-04 -0.1212E-05
     -0.565 -0.4153E-03 -0.2276E-04
     -0.513 -0.4267E-02 -0.2442E-03
     -0.461 -0.2430E-01 -0.1505E-02
     -0.409 -0.7516E-01 -0.5405E-02
     -0.358 -0.1019E+00 -0.1069E-01
     -0.306  0.2058E+00 -0.1157E-04
     -0.254  0.1639E+01  0.8505E-01
     -0.202  0.4398E+01  0.3133E+00
     -0.150  0.6354E+01  0.6430E+00
     -0.098  0.6422E+01  0.9763E+00
     -0.046  0.6961E+01  0.1337E+01
      0.006  0.8856E+01  0.1797E+01
      0.058  0.1118E+02  0.2377E+01
      0.110  0.1361E+02  0.3083E+01
      0.161  0.1434E+02  0.3827E+01
      0.213  0.1171E+02  0.4435E+01
      0.265  0.1006E+02  0.4957E+01
      0.317  0.1424E+02  0.5696E+01
      0.369  0.2032E+02  0.6750E+01
      0.421  0.2252E+02  0.7919E+01
      0.473  0.2273E+02  0.9098E+01
      0.525  0.2352E+02  0.1032E+02
      0.577  0.2251E+02  0.1149E+02
      0.628  0.2043E+02  0.1255E+02
      0.680  0.2101E+02  0.1364E+02
      0.732  0.2040E+02  0.1470E+02
      0.784  0.1461E+02  0.1545E+02
      0.836  0.8875E+01  0.1591E+02
      0.888  0.8002E+01  0.1633E+02
      0.940  0.1166E+02  0.1694E+02
      0.992  0.1889E+02  0.1792E+02
      1.044  0.2785E+02  0.1936E+02
      1.095  0.3332E+02  0.2109E+02
      1.147  0.3302E+02  0.2280E+02
      1.199  0.2884E+02  0.2430E+02
      1.251  0.2291E+02  0.2549E+02
      1.303  0.1951E+02  0.2650E+02
      1.355  0.2166E+02  0.2762E+02
      1.407  0.2715E+02  0.2903E+02
      1.459  0.3035E+02  0.3061E+02
      1.511  0.2984E+02  0.3216E+02
      1.562  0.2936E+02  0.3368E+02
      1.614  0.3045E+02  0.3526E+02
      1.666  0.3113E+02  0.3687E+02
      1.718  0.3202E+02  0.3854E+02
      1.770  0.3502E+02  0.4035E+02
      1.822  0.3909E+02  0.4238E+02
      1.874  0.4545E+02  0.4474E+02
      1.926  0.5462E+02  0.4757E+02
      1.978  0.5933E+02  0.5065E+02
      2.029  0.5478E+02  0.5350E+02
      2.081  0.5052E+02  0.5612E+02
      2.133  0.6151E+02  0.5931E+02
      2.185  0.8674E+02  0.6381E+02
      2.237  0.1086E+03  0.6945E+02
      2.289  0.1196E+03  0.7565E+02
      2.341  0.1257E+03  0.8218E+02
      2.393  0.1316E+03  0.8900E+02
      2.445  0.1376E+03  0.9615E+02
      2.497  0.1472E+03  0.1038E+03
      2.548  0.1643E+03  0.1123E+03
      2.600  0.1829E+03  0.1218E+03
      2.652  0.1949E+03  0.1319E+03
      2.704  0.2066E+03  0.1426E+03
      2.756  0.2235E+03  0.1542E+03
      2.808  0.2306E+03  0.1662E+03
      2.860  0.2244E+03  0.1778E+03
      2.912  0.2276E+03  0.1897E+03
      2.964  0.2452E+03  0.2024E+03
      3.015  0.2580E+03  0.2158E+03
      3.067  0.2601E+03  0.2293E+03
      3.119  0.2606E+03  0.2428E+03
      3.171  0.2641E+03  0.2565E+03
      3.223  0.2731E+03  0.2707E+03
      3.275  0.2883E+03  0.2856E+03
      3.327  0.3076E+03  0.3016E+03
      3.379  0.3245E+03  0.3184E+03
      3.431  0.3310E+03  0.3356E+03
      3.482  0.3282E+03  0.3526E+03
      3.534  0.3217E+03  0.3693E+03
      3.586  0.3184E+03  0.3858E+03
      3.638  0.3165E+03  0.4023E+03
      3.690  0.3109E+03  0.4184E+03
      3.742  0.3050E+03  0.4342E+03
      3.794  0.3010E+03  0.4498E+03
      3.846  0.2967E+03  0.4652E+03
      3.898  0.2932E+03  0.4805E+03
      3.949  0.2886E+03  0.4954E+03
      4.001  0.2762E+03  0.5098E+03
      4.053  0.2664E+03  0.5236E+03
      4.105  0.2755E+03  0.5379E+03
      4.157  0.2941E+03  0.5531E+03
      4.209  0.3028E+03  0.5689E+03
      4.261  0.3052E+03  0.5847E+03
      4.313  0.3122E+03  0.6009E+03
      4.365  0.3188E+03  0.6174E+03
      4.416  0.3213E+03  0.6341E+03
      4.468  0.3236E+03  0.6509E+03
      4.520  0.3211E+03  0.6676E+03
      4.572  0.3096E+03  0.6836E+03
      4.624  0.2970E+03  0.6991E+03
      4.676  0.2933E+03  0.7143E+03
      4.728  0.2982E+03  0.7298E+03
      4.780  0.3060E+03  0.7456E+03
      4.832  0.3179E+03  0.7621E+03
      4.883  0.3315E+03  0.7793E+03
      4.935  0.3377E+03  0.7969E+03
      4.987  0.3451E+03  0.8148E+03
      5.039  0.3584E+03  0.8334E+03
      5.091  0.3659E+03  0.8523E+03
      5.143  0.3643E+03  0.8713E+03
      5.195  0.3550E+03  0.8897E+03
      5.247  0.3344E+03  0.9070E+03
      5.299  0.3022E+03  0.9227E+03
      5.351  0.2612E+03  0.9363E+03
      5.402  0.2179E+03  0.9476E+03
      5.454  0.1840E+03  0.9571E+03
      5.506  0.1724E+03  0.9661E+03
      5.558  0.1892E+03  0.9759E+03
      5.610  0.2276E+03  0.9877E+03
      5.662  0.2762E+03  0.1002E+04
      5.714  0.3263E+03  0.1019E+04
      5.766  0.3682E+03  0.1038E+04
      5.818  0.3955E+03  0.1059E+04
      5.869  0.4105E+03  0.1080E+04
      5.921  0.4192E+03  0.1102E+04
      5.973  0.4258E+03  0.1124E+04
      6.025  0.4281E+03  0.1146E+04
      6.077  0.4162E+03  0.1168E+04
      6.129  0.3919E+03  0.1188E+04
      6.181  0.3718E+03  0.1207E+04
      6.233  0.3611E+03  0.1226E+04
      6.285  0.3553E+03  0.1244E+04
      6.336  0.3564E+03  0.1263E+04
      6.388  0.3692E+03  0.1282E+04
      6.440  0.3819E+03  0.1302E+04
      6.492  0.3843E+03  0.1322E+04
      6.544  0.3917E+03  0.1342E+04
      6.596  0.4099E+03  0.1363E+04
      6.648  0.4240E+03  0.1385E+04
      6.700  0.4280E+03  0.1408E+04
      6.752  0.4251E+03  0.1430E+04
      6.803  0.4132E+03  0.1451E+04
      6.855  0.3920E+03  0.1471E+04
      6.907  0.3734E+03  0.1491E+04
      6.959  0.3666E+03  0.1510E+04
      7.011  0.3638E+03  0.1529E+04
      7.063  0.3683E+03  0.1548E+04
      7.115  0.3914E+03  0.1568E+04
      7.167  0.4148E+03  0.1590E+04
      7.219  0.4221E+03  0.1612E+04
      7.270  0.4224E+03  0.1633E+04
      7.322  0.4134E+03  0.1655E+04
      7.374  0.3879E+03  0.1675E+04
      7.426  0.3587E+03  0.1694E+04
      7.478  0.3401E+03  0.1711E+04
      7.530  0.3325E+03  0.1729E+04
      7.582  0.3287E+03  0.1746E+04
      7.634  0.3170E+03  0.1762E+04
      7.686  0.2956E+03  0.1777E+04
      7.738  0.2774E+03  0.1792E+04
      7.789  0.2687E+03  0.1806E+04
      7.841  0.2637E+03  0.1819E+04
      7.893  0.2575E+03  0.1833E+04
      7.945  0.2483E+03  0.1846E+04
      7.997  0.2428E+03  0.1858E+04
      8.049  0.2433E+03  0.1871E+04
      8.101  0.2392E+03  0.1883E+04
      8.153  0.2312E+03  0.1895E+04
      8.205  0.2289E+03  0.1907E+04
      8.256  0.2334E+03  0.1919E+04
      8.308  0.2378E+03  0.1932E+04
      8.360  0.2392E+03  0.1944E+04
      8.412  0.2369E+03  0.1956E+04
      8.464  0.2286E+03  0.1968E+04
      8.516  0.2184E+03  0.1980E+04
      8.568  0.2121E+03  0.1991E+04
      8.620  0.2071E+03  0.2001E+04
      8.672  0.1998E+03  0.2012E+04
      8.723  0.1914E+03  0.2022E+04
      8.775  0.1832E+03  0.2031E+04
      8.827  0.1795E+03  0.2040E+04
      8.879  0.1883E+03  0.2050E+04
      8.931  0.2132E+03  0.2061E+04
      8.983  0.2355E+03  0.2073E+04
      9.035  0.2363E+03  0.2086E+04
      9.087  0.2233E+03  0.2097E+04
      9.139  0.2063E+03  0.2108E+04
      9.190  0.1870E+03  0.2118E+04
      9.242  0.1790E+03  0.2127E+04
      9.294  0.1976E+03  0.2137E+04
      9.346  0.2285E+03  0.2149E+04
      9.398  0.2430E+03  0.2162E+04
      9.450  0.2429E+03  0.2174E+04
      9.502  0.2449E+03  0.2187E+04
      9.554  0.2444E+03  0.2200E+04
      9.606  0.2463E+03  0.2212E+04
      9.657  0.2746E+03  0.2227E+04
      9.709  0.3177E+03  0.2243E+04
      9.761  0.3356E+03  0.2261E+04
      9.813  0.3262E+03  0.2278E+04
      9.865  0.3165E+03  0.2294E+04
      9.917  0.3154E+03  0.2310E+04
      9.969  0.3219E+03  0.2327E+04
     10.021  0.3433E+03  0.2345E+04
     10.073  0.3801E+03  0.2365E+04
     10.124  0.4129E+03  0.2386E+04
     10.176  0.4284E+03  0.2408E+04
     10.228  0.4362E+03  0.2431E+04
     10.280  0.4485E+03  0.2454E+04
     10.332  0.4666E+03  0.2478E+04
     10.384  0.4847E+03  0.2504E+04
     10.436  0.4945E+03  0.2529E+04
     10.488  0.4861E+03  0.2554E+04
     10.540  0.4491E+03  0.2578E+04
     10.592  0.3904E+03  0.2598E+04
     10.643  0.3236E+03  0.2615E+04
     10.695  0.2418E+03  0.2627E+04
     10.747  0.1418E+03  0.2635E+04
     10.799  0.5206E+02  0.2637E+04
     10.851  0.4237E+01  0.2638E+04
     10.903 -0.5649E+01  0.2637E+04
     10.955 -0.2792E+01  0.2637E+04
     11.007 -0.6333E+00  0.2637E+04
     11.059 -0.8783E-01  0.2637E+04
     11.110 -0.8548E-02  0.2637E+04
     11.162 -0.6019E-03  0.2637E+04
     11.214 -0.2854E-04  0.2637E+04
     11.266 -0.8397E-06  0.2637E+04
     11.318 -0.1465E-07  0.2637E+04
     11.370 -0.1489E-09  0.2637E+04
     11.422 -0.8907E-12  0.2637E+04
     11.474 -0.4555E-11  0.2637E+04
     11.526 -0.7517E-09  0.2637E+04
     11.577 -0.7139E-07  0.2637E+04
     11.629 -0.3877E-05  0.2637E+04
     11.681 -0.1193E-03  0.2637E+04
     11.733 -0.2044E-02  0.2637E+04
     11.785 -0.1878E-01  0.2637E+04
     11.837 -0.8353E-01  0.2637E+04
     11.889 -0.1027E+00  0.2637E+04
     11.941  0.4529E+00  0.2637E+04
     11.993  0.1805E+01  0.2637E+04
     12.044  0.2584E+01  0.2637E+04
     12.096  0.1917E+01  0.2637E+04
     12.148  0.1074E+01  0.2638E+04
     12.200  0.1023E+01  0.2638E+04
     12.252  0.1917E+01  0.2638E+04
     12.304  0.3138E+01  0.2638E+04
     12.356  0.3395E+01  0.2638E+04
     12.408  0.2731E+01  0.2638E+04
     12.460  0.2115E+01  0.2638E+04
     12.511  0.1834E+01  0.2638E+04
     12.563  0.2022E+01  0.2638E+04
     12.615  0.2761E+01  0.2639E+04
     12.667  0.3617E+01  0.2639E+04
     12.719  0.4074E+01  0.2639E+04
     12.771  0.3565E+01  0.2639E+04
     12.823  0.2548E+01  0.2639E+04
     12.875  0.2498E+01  0.2639E+04
     12.927  0.2950E+01  0.2640E+04
     12.979  0.2408E+01  0.2640E+04
     13.030  0.1086E+01  0.2640E+04
     13.082  0.2345E+00  0.2640E+04
     13.134  0.3950E+00  0.2640E+04
     13.186  0.8914E+00  0.2640E+04
     13.238  0.1079E+01  0.2640E+04
     13.290  0.1023E+01  0.2640E+04
     13.342  0.6583E+00  0.2640E+04
     13.394  0.1656E+00  0.2640E+04
     13.446 -0.4070E-01  0.2640E+04
     13.497 -0.3248E-01  0.2640E+04
     13.549 -0.7219E-02  0.2640E+04
     13.601 -0.7692E-03  0.2640E+04
     13.653 -0.4363E-04  0.2640E+04
     13.705 -0.1370E-05  0.2640E+04
     13.757 -0.2430E-07  0.2640E+04
     13.809 -0.2457E-09  0.2640E+04
     13.861 -0.1426E-11  0.2640E+04
     13.913 -0.4754E-14  0.2640E+04
     13.964  0.0000E+00  0.2640E+04
     14.016  0.0000E+00  0.2640E+04
     14.068  0.0000E+00  0.2640E+04
     14.120  0.0000E+00  0.2640E+04
     14.172  0.0000E+00  0.2640E+04
     14.224  0.0000E+00  0.2640E+04
     14.276  0.0000E+00  0.2640E+04
