       N       E                     dE             d eps       ncg     rms          rms(c)
DAV:   1     0.112830506942E+05    0.11283E+05   -0.55466E+05 95400   0.810E+02
DAV:   2    -0.143891141361E+04   -0.12722E+05   -0.12145E+05 95800   0.337E+02
DAV:   3    -0.241092573781E+04   -0.97201E+03   -0.89405E+03135260   0.780E+01
DAV:   4    -0.248227971782E+04   -0.71354E+02   -0.68932E+02132160   0.209E+01
DAV:   5    -0.248511635068E+04   -0.28366E+01   -0.27808E+01139960   0.331E+00    0.779E+01
RMM:   6    -0.241641729873E+04    0.68699E+02   -0.68050E+02105896   0.245E+01    0.623E+01
RMM:   7    -0.237001242680E+04    0.46405E+02   -0.35226E+02 97789   0.172E+01    0.455E+01
RMM:   8    -0.233988940128E+04    0.30123E+02   -0.15704E+02 97659   0.114E+01    0.321E+01
RMM:   9    -0.231571850068E+04    0.24171E+02   -0.34475E+01 98797   0.532E+00    0.648E+00
RMM:  10    -0.231558570589E+04    0.13279E+00   -0.72700E+00137402   0.147E+00    0.409E+00
RMM:  11    -0.231535074445E+04    0.23496E+00   -0.13499E+00124127   0.702E-01    0.374E+00
RMM:  12    -0.231488637127E+04    0.46437E+00   -0.64212E-01109842   0.802E-01    0.193E+00
RMM:  13    -0.231477730260E+04    0.10907E+00   -0.24935E-01112628   0.435E-01    0.131E+00
RMM:  14    -0.231475684869E+04    0.20454E-01   -0.15287E-01114082   0.310E-01    0.142E+00
RMM:  15    -0.231472971084E+04    0.27138E-01   -0.49770E-02120656   0.137E-01    0.931E-01
RMM:  16    -0.231471590537E+04    0.13805E-01   -0.20046E-02113441   0.111E-01    0.424E-01
RMM:  17    -0.231471382066E+04    0.20847E-02   -0.12789E-02121781   0.777E-02    0.214E-01
RMM:  18    -0.231471442254E+04   -0.60188E-03   -0.75724E-03131854   0.530E-02    0.218E-01
RMM:  19    -0.231471430011E+04    0.12243E-03   -0.21510E-03132809   0.263E-02    0.204E-01
RMM:  20    -0.231471373058E+04    0.56953E-03   -0.52455E-04112836   0.177E-02    0.131E-01
RMM:  21    -0.231471337564E+04    0.35495E-03   -0.81541E-04119653   0.206E-02    0.444E-02
RMM:  22    -0.231471333753E+04    0.38108E-04   -0.28305E-04135785   0.100E-02
   1 F= -.23147133E+04 E0= -.23147210E+04  d E =0.229610E-01
