 256 256   0   0
  0.1418917E+02  0.1588033E-08  0.1692661E-08  0.1693229E-08  0.5000000E-15
  1.000000000000000E-004
  CAR 
 Ir_Ru                                   
     14.28432054     -1.29189503  301      9.45706741      1.00000000
     -1.292  0.0000E+00  0.0000E+00
     -1.240  0.0000E+00  0.0000E+00
     -1.188  0.0000E+00  0.0000E+00
     -1.136 -0.2834E-30 -0.1472E-31
     -1.084 -0.1303E-26 -0.6768E-28
     -1.032 -0.3481E-23 -0.1808E-24
     -0.980 -0.5396E-20 -0.2803E-21
     -0.928 -0.4850E-17 -0.2521E-18
     -0.877 -0.2466E-14 -0.1283E-15
     -0.825 -0.7347E-12 -0.3827E-13
     -0.773 -0.1269E-09 -0.6625E-11
     -0.721 -0.1260E-07 -0.6606E-09
     -0.669 -0.7160E-06 -0.3784E-07
     -0.617 -0.2317E-04 -0.1241E-05
     -0.565 -0.4239E-03 -0.2325E-04
     -0.513 -0.4340E-02 -0.2486E-03
     -0.461 -0.2461E-01 -0.1526E-02
     -0.409 -0.7574E-01 -0.5459E-02
     -0.357 -0.1014E+00 -0.1072E-01
     -0.305  0.2135E+00  0.3596E-03
     -0.253  0.1665E+01  0.8680E-01
     -0.202  0.4432E+01  0.3169E+00
     -0.150  0.6364E+01  0.6474E+00
     -0.098  0.6421E+01  0.9807E+00
     -0.046  0.6981E+01  0.1343E+01
      0.006  0.8891E+01  0.1805E+01
      0.058  0.1122E+02  0.2387E+01
      0.110  0.1364E+02  0.3095E+01
      0.162  0.1432E+02  0.3839E+01
      0.214  0.1165E+02  0.4444E+01
      0.266  0.1009E+02  0.4968E+01
      0.318  0.1438E+02  0.5714E+01
      0.370  0.2042E+02  0.6775E+01
      0.421  0.2252E+02  0.7944E+01
      0.473  0.2272E+02  0.9124E+01
      0.525  0.2352E+02  0.1034E+02
      0.577  0.2248E+02  0.1151E+02
      0.629  0.2043E+02  0.1257E+02
      0.681  0.2103E+02  0.1366E+02
      0.733  0.2031E+02  0.1472E+02
      0.785  0.1443E+02  0.1547E+02
      0.837  0.8788E+01  0.1592E+02
      0.889  0.8064E+01  0.1634E+02
      0.941  0.1183E+02  0.1696E+02
      0.993  0.1911E+02  0.1795E+02
      1.045  0.2805E+02  0.1941E+02
      1.096  0.3342E+02  0.2114E+02
      1.148  0.3301E+02  0.2285E+02
      1.200  0.2868E+02  0.2434E+02
      1.252  0.2271E+02  0.2552E+02
      1.304  0.1947E+02  0.2653E+02
      1.356  0.2179E+02  0.2766E+02
      1.408  0.2729E+02  0.2908E+02
      1.460  0.3038E+02  0.3066E+02
      1.512  0.2981E+02  0.3221E+02
      1.564  0.2935E+02  0.3373E+02
      1.616  0.3043E+02  0.3531E+02
      1.668  0.3113E+02  0.3693E+02
      1.720  0.3211E+02  0.3859E+02
      1.771  0.3512E+02  0.4042E+02
      1.823  0.3921E+02  0.4245E+02
      1.875  0.4572E+02  0.4483E+02
      1.927  0.5491E+02  0.4768E+02
      1.979  0.5934E+02  0.5076E+02
      2.031  0.5457E+02  0.5359E+02
      2.083  0.5062E+02  0.5622E+02
      2.135  0.6230E+02  0.5945E+02
      2.187  0.8779E+02  0.6401E+02
      2.239  0.1093E+03  0.6969E+02
      2.291  0.1199E+03  0.7592E+02
      2.343  0.1259E+03  0.8245E+02
      2.394  0.1317E+03  0.8929E+02
      2.446  0.1377E+03  0.9644E+02
      2.498  0.1476E+03  0.1041E+03
      2.550  0.1650E+03  0.1127E+03
      2.602  0.1835E+03  0.1222E+03
      2.654  0.1953E+03  0.1323E+03
      2.706  0.2074E+03  0.1431E+03
      2.758  0.2242E+03  0.1547E+03
      2.810  0.2305E+03  0.1667E+03
      2.862  0.2243E+03  0.1784E+03
      2.914  0.2282E+03  0.1902E+03
      2.966  0.2460E+03  0.2030E+03
      3.018  0.2583E+03  0.2164E+03
      3.069  0.2601E+03  0.2299E+03
      3.121  0.2606E+03  0.2434E+03
      3.173  0.2643E+03  0.2571E+03
      3.225  0.2735E+03  0.2713E+03
      3.277  0.2888E+03  0.2863E+03
      3.329  0.3083E+03  0.3023E+03
      3.381  0.3250E+03  0.3192E+03
      3.433  0.3309E+03  0.3364E+03
      3.485  0.3276E+03  0.3534E+03
      3.537  0.3212E+03  0.3701E+03
      3.589  0.3182E+03  0.3866E+03
      3.641  0.3163E+03  0.4030E+03
      3.692  0.3106E+03  0.4192E+03
      3.744  0.3048E+03  0.4350E+03
      3.796  0.3009E+03  0.4506E+03
      3.848  0.2966E+03  0.4660E+03
      3.900  0.2931E+03  0.4812E+03
      3.952  0.2881E+03  0.4962E+03
      4.004  0.2755E+03  0.5105E+03
      4.056  0.2664E+03  0.5243E+03
      4.108  0.2765E+03  0.5387E+03
      4.160  0.2949E+03  0.5540E+03
      4.212  0.3030E+03  0.5697E+03
      4.264  0.3054E+03  0.5856E+03
      4.316  0.3125E+03  0.6018E+03
      4.367  0.3187E+03  0.6184E+03
      4.419  0.3214E+03  0.6350E+03
      4.471  0.3238E+03  0.6518E+03
      4.523  0.3206E+03  0.6685E+03
      4.575  0.3086E+03  0.6845E+03
      4.627  0.2966E+03  0.6999E+03
      4.679  0.2937E+03  0.7152E+03
      4.731  0.2988E+03  0.7307E+03
      4.783  0.3066E+03  0.7466E+03
      4.835  0.3188E+03  0.7631E+03
      4.887  0.3320E+03  0.7804E+03
      4.939  0.3379E+03  0.7979E+03
      4.991  0.3459E+03  0.8159E+03
      5.042  0.3589E+03  0.8345E+03
      5.094  0.3654E+03  0.8535E+03
      5.146  0.3635E+03  0.8724E+03
      5.198  0.3538E+03  0.8907E+03
      5.250  0.3327E+03  0.9080E+03
      5.302  0.2998E+03  0.9236E+03
      5.354  0.2585E+03  0.9370E+03
      5.406  0.2155E+03  0.9482E+03
      5.458  0.1828E+03  0.9577E+03
      5.510  0.1729E+03  0.9667E+03
      5.562  0.1915E+03  0.9766E+03
      5.614  0.2308E+03  0.9886E+03
      5.665  0.2796E+03  0.1003E+04
      5.717  0.3293E+03  0.1020E+04
      5.769  0.3702E+03  0.1039E+04
      5.821  0.3965E+03  0.1060E+04
      5.873  0.4112E+03  0.1081E+04
      5.925  0.4197E+03  0.1103E+04
      5.977  0.4261E+03  0.1125E+04
      6.029  0.4278E+03  0.1147E+04
      6.081  0.4147E+03  0.1169E+04
      6.133  0.3900E+03  0.1189E+04
      6.185  0.3707E+03  0.1209E+04
      6.237  0.3606E+03  0.1227E+04
      6.289  0.3552E+03  0.1246E+04
      6.340  0.3572E+03  0.1264E+04
      6.392  0.3707E+03  0.1283E+04
      6.444  0.3825E+03  0.1303E+04
      6.496  0.3845E+03  0.1323E+04
      6.548  0.3930E+03  0.1344E+04
      6.600  0.4115E+03  0.1365E+04
      6.652  0.4247E+03  0.1387E+04
      6.704  0.4283E+03  0.1409E+04
      6.756  0.4246E+03  0.1431E+04
      6.808  0.4115E+03  0.1453E+04
      6.860  0.3899E+03  0.1473E+04
      6.912  0.3722E+03  0.1492E+04
      6.963  0.3663E+03  0.1511E+04
      7.015  0.3636E+03  0.1530E+04
      7.067  0.3693E+03  0.1549E+04
      7.119  0.3936E+03  0.1570E+04
      7.171  0.4161E+03  0.1591E+04
      7.223  0.4224E+03  0.1613E+04
      7.275  0.4221E+03  0.1635E+04
      7.327  0.4118E+03  0.1657E+04
      7.379  0.3852E+03  0.1677E+04
      7.431  0.3566E+03  0.1695E+04
      7.483  0.3391E+03  0.1713E+04
      7.535  0.3323E+03  0.1730E+04
      7.587  0.3281E+03  0.1747E+04
      7.638  0.3152E+03  0.1763E+04
      7.690  0.2935E+03  0.1779E+04
      7.742  0.2763E+03  0.1793E+04
      7.794  0.2682E+03  0.1807E+04
      7.846  0.2632E+03  0.1821E+04
      7.898  0.2568E+03  0.1834E+04
      7.950  0.2475E+03  0.1847E+04
      8.002  0.2427E+03  0.1859E+04
      8.054  0.2432E+03  0.1872E+04
      8.106  0.2385E+03  0.1884E+04
      8.158  0.2307E+03  0.1896E+04
      8.210  0.2292E+03  0.1908E+04
      8.262  0.2340E+03  0.1920E+04
      8.313  0.2381E+03  0.1933E+04
      8.365  0.2391E+03  0.1945E+04
      8.417  0.2363E+03  0.1958E+04
      8.469  0.2276E+03  0.1969E+04
      8.521  0.2176E+03  0.1981E+04
      8.573  0.2117E+03  0.1992E+04
      8.625  0.2065E+03  0.2002E+04
      8.677  0.1989E+03  0.2013E+04
      8.729  0.1905E+03  0.2023E+04
      8.781  0.1824E+03  0.2032E+04
      8.833  0.1796E+03  0.2041E+04
      8.885  0.1901E+03  0.2051E+04
      8.936  0.2160E+03  0.2062E+04
      8.988  0.2366E+03  0.2075E+04
      9.040  0.2354E+03  0.2087E+04
      9.092  0.2218E+03  0.2098E+04
      9.144  0.2043E+03  0.2109E+04
      9.196  0.1851E+03  0.2119E+04
      9.248  0.1796E+03  0.2128E+04
      9.300  0.2008E+03  0.2138E+04
      9.352  0.2312E+03  0.2150E+04
      9.404  0.2433E+03  0.2163E+04
      9.456  0.2428E+03  0.2176E+04
      9.508  0.2451E+03  0.2188E+04
      9.560  0.2441E+03  0.2201E+04
      9.611  0.2480E+03  0.2214E+04
      9.663  0.2795E+03  0.2228E+04
      9.715  0.3214E+03  0.2245E+04
      9.767  0.3354E+03  0.2263E+04
      9.819  0.3248E+03  0.2279E+04
      9.871  0.3160E+03  0.2296E+04
      9.923  0.3156E+03  0.2312E+04
      9.975  0.3233E+03  0.2329E+04
     10.027  0.3468E+03  0.2347E+04
     10.079  0.3846E+03  0.2367E+04
     10.131  0.4159E+03  0.2389E+04
     10.183  0.4297E+03  0.2411E+04
     10.235  0.4375E+03  0.2434E+04
     10.286  0.4508E+03  0.2457E+04
     10.338  0.4697E+03  0.2481E+04
     10.390  0.4882E+03  0.2507E+04
     10.442  0.4979E+03  0.2533E+04
     10.494  0.4872E+03  0.2558E+04
     10.546  0.4457E+03  0.2581E+04
     10.598  0.3835E+03  0.2601E+04
     10.650  0.3133E+03  0.2617E+04
     10.702  0.2267E+03  0.2629E+04
     10.754  0.1248E+03  0.2635E+04
     10.806  0.4020E+02  0.2638E+04
     10.858  0.2671E+00  0.2638E+04
     10.909 -0.5547E+01  0.2637E+04
     10.961 -0.2274E+01  0.2637E+04
     11.013 -0.4578E+00  0.2637E+04
     11.065 -0.5586E-01  0.2637E+04
     11.117 -0.4578E-02  0.2637E+04
     11.169 -0.2599E-03  0.2637E+04
     11.221 -0.9813E-05  0.2637E+04
     11.273 -0.2317E-06  0.2637E+04
     11.325 -0.3282E-08  0.2637E+04
     11.377 -0.5412E-09  0.2637E+04
     11.429 -0.4678E-07  0.2637E+04
     11.481 -0.2424E-05  0.2637E+04
     11.533 -0.7068E-04  0.2637E+04
     11.584 -0.1135E-02  0.2637E+04
     11.636 -0.9603E-02  0.2637E+04
     11.688 -0.3764E-01  0.2637E+04
     11.740 -0.2931E-01  0.2637E+04
     11.792  0.2198E+00  0.2637E+04
     11.844  0.6811E+00  0.2637E+04
     11.896  0.9928E+00  0.2637E+04
     11.948  0.1369E+01  0.2637E+04
     12.000  0.1768E+01  0.2637E+04
     12.052  0.1505E+01  0.2637E+04
     12.104  0.1034E+01  0.2638E+04
     12.156  0.1100E+01  0.2638E+04
     12.207  0.1900E+01  0.2638E+04
     12.259  0.2901E+01  0.2638E+04
     12.311  0.2979E+01  0.2638E+04
     12.363  0.2209E+01  0.2638E+04
     12.415  0.1885E+01  0.2638E+04
     12.467  0.2153E+01  0.2638E+04
     12.519  0.2205E+01  0.2638E+04
     12.571  0.2455E+01  0.2639E+04
     12.623  0.2970E+01  0.2639E+04
     12.675  0.3479E+01  0.2639E+04
     12.727  0.3845E+01  0.2639E+04
     12.779  0.3178E+01  0.2639E+04
     12.831  0.2230E+01  0.2639E+04
     12.882  0.2236E+01  0.2639E+04
     12.934  0.2221E+01  0.2640E+04
     12.986  0.1618E+01  0.2640E+04
     13.038  0.1134E+01  0.2640E+04
     13.090  0.8083E+00  0.2640E+04
     13.142  0.5658E+00  0.2640E+04
     13.194  0.8178E+00  0.2640E+04
     13.246  0.1250E+01  0.2640E+04
     13.298  0.1234E+01  0.2640E+04
     13.350  0.7104E+00  0.2640E+04
     13.402  0.1543E+00  0.2640E+04
     13.454 -0.4821E-01  0.2640E+04
     13.506 -0.3411E-01  0.2640E+04
     13.557 -0.7438E-02  0.2640E+04
     13.609 -0.7890E-03  0.2640E+04
     13.661 -0.4474E-04  0.2640E+04
     13.713 -0.1407E-05  0.2640E+04
     13.765 -0.2496E-07  0.2640E+04
     13.817 -0.2525E-09  0.2640E+04
     13.869 -0.1465E-11  0.2640E+04
     13.921 -0.5227E-14  0.2640E+04
     13.973  0.0000E+00  0.2640E+04
     14.025  0.0000E+00  0.2640E+04
     14.077  0.0000E+00  0.2640E+04
     14.129  0.0000E+00  0.2640E+04
     14.180  0.0000E+00  0.2640E+04
     14.232  0.0000E+00  0.2640E+04
     14.284  0.0000E+00  0.2640E+04
