  96  96   0   0
  0.1375384E+02  0.1087497E-08  0.1087496E-08  0.1289166E-08  0.5000000E-15
  1.000000000000000E-004
  CAR 
 Ir_Ru                                   
     11.44505529     -0.09836973  301      8.82452598      1.00000000
     -0.098  0.0000E+00  0.0000E+00
     -0.060  0.0000E+00  0.0000E+00
     -0.021  0.0000E+00  0.0000E+00
      0.017  0.0000E+00  0.0000E+00
      0.056  0.0000E+00  0.0000E+00
      0.094 -0.5588E-28 -0.2150E-29
      0.132 -0.2290E-25 -0.8834E-27
      0.171 -0.6974E-23 -0.2692E-24
      0.209 -0.1575E-20 -0.6086E-22
      0.248 -0.2635E-18 -0.1020E-19
      0.286 -0.3266E-16 -0.1267E-17
      0.325 -0.2910E-14 -0.1132E-15
      0.363 -0.1965E-12 -0.7673E-14
      0.402 -0.9800E-11 -0.3848E-12
      0.440 -0.3603E-09 -0.1425E-10
      0.479 -0.9747E-08 -0.3893E-09
      0.517 -0.1935E-06 -0.7834E-08
      0.556 -0.2809E-05 -0.1159E-06
      0.594 -0.2973E-04 -0.1260E-05
      0.633 -0.2283E-03 -0.1004E-04
      0.671 -0.1266E-02 -0.5876E-04
      0.710 -0.5056E-02 -0.2533E-03
      0.748 -0.1451E-01 -0.8115E-03
      0.787 -0.2949E-01 -0.1946E-02
      0.825 -0.3725E-01 -0.3379E-02
      0.864  0.6172E-02 -0.3142E-02
      0.902  0.1982E+00  0.4486E-02
      0.941  0.6530E+00  0.2961E-01
      0.979  0.1361E+01  0.8196E-01
      1.017  0.2086E+01  0.1622E+00
      1.056  0.2462E+01  0.2569E+00
      1.094  0.2277E+01  0.3445E+00
      1.133  0.1848E+01  0.4156E+00
      1.171  0.1952E+01  0.4907E+00
      1.210  0.3079E+01  0.6092E+00
      1.248  0.4764E+01  0.7926E+00
      1.287  0.5797E+01  0.1016E+01
      1.325  0.5251E+01  0.1218E+01
      1.364  0.3469E+01  0.1351E+01
      1.402  0.1917E+01  0.1425E+01
      1.441  0.1903E+01  0.1498E+01
      1.479  0.3525E+01  0.1634E+01
      1.518  0.5860E+01  0.1859E+01
      1.556  0.7673E+01  0.2154E+01
      1.595  0.7962E+01  0.2461E+01
      1.633  0.6646E+01  0.2717E+01
      1.672  0.4906E+01  0.2905E+01
      1.710  0.4355E+01  0.3073E+01
      1.749  0.5469E+01  0.3283E+01
      1.787  0.6875E+01  0.3548E+01
      1.826  0.6932E+01  0.3815E+01
      1.864  0.5947E+01  0.4043E+01
      1.902  0.5577E+01  0.4258E+01
      1.941  0.6426E+01  0.4505E+01
      1.979  0.7716E+01  0.4802E+01
      2.018  0.8737E+01  0.5138E+01
      2.056  0.9317E+01  0.5497E+01
      2.095  0.9352E+01  0.5857E+01
      2.133  0.9149E+01  0.6209E+01
      2.172  0.9727E+01  0.6583E+01
      2.210  0.1117E+02  0.7013E+01
      2.249  0.1147E+02  0.7454E+01
      2.287  0.9004E+01  0.7801E+01
      2.326  0.5327E+01  0.8006E+01
      2.364  0.3558E+01  0.8143E+01
      2.403  0.5331E+01  0.8348E+01
      2.441  0.1000E+02  0.8732E+01
      2.480  0.1537E+02  0.9324E+01
      2.518  0.1906E+02  0.1006E+02
      2.557  0.2092E+02  0.1086E+02
      2.595  0.2355E+02  0.1177E+02
      2.634  0.2870E+02  0.1287E+02
      2.672  0.3478E+02  0.1421E+02
      2.711  0.4015E+02  0.1576E+02
      2.749  0.4677E+02  0.1756E+02
      2.787  0.5762E+02  0.1977E+02
      2.826  0.7139E+02  0.2252E+02
      2.864  0.8338E+02  0.2573E+02
      2.903  0.9241E+02  0.2928E+02
      2.941  0.1022E+03  0.3322E+02
      2.980  0.1146E+03  0.3762E+02
      3.018  0.1266E+03  0.4250E+02
      3.057  0.1348E+03  0.4768E+02
      3.095  0.1370E+03  0.5296E+02
      3.134  0.1338E+03  0.5810E+02
      3.172  0.1280E+03  0.6303E+02
      3.211  0.1224E+03  0.6774E+02
      3.249  0.1225E+03  0.7245E+02
      3.288  0.1344E+03  0.7763E+02
      3.326  0.1550E+03  0.8359E+02
      3.365  0.1699E+03  0.9013E+02
      3.403  0.1698E+03  0.9666E+02
      3.442  0.1616E+03  0.1029E+03
      3.480  0.1582E+03  0.1090E+03
      3.519  0.1638E+03  0.1153E+03
      3.557  0.1688E+03  0.1218E+03
      3.596  0.1624E+03  0.1280E+03
      3.634  0.1474E+03  0.1337E+03
      3.672  0.1368E+03  0.1389E+03
      3.711  0.1349E+03  0.1441E+03
      3.749  0.1326E+03  0.1492E+03
      3.788  0.1241E+03  0.1540E+03
      3.826  0.1147E+03  0.1584E+03
      3.865  0.1098E+03  0.1626E+03
      3.903  0.1077E+03  0.1668E+03
      3.942  0.1057E+03  0.1709E+03
      3.980  0.1053E+03  0.1749E+03
      4.019  0.1064E+03  0.1790E+03
      4.057  0.1055E+03  0.1831E+03
      4.096  0.1023E+03  0.1870E+03
      4.134  0.9969E+02  0.1908E+03
      4.173  0.9774E+02  0.1946E+03
      4.211  0.9754E+02  0.1983E+03
      4.250  0.1054E+03  0.2024E+03
      4.288  0.1231E+03  0.2071E+03
      4.327  0.1404E+03  0.2125E+03
      4.365  0.1473E+03  0.2182E+03
      4.404  0.1454E+03  0.2238E+03
      4.442  0.1418E+03  0.2293E+03
      4.481  0.1397E+03  0.2346E+03
      4.519  0.1382E+03  0.2400E+03
      4.557  0.1368E+03  0.2452E+03
      4.596  0.1345E+03  0.2504E+03
      4.634  0.1280E+03  0.2553E+03
      4.673  0.1172E+03  0.2598E+03
      4.711  0.1078E+03  0.2640E+03
      4.750  0.1051E+03  0.2680E+03
      4.788  0.1088E+03  0.2722E+03
      4.827  0.1164E+03  0.2767E+03
      4.865  0.1259E+03  0.2815E+03
      4.904  0.1344E+03  0.2867E+03
      4.942  0.1395E+03  0.2921E+03
      4.981  0.1409E+03  0.2975E+03
      5.019  0.1383E+03  0.3028E+03
      5.058  0.1303E+03  0.3078E+03
      5.096  0.1202E+03  0.3125E+03
      5.135  0.1189E+03  0.3170E+03
      5.173  0.1342E+03  0.3222E+03
      5.212  0.1554E+03  0.3282E+03
      5.250  0.1616E+03  0.3344E+03
      5.289  0.1455E+03  0.3400E+03
      5.327  0.1203E+03  0.3446E+03
      5.366  0.1021E+03  0.3485E+03
      5.404  0.9389E+02  0.3522E+03
      5.442  0.8838E+02  0.3556E+03
      5.481  0.8010E+02  0.3586E+03
      5.519  0.6826E+02  0.3613E+03
      5.558  0.5419E+02  0.3633E+03
      5.596  0.4324E+02  0.3650E+03
      5.635  0.4493E+02  0.3667E+03
      5.673  0.6442E+02  0.3692E+03
      5.712  0.9455E+02  0.3729E+03
      5.750  0.1213E+03  0.3775E+03
      5.789  0.1390E+03  0.3829E+03
      5.827  0.1540E+03  0.3888E+03
      5.866  0.1700E+03  0.3953E+03
      5.904  0.1811E+03  0.4023E+03
      5.943  0.1836E+03  0.4094E+03
      5.981  0.1850E+03  0.4165E+03
      6.020  0.1904E+03  0.4238E+03
      6.058  0.1927E+03  0.4312E+03
      6.097  0.1852E+03  0.4384E+03
      6.135  0.1699E+03  0.4449E+03
      6.174  0.1518E+03  0.4507E+03
      6.212  0.1367E+03  0.4560E+03
      6.251  0.1287E+03  0.4609E+03
      6.289  0.1262E+03  0.4658E+03
      6.327  0.1241E+03  0.4706E+03
      6.366  0.1212E+03  0.4752E+03
      6.404  0.1217E+03  0.4799E+03
      6.443  0.1289E+03  0.4849E+03
      6.481  0.1410E+03  0.4903E+03
      6.520  0.1550E+03  0.4963E+03
      6.558  0.1711E+03  0.5029E+03
      6.597  0.1892E+03  0.5101E+03
      6.635  0.2017E+03  0.5179E+03
      6.674  0.1984E+03  0.5255E+03
      6.712  0.1798E+03  0.5325E+03
      6.751  0.1578E+03  0.5385E+03
      6.789  0.1436E+03  0.5441E+03
      6.828  0.1385E+03  0.5494E+03
      6.866  0.1359E+03  0.5546E+03
      6.905  0.1309E+03  0.5596E+03
      6.943  0.1265E+03  0.5645E+03
      6.982  0.1281E+03  0.5694E+03
      7.020  0.1346E+03  0.5746E+03
      7.059  0.1414E+03  0.5801E+03
      7.097  0.1483E+03  0.5858E+03
      7.136  0.1578E+03  0.5918E+03
      7.174  0.1678E+03  0.5983E+03
      7.212  0.1728E+03  0.6049E+03
      7.251  0.1716E+03  0.6115E+03
      7.289  0.1671E+03  0.6180E+03
      7.328  0.1623E+03  0.6242E+03
      7.366  0.1582E+03  0.6303E+03
      7.405  0.1523E+03  0.6362E+03
      7.443  0.1398E+03  0.6416E+03
      7.482  0.1226E+03  0.6463E+03
      7.520  0.1123E+03  0.6506E+03
      7.559  0.1168E+03  0.6551E+03
      7.597  0.1280E+03  0.6600E+03
      7.636  0.1305E+03  0.6650E+03
      7.674  0.1192E+03  0.6696E+03
      7.713  0.1038E+03  0.6736E+03
      7.751  0.9615E+02  0.6773E+03
      7.790  0.9876E+02  0.6811E+03
      7.828  0.1053E+03  0.6852E+03
      7.867  0.1078E+03  0.6893E+03
      7.905  0.1040E+03  0.6933E+03
      7.944  0.9664E+02  0.6970E+03
      7.982  0.8769E+02  0.7004E+03
      8.021  0.7790E+02  0.7034E+03
      8.059  0.7104E+02  0.7061E+03
      8.097  0.7051E+02  0.7088E+03
      8.136  0.7386E+02  0.7117E+03
      8.174  0.7714E+02  0.7147E+03
      8.213  0.8112E+02  0.7178E+03
      8.251  0.8882E+02  0.7212E+03
      8.290  0.1009E+03  0.7251E+03
      8.328  0.1142E+03  0.7295E+03
      8.367  0.1225E+03  0.7342E+03
      8.405  0.1207E+03  0.7388E+03
      8.444  0.1081E+03  0.7430E+03
      8.482  0.8898E+02  0.7464E+03
      8.521  0.7279E+02  0.7492E+03
      8.559  0.6774E+02  0.7518E+03
      8.598  0.7080E+02  0.7545E+03
      8.636  0.6980E+02  0.7572E+03
      8.675  0.5863E+02  0.7595E+03
      8.713  0.4521E+02  0.7612E+03
      8.752  0.4279E+02  0.7629E+03
      8.790  0.5788E+02  0.7651E+03
      8.829  0.8569E+02  0.7684E+03
      8.867  0.1130E+03  0.7727E+03
      8.906  0.1272E+03  0.7776E+03
      8.944  0.1238E+03  0.7824E+03
      8.982  0.1068E+03  0.7865E+03
      9.021  0.8541E+02  0.7898E+03
      9.059  0.6853E+02  0.7924E+03
      9.098  0.6070E+02  0.7948E+03
      9.136  0.6178E+02  0.7972E+03
      9.175  0.6896E+02  0.7998E+03
      9.213  0.7687E+02  0.8028E+03
      9.252  0.8051E+02  0.8059E+03
      9.290  0.7997E+02  0.8089E+03
      9.329  0.7940E+02  0.8120E+03
      9.367  0.8266E+02  0.8152E+03
      9.406  0.9226E+02  0.8187E+03
      9.444  0.1076E+03  0.8229E+03
      9.483  0.1217E+03  0.8275E+03
      9.521  0.1271E+03  0.8324E+03
      9.560  0.1258E+03  0.8373E+03
      9.598  0.1262E+03  0.8421E+03
      9.637  0.1318E+03  0.8472E+03
      9.675  0.1387E+03  0.8525E+03
      9.714  0.1391E+03  0.8579E+03
      9.752  0.1284E+03  0.8628E+03
      9.790  0.1108E+03  0.8671E+03
      9.829  0.1005E+03  0.8710E+03
      9.867  0.1102E+03  0.8752E+03
      9.906  0.1374E+03  0.8805E+03
      9.944  0.1639E+03  0.8868E+03
      9.983  0.1700E+03  0.8933E+03
     10.021  0.1513E+03  0.8992E+03
     10.060  0.1214E+03  0.9038E+03
     10.098  0.9618E+02  0.9075E+03
     10.137  0.8070E+02  0.9106E+03
     10.175  0.7036E+02  0.9133E+03
     10.214  0.5940E+02  0.9156E+03
     10.252  0.4587E+02  0.9174E+03
     10.291  0.3136E+02  0.9186E+03
     10.329  0.1873E+02  0.9193E+03
     10.368  0.9885E+01  0.9197E+03
     10.406  0.4847E+01  0.9199E+03
     10.445  0.2292E+01  0.9200E+03
     10.483  0.8991E+00  0.9200E+03
     10.522  0.1090E+00  0.9200E+03
     10.560 -0.1925E+00  0.9200E+03
     10.599 -0.1807E+00  0.9200E+03
     10.637 -0.8741E-01  0.9200E+03
     10.675 -0.2763E-01  0.9200E+03
     10.714 -0.6092E-02  0.9200E+03
     10.752 -0.9629E-03  0.9200E+03
     10.791 -0.1107E-03  0.9200E+03
     10.829 -0.9343E-05  0.9200E+03
     10.868 -0.5814E-06  0.9200E+03
     10.906 -0.2678E-07  0.9200E+03
     10.945 -0.9148E-09  0.9200E+03
     10.983 -0.2321E-10  0.9200E+03
     11.022 -0.4375E-12  0.9200E+03
     11.060 -0.6002E-14  0.9200E+03
     11.099  0.0000E+00  0.9200E+03
     11.137  0.0000E+00  0.9200E+03
     11.176  0.0000E+00  0.9200E+03
     11.214  0.0000E+00  0.9200E+03
     11.253  0.0000E+00  0.9200E+03
     11.291  0.0000E+00  0.9200E+03
     11.330  0.0000E+00  0.9200E+03
     11.368  0.0000E+00  0.9200E+03
     11.407  0.0000E+00  0.9200E+03
     11.445  0.0000E+00  0.9200E+03
