<?xml version="1.0" encoding="ISO-8859-1"?>
<modeling>
 <generator>
  <i name="program" type="string">vasp </i>
  <i name="version" type="string">5.4.1  </i>
  <i name="subversion" type="string">24Jun15 (build Feb 03 2017 16:24:58) complex                          parallel </i>
  <i name="platform" type="string">IFC91_ompi </i>
  <i name="date" type="string">2018 06 22 </i>
  <i name="time" type="string">18:49:54 </i>
 </generator>
 <incar>
  <i type="string" name="SYSTEM"> Ir_Ru</i>
  <i type="int" name="ISTART">     0</i>
  <i type="string" name="PREC">accurate</i>
  <i type="string" name="ALGO"> Very_Fast</i>
  <i type="int" name="ICHARG">     2</i>
  <i type="int" name="NELMIN">     5</i>
  <i type="int" name="IBRION">    -1</i>
  <i name="EDIFFG">      0.00001000</i>
  <i type="int" name="ISIF">     2</i>
  <i type="string" name="LREAL"> AUTO</i>
  <i type="int" name="ISMEAR">     1</i>
  <i name="SIGMA">      0.10000000</i>
  <v type="int" name="KPOINT_BSE">    -1     0     0     0</v>
 </incar>
 <kpoints>
  <generation param="Gamma">
   <v type="int" name="divisions">       5        5        4 </v>
   <v name="usershift">      0.00000000       0.00000000       0.00000000 </v>
   <v name="genvec1">      0.20000000       0.00000000       0.00000000 </v>
   <v name="genvec2">      0.00000000       0.20000000       0.00000000 </v>
   <v name="genvec3">      0.00000000       0.00000000       0.25000000 </v>
   <v name="shift">      0.00000000       0.00000000       0.00000000 </v>
  </generation>
  <varray name="kpointlist" >
   <v>       0.00000000       0.00000000       0.00000000 </v>
   <v>       0.20000000       0.00000000       0.00000000 </v>
   <v>       0.40000000       0.00000000       0.00000000 </v>
   <v>      -0.00000000       0.20000000       0.00000000 </v>
   <v>       0.20000000       0.20000000       0.00000000 </v>
   <v>       0.40000000       0.20000000       0.00000000 </v>
   <v>      -0.00000000       0.40000000       0.00000000 </v>
   <v>       0.20000000       0.40000000       0.00000000 </v>
   <v>      -0.20000000       0.40000000       0.00000000 </v>
   <v>       0.00000000       0.00000000       0.25000000 </v>
   <v>       0.20000000       0.00000000       0.25000000 </v>
   <v>       0.40000000       0.00000000       0.25000000 </v>
   <v>      -0.40000000       0.00000000       0.25000000 </v>
   <v>      -0.20000000       0.00000000       0.25000000 </v>
   <v>      -0.00000000       0.20000000       0.25000000 </v>
   <v>       0.20000000       0.20000000       0.25000000 </v>
   <v>       0.40000000       0.20000000       0.25000000 </v>
   <v>      -0.40000000       0.20000000       0.25000000 </v>
   <v>      -0.20000000       0.20000000       0.25000000 </v>
   <v>      -0.00000000       0.40000000       0.25000000 </v>
   <v>       0.20000000       0.40000000       0.25000000 </v>
   <v>       0.40000000       0.40000000       0.25000000 </v>
   <v>      -0.40000000       0.40000000       0.25000000 </v>
   <v>      -0.20000000       0.40000000       0.25000000 </v>
   <v>       0.00000000       0.00000000       0.50000000 </v>
   <v>       0.20000000       0.00000000       0.50000000 </v>
   <v>       0.40000000       0.00000000       0.50000000 </v>
   <v>      -0.00000000       0.20000000       0.50000000 </v>
   <v>       0.20000000       0.20000000       0.50000000 </v>
   <v>       0.40000000       0.20000000       0.50000000 </v>
   <v>      -0.00000000       0.40000000       0.50000000 </v>
   <v>       0.20000000       0.40000000       0.50000000 </v>
   <v>      -0.20000000       0.40000000       0.50000000 </v>
  </varray>
  <varray name="weights" >
   <v>       0.01000000 </v>
   <v>       0.02000000 </v>
   <v>       0.02000000 </v>
   <v>       0.04000000 </v>
   <v>       0.04000000 </v>
   <v>       0.02000000 </v>
   <v>       0.04000000 </v>
   <v>       0.04000000 </v>
   <v>       0.02000000 </v>
   <v>       0.02000000 </v>
   <v>       0.02000000 </v>
   <v>       0.02000000 </v>
   <v>       0.02000000 </v>
   <v>       0.02000000 </v>
   <v>       0.04000000 </v>
   <v>       0.04000000 </v>
   <v>       0.04000000 </v>
   <v>       0.04000000 </v>
   <v>       0.04000000 </v>
   <v>       0.04000000 </v>
   <v>       0.04000000 </v>
   <v>       0.04000000 </v>
   <v>       0.04000000 </v>
   <v>       0.04000000 </v>
   <v>       0.01000000 </v>
   <v>       0.02000000 </v>
   <v>       0.02000000 </v>
   <v>       0.04000000 </v>
   <v>       0.04000000 </v>
   <v>       0.02000000 </v>
   <v>       0.04000000 </v>
   <v>       0.04000000 </v>
   <v>       0.02000000 </v>
  </varray>
 </kpoints>
 <parameters>
  <separator name="general" >
   <i type="string" name="SYSTEM">Ir_Ru</i>
   <i type="logical" name="LCOMPAT"> F  </i>
  </separator>
  <separator name="electronic" >
   <i type="string" name="PREC">accura</i>
   <i name="ENMAX">    213.27600000</i>
   <i name="ENAUG">    333.49400000</i>
   <i name="EDIFF">      0.00010000</i>
   <i type="int" name="IALGO">    48</i>
   <i type="int" name="IWAVPR">    10</i>
   <i type="int" name="NBANDS">   460</i>
   <i name="NELECT">    768.00000000</i>
   <i type="int" name="TURBO">     0</i>
   <i type="int" name="IRESTART">     0</i>
   <i type="int" name="NREBOOT">     0</i>
   <i type="int" name="NMIN">     0</i>
   <i name="EREF">      0.00000000</i>
   <separator name="electronic smearing" >
    <i type="int" name="ISMEAR">     1</i>
    <i name="SIGMA">      0.10000000</i>
    <i name="KSPACING">      0.50000000</i>
    <i type="logical" name="KGAMMA"> T  </i>
   </separator>
   <separator name="electronic projectors" >
    <i type="logical" name="LREAL"> T  </i>
    <v name="ROPT">     -0.00025000</v>
    <i type="int" name="LMAXPAW">  -100</i>
    <i type="int" name="LMAXMIX">     2</i>
    <i type="logical" name="NLSPLINE"> F  </i>
   </separator>
   <separator name="electronic startup" >
    <i type="int" name="ISTART">     0</i>
    <i type="int" name="ICHARG">     2</i>
    <i type="int" name="INIWAV">     1</i>
   </separator>
   <separator name="electronic spin" >
    <i type="int" name="ISPIN">     1</i>
    <i type="logical" name="LNONCOLLINEAR"> F  </i>
    <v name="MAGMOM">      1.00000000      1.00000000      1.00000000      1.00000000      1.00000000      1.00000000      1.00000000      1.00000000      1.00000000      1.00000000      1.00000000      1.00000000      1.00000000      1.00000000      1.00000000      1.00000000      1.00000000      1.00000000      1.00000000      1.00000000
      1.00000000      1.00000000      1.00000000      1.00000000      1.00000000      1.00000000      1.00000000      1.00000000      1.00000000      1.00000000      1.00000000      1.00000000      1.00000000      1.00000000      1.00000000      1.00000000      1.00000000      1.00000000      1.00000000      1.00000000
      1.00000000      1.00000000      1.00000000      1.00000000      1.00000000      1.00000000      1.00000000      1.00000000      1.00000000      1.00000000      1.00000000      1.00000000      1.00000000      1.00000000      1.00000000      1.00000000      1.00000000      1.00000000      1.00000000      1.00000000
      1.00000000      1.00000000      1.00000000      1.00000000      1.00000000      1.00000000      1.00000000      1.00000000      1.00000000      1.00000000      1.00000000      1.00000000      1.00000000      1.00000000      1.00000000      1.00000000      1.00000000      1.00000000      1.00000000      1.00000000
      1.00000000      1.00000000      1.00000000      1.00000000      1.00000000      1.00000000      1.00000000      1.00000000      1.00000000      1.00000000      1.00000000      1.00000000      1.00000000      1.00000000      1.00000000      1.00000000</v>
    <i name="NUPDOWN">     -1.00000000</i>
    <i type="logical" name="LSORBIT"> F  </i>
    <v name="SAXIS">      0.00000000      0.00000000      1.00000000</v>
    <i type="logical" name="LSPIRAL"> F  </i>
    <v name="QSPIRAL">      0.00000000      0.00000000      0.00000000</v>
    <i type="logical" name="LZEROZ"> F  </i>
   </separator>
   <separator name="electronic exchange-correlation" >
    <i type="logical" name="LASPH"> F  </i>
    <i type="logical" name="LMETAGGA"> F  </i>
   </separator>
   <separator name="electronic convergence" >
    <i type="int" name="NELM">    60</i>
    <i type="int" name="NELMDL">   -12</i>
    <i type="int" name="NELMIN">     5</i>
    <i name="ENINI">    213.27600000</i>
    <separator name="electronic convergence detail" >
     <i type="logical" name="LDIAG"> T  </i>
     <i type="logical" name="LSUBROT"> F  </i>
     <i name="WEIMIN">      0.00000000</i>
     <i name="EBREAK">      0.00000000</i>
     <i name="DEPER">      0.30000000</i>
     <i type="int" name="NRMM">     4</i>
     <i name="TIME">      0.40000000</i>
    </separator>
   </separator>
   <separator name="electronic mixer" >
    <i name="AMIX">      0.40000000</i>
    <i name="BMIX">      1.00000000</i>
    <i name="AMIN">      0.10000000</i>
    <i name="AMIX_MAG">      1.60000000</i>
    <i name="BMIX_MAG">      1.00000000</i>
    <separator name="electronic mixer details" >
     <i type="int" name="IMIX">     4</i>
     <i type="logical" name="MIXFIRST"> F  </i>
     <i type="int" name="MAXMIX">   -45</i>
     <i name="WC">    100.00000000</i>
     <i type="int" name="INIMIX">     1</i>
     <i type="int" name="MIXPRE">     1</i>
     <i type="int" name="MREMOVE">     5</i>
    </separator>
   </separator>
   <separator name="electronic dipolcorrection" >
    <i type="logical" name="LDIPOL"> F  </i>
    <i type="logical" name="LMONO"> F  </i>
    <i type="int" name="IDIPOL">     0</i>
    <i name="EPSILON">      1.00000000</i>
    <v name="DIPOL">   -100.00000000   -100.00000000   -100.00000000</v>
    <i name="EFIELD">      0.00000000</i>
   </separator>
  </separator>
  <separator name="grids" >
   <i type="int" name="NGX">    54</i>
   <i type="int" name="NGY">    54</i>
   <i type="int" name="NGZ">    64</i>
   <i type="int" name="NGXF">   108</i>
   <i type="int" name="NGYF">   108</i>
   <i type="int" name="NGZF">   128</i>
   <i type="logical" name="ADDGRID"> F  </i>
  </separator>
  <separator name="ionic" >
   <i type="int" name="NSW">     0</i>
   <i type="int" name="IBRION">    -1</i>
   <i type="int" name="ISIF">     2</i>
   <i name="PSTRESS">      0.00000000</i>
   <i name="EDIFFG">      0.00001000</i>
   <i type="int" name="NFREE">     0</i>
   <i name="POTIM">      0.50000000</i>
   <i name="SMASS">     -3.00000000</i>
   <i name="SCALEE">      1.00000000</i>
  </separator>
  <separator name="ionic md" >
   <i name="TEBEG">      0.00010000</i>
   <i name="TEEND">      0.00010000</i>
   <i type="int" name="NBLOCK">     1</i>
   <i type="int" name="KBLOCK">     1</i>
   <i type="int" name="NPACO">   256</i>
   <i name="APACO">     16.00000000</i>
  </separator>
  <separator name="symmetry" >
   <i type="int" name="ISYM">     2</i>
   <i name="SYMPREC">      0.00001000</i>
  </separator>
  <separator name="dos" >
   <i type="logical" name="LORBIT"> F  </i>
   <v name="RWIGS">     -1.00000000</v>
   <i type="int" name="NEDOS">   301</i>
   <i name="EMIN">     10.00000000</i>
   <i name="EMAX">    -10.00000000</i>
   <i name="EFERMI">      0.00000000</i>
  </separator>
  <separator name="writing" >
   <i type="int" name="NWRITE">     2</i>
   <i type="logical" name="LWAVE"> T  </i>
   <i type="logical" name="LCHARG"> T  </i>
   <i type="logical" name="LPARD"> F  </i>
   <i type="logical" name="LVTOT"> F  </i>
   <i type="logical" name="LVHAR"> F  </i>
   <i type="logical" name="LELF"> F  </i>
   <i type="logical" name="LOPTICS"> F  </i>
   <v name="STM">      0.00000000      0.00000000      0.00000000      0.00000000      0.00000000      0.00000000      0.00000000</v>
  </separator>
  <separator name="performance" >
   <i type="int" name="NPAR">    20</i>
   <i type="int" name="NSIM">     4</i>
   <i type="int" name="NBLK">    -1</i>
   <i type="logical" name="LPLANE"> T  </i>
   <i type="logical" name="LSCALAPACK"> T  </i>
   <i type="logical" name="LSCAAWARE"> F  </i>
   <i type="logical" name="LSCALU"> F  </i>
   <i type="logical" name="LASYNC"> F  </i>
   <i type="logical" name="LORBITALREAL"> F  </i>
  </separator>
  <separator name="miscellaneous" >
   <i type="int" name="IDIOT">     3</i>
   <i type="logical" name="LMUSIC"> F  </i>
   <v name="POMASS">    101.07000000</v>
   <v name="DARWINR">      0.00000000</v>
   <v name="DARWINV">      1.00000000</v>
   <i type="logical" name="LCORR"> T  </i>
  </separator>
  <i type="logical" name="GGA_COMPAT"> T  </i>
  <i type="logical" name="LBERRY"> F  </i>
  <i type="int" name="ICORELEVEL">     0</i>
  <i type="logical" name="LDAU"> F  </i>
  <i type="int" name="I_CONSTRAINED_M">     0</i>
  <separator name="electronic exchange-correlation" >
   <i type="string" name="GGA">--</i>
   <i type="int" name="VOSKOWN">     0</i>
   <i type="logical" name="LHFCALC"> F  </i>
   <i type="string" name="PRECFOCK"></i>
   <i type="logical" name="LSYMGRAD"> F  </i>
   <i type="logical" name="LHFONE"> F  </i>
   <i type="logical" name="LRHFCALC"> F  </i>
   <i type="logical" name="LTHOMAS"> F  </i>
   <i type="logical" name="LMODELHF"> F  </i>
   <i name="ENCUT4O">     -1.00000000</i>
   <i type="int" name="EXXOEP">     0</i>
   <i type="int" name="FOURORBIT">     0</i>
   <i name="AEXX">      0.00000000</i>
   <i name="HFALPHA">      0.00000000</i>
   <i name="MCALPHA">      0.00000000</i>
   <i name="ALDAX">      1.00000000</i>
   <i name="AGGAX">      1.00000000</i>
   <i name="ALDAC">      1.00000000</i>
   <i name="AGGAC">      1.00000000</i>
   <i type="int" name="NKREDX">     1</i>
   <i type="int" name="NKREDY">     1</i>
   <i type="int" name="NKREDZ">     1</i>
   <i type="logical" name="SHIFTRED"> F  </i>
   <i type="logical" name="ODDONLY"> F  </i>
   <i type="logical" name="EVENONLY"> F  </i>
   <i type="int" name="LMAXFOCK">     0</i>
   <i type="int" name="NMAXFOCKAE">     0</i>
   <i type="logical" name="LFOCKAEDFT"> F  </i>
   <i name="HFSCREEN">      0.00000000</i>
   <i name="HFSCREENC">      0.00000000</i>
   <i type="int" name="NBANDSGWLOW">     0</i>
  </separator>
  <separator name="vdW DFT" >
   <i type="logical" name="LUSE_VDW"> F  </i>
   <i name="Zab_VDW">     -0.84910000</i>
   <i name="PARAM1">      0.12340000</i>
   <i name="PARAM2">      1.00000000</i>
   <i name="PARAM3">      0.00000000</i>
  </separator>
  <separator name="model GW" >
   <i type="int" name="MODEL_GW">     0</i>
   <i name="MODEL_EPS0">      8.25230393</i>
   <i name="MODEL_ALPHA">      1.00000000</i>
  </separator>
  <separator name="linear response parameters" >
   <i type="logical" name="LEPSILON"> F  </i>
   <i type="logical" name="LRPA"> F  </i>
   <i type="logical" name="LNABLA"> F  </i>
   <i type="logical" name="LVEL"> F  </i>
   <i type="int" name="KINTER">     0</i>
   <i name="CSHIFT">      0.10000000</i>
   <i name="OMEGAMAX">     -1.00000000</i>
   <i name="DEG_THRESHOLD">      0.00200000</i>
  </separator>
  <separator name="orbital magnetization" >
   <i type="logical" name="NUCIND"> F  </i>
   <v name="MAGPOS">      0.00000000      0.00000000      0.00000000</v>
   <i type="logical" name="LNICSALL"> T  </i>
   <i type="logical" name="ORBITALMAG"> F  </i>
   <i type="logical" name="LMAGBLOCH"> F  </i>
   <i type="logical" name="LCHIMAG"> F  </i>
   <i type="logical" name="LGAUGE"> T  </i>
   <i type="int" name="MAGATOM">     0</i>
   <v name="MAGDIPOL">      0.00000000      0.00000000      0.00000000</v>
   <v name="AVECCONST">      0.00000000      0.00000000      0.00000000</v>
  </separator>
  <separator name="response functions" >
   <i type="logical" name="LADDER"> F  </i>
   <i type="logical" name="LFXC"> F  </i>
   <i type="logical" name="LHARTREE"> T  </i>
   <i type="int" name="IBSE">     0</i>
   <v type="int" name="KPOINT">    -1     0     0     0</v>
   <i type="logical" name="LTCTE"> F  </i>
   <i type="logical" name="LTETE"> F  </i>
   <i type="logical" name="LTRIPLET"> F  </i>
   <i type="logical" name="LFXCEPS"> F  </i>
   <i type="logical" name="LFXHEG"> F  </i>
   <i type="int" name="NATURALO">     0</i>
   <i type="logical" name="L2ORDER"> F  </i>
   <i type="logical" name="LUSEW"> F  </i>
   <i name="ENCUTGW">     -2.00000000</i>
   <i name="ENCUTGWSOFT">     -2.00000000</i>
   <i name="ENCUTLF">     -1.00000000</i>
   <i type="int" name="LMAXMP2">    -1</i>
   <i name="SCISSOR">      0.00000000</i>
   <i type="int" name="NOMEGA">     0</i>
   <i type="int" name="NOMEGAR">     0</i>
   <i type="int" name="NBANDSGW">    -1</i>
   <i type="int" name="NBANDSO">    -1</i>
   <i type="int" name="NBANDSV">    -1</i>
   <i type="int" name="NELM">     1</i>
   <i type="int" name="NELMHF">     1</i>
   <i type="int" name="DIM">     3</i>
   <i type="int" name="ANTIRES">     0</i>
   <i name="OMEGAMAX">    -30.00000000</i>
   <i name="OMEGAMIN">    -30.00000000</i>
   <i name="OMEGATL">   -200.00000000</i>
   <i type="int" name="OMEGAGRID">     0</i>
   <i name="CSHIFT">     -0.10000000</i>
   <i type="logical" name="SELFENERGY"> F  </i>
   <i type="logical" name="LSPECTRAL"> F  </i>
   <i type="logical" name="LSPECTRALGW"> F  </i>
   <i type="logical" name="LSINGLES"> F  </i>
   <i type="logical" name="LFERMIGW"> F  </i>
   <i type="logical" name="ODDONLYGW"> F  </i>
   <i type="logical" name="EVENONLYGW"> F  </i>
   <i type="int" name="NKREDLFX">     1</i>
   <i type="int" name="NKREDLFY">     1</i>
   <i type="int" name="NKREDLFZ">     1</i>
   <i type="int" name="MAXMEM">  1800</i>
   <i type="int" name="TELESCOPE">     0</i>
   <i type="int" name="TAUPAR">     1</i>
   <i type="int" name="OMEGAPAR">    -1</i>
   <i name="LAMBDA">      1.00000000</i>
  </separator>
  <separator name="External order field" >
   <i name="OFIELD_KAPPA">      0.00000000</i>
   <v name="OFIELD_K">      0.00000000      0.00000000      0.00000000</v>
   <i name="OFIELD_Q6_NEAR">      0.00000000</i>
   <i name="OFIELD_Q6_FAR">      0.00000000</i>
   <i name="OFIELD_A">      0.00000000</i>
  </separator>
 </parameters>
 <atominfo>
  <atoms>      96 </atoms>
  <types>       1 </types>
  <array name="atoms" >
   <dimension dim="1">ion</dimension>
   <field type="string">element</field>
   <field type="int">atomtype</field>
   <set>
    <rc><c>Ru</c><c>   1</c></rc>
    <rc><c>Ru</c><c>   1</c></rc>
    <rc><c>Ru</c><c>   1</c></rc>
    <rc><c>Ru</c><c>   1</c></rc>
    <rc><c>Ru</c><c>   1</c></rc>
    <rc><c>Ru</c><c>   1</c></rc>
    <rc><c>Ru</c><c>   1</c></rc>
    <rc><c>Ru</c><c>   1</c></rc>
    <rc><c>Ru</c><c>   1</c></rc>
    <rc><c>Ru</c><c>   1</c></rc>
    <rc><c>Ru</c><c>   1</c></rc>
    <rc><c>Ru</c><c>   1</c></rc>
    <rc><c>Ru</c><c>   1</c></rc>
    <rc><c>Ru</c><c>   1</c></rc>
    <rc><c>Ru</c><c>   1</c></rc>
    <rc><c>Ru</c><c>   1</c></rc>
    <rc><c>Ru</c><c>   1</c></rc>
    <rc><c>Ru</c><c>   1</c></rc>
    <rc><c>Ru</c><c>   1</c></rc>
    <rc><c>Ru</c><c>   1</c></rc>
    <rc><c>Ru</c><c>   1</c></rc>
    <rc><c>Ru</c><c>   1</c></rc>
    <rc><c>Ru</c><c>   1</c></rc>
    <rc><c>Ru</c><c>   1</c></rc>
    <rc><c>Ru</c><c>   1</c></rc>
    <rc><c>Ru</c><c>   1</c></rc>
    <rc><c>Ru</c><c>   1</c></rc>
    <rc><c>Ru</c><c>   1</c></rc>
    <rc><c>Ru</c><c>   1</c></rc>
    <rc><c>Ru</c><c>   1</c></rc>
    <rc><c>Ru</c><c>   1</c></rc>
    <rc><c>Ru</c><c>   1</c></rc>
    <rc><c>Ru</c><c>   1</c></rc>
    <rc><c>Ru</c><c>   1</c></rc>
    <rc><c>Ru</c><c>   1</c></rc>
    <rc><c>Ru</c><c>   1</c></rc>
    <rc><c>Ru</c><c>   1</c></rc>
    <rc><c>Ru</c><c>   1</c></rc>
    <rc><c>Ru</c><c>   1</c></rc>
    <rc><c>Ru</c><c>   1</c></rc>
    <rc><c>Ru</c><c>   1</c></rc>
    <rc><c>Ru</c><c>   1</c></rc>
    <rc><c>Ru</c><c>   1</c></rc>
    <rc><c>Ru</c><c>   1</c></rc>
    <rc><c>Ru</c><c>   1</c></rc>
    <rc><c>Ru</c><c>   1</c></rc>
    <rc><c>Ru</c><c>   1</c></rc>
    <rc><c>Ru</c><c>   1</c></rc>
    <rc><c>Ru</c><c>   1</c></rc>
    <rc><c>Ru</c><c>   1</c></rc>
    <rc><c>Ru</c><c>   1</c></rc>
    <rc><c>Ru</c><c>   1</c></rc>
    <rc><c>Ru</c><c>   1</c></rc>
    <rc><c>Ru</c><c>   1</c></rc>
    <rc><c>Ru</c><c>   1</c></rc>
    <rc><c>Ru</c><c>   1</c></rc>
    <rc><c>Ru</c><c>   1</c></rc>
    <rc><c>Ru</c><c>   1</c></rc>
    <rc><c>Ru</c><c>   1</c></rc>
    <rc><c>Ru</c><c>   1</c></rc>
    <rc><c>Ru</c><c>   1</c></rc>
    <rc><c>Ru</c><c>   1</c></rc>
    <rc><c>Ru</c><c>   1</c></rc>
    <rc><c>Ru</c><c>   1</c></rc>
    <rc><c>Ru</c><c>   1</c></rc>
    <rc><c>Ru</c><c>   1</c></rc>
    <rc><c>Ru</c><c>   1</c></rc>
    <rc><c>Ru</c><c>   1</c></rc>
    <rc><c>Ru</c><c>   1</c></rc>
    <rc><c>Ru</c><c>   1</c></rc>
    <rc><c>Ru</c><c>   1</c></rc>
    <rc><c>Ru</c><c>   1</c></rc>
    <rc><c>Ru</c><c>   1</c></rc>
    <rc><c>Ru</c><c>   1</c></rc>
    <rc><c>Ru</c><c>   1</c></rc>
    <rc><c>Ru</c><c>   1</c></rc>
    <rc><c>Ru</c><c>   1</c></rc>
    <rc><c>Ru</c><c>   1</c></rc>
    <rc><c>Ru</c><c>   1</c></rc>
    <rc><c>Ru</c><c>   1</c></rc>
    <rc><c>Ru</c><c>   1</c></rc>
    <rc><c>Ru</c><c>   1</c></rc>
    <rc><c>Ru</c><c>   1</c></rc>
    <rc><c>Ru</c><c>   1</c></rc>
    <rc><c>Ru</c><c>   1</c></rc>
    <rc><c>Ru</c><c>   1</c></rc>
    <rc><c>Ru</c><c>   1</c></rc>
    <rc><c>Ru</c><c>   1</c></rc>
    <rc><c>Ru</c><c>   1</c></rc>
    <rc><c>Ru</c><c>   1</c></rc>
    <rc><c>Ru</c><c>   1</c></rc>
    <rc><c>Ru</c><c>   1</c></rc>
    <rc><c>Ru</c><c>   1</c></rc>
    <rc><c>Ru</c><c>   1</c></rc>
    <rc><c>Ru</c><c>   1</c></rc>
    <rc><c>Ru</c><c>   1</c></rc>
   </set>
  </array>
  <array name="atomtypes" >
   <dimension dim="1">type</dimension>
   <field type="int">atomspertype</field>
   <field type="string">element</field>
   <field>mass</field>
   <field>valence</field>
   <field type="string">pseudopotential</field>
   <set>
    <rc><c>  96</c><c>Ru</c><c>    101.07000000</c><c>      8.00000000</c><c> PAW_PBE Ru 06Sep2000                   </c></rc>
   </set>
  </array>
 </atominfo>
 <structure name="initialpos" >
  <crystal>
   <varray name="basis" >
    <v>      -5.43748000      -9.41800000       0.00000000 </v>
    <v>      10.87496000       0.00000000       0.00000000 </v>
    <v>       0.00000000       0.00000000      12.89166000 </v>
   </varray>
   <i name="volume">   1320.36862940 </i>
   <varray name="rec_basis" >
    <v>       0.00000000      -0.10617966       0.00000000 </v>
    <v>       0.09195436      -0.05308983       0.00000000 </v>
    <v>       0.00000000       0.00000000       0.07756953 </v>
   </varray>
  </crystal>
  <varray name="positions" >
   <v>       0.50000000       0.00000000       0.33333333 </v>
   <v>       0.66666750       0.08333500       0.16666667 </v>
   <v>       0.50000000       0.25000000       0.33333333 </v>
   <v>       0.66666750       0.33333500       0.16666667 </v>
   <v>       0.50000000       0.50000000       0.33333333 </v>
   <v>       0.66666750       0.58333500       0.16666667 </v>
   <v>       0.50000000       0.75000000       0.33333333 </v>
   <v>       0.66666750       0.83333500       0.16666667 </v>
   <v>       0.25000000       0.00000000       0.33333333 </v>
   <v>       0.41666750       0.08333500       0.16666667 </v>
   <v>       0.25000000       0.25000000       0.33333333 </v>
   <v>       0.41666750       0.33333500       0.16666667 </v>
   <v>       0.25000000       0.50000000       0.33333333 </v>
   <v>       0.41666750       0.58333500       0.16666667 </v>
   <v>       0.25000000       0.75000000       0.33333333 </v>
   <v>       0.41666750       0.83333500       0.16666667 </v>
   <v>       0.00000000       0.00000000       0.33333333 </v>
   <v>       0.16666750       0.08333500       0.16666667 </v>
   <v>       0.00000000       0.25000000       0.33333333 </v>
   <v>       0.16666750       0.33333500       0.16666667 </v>
   <v>       0.00000000       0.50000000       0.33333333 </v>
   <v>       0.16666750       0.58333500       0.16666667 </v>
   <v>       0.00000000       0.75000000       0.33333333 </v>
   <v>       0.16666750       0.83333500       0.16666667 </v>
   <v>       0.75300250       0.00150000       0.33114000 </v>
   <v>       0.91666750       0.08333500       0.16666667 </v>
   <v>       0.75000000       0.25000000       0.33333333 </v>
   <v>       0.91666750       0.33333500       0.16666667 </v>
   <v>       0.75000000       0.50000000       0.33333333 </v>
   <v>       0.91666750       0.58333500       0.16666667 </v>
   <v>       0.75000000       0.75000000       0.33333333 </v>
   <v>       0.91666750       0.83333500       0.16666667 </v>
   <v>       0.50000000       0.00000000       0.66666667 </v>
   <v>       0.66666750       0.08333500       0.50000000 </v>
   <v>       0.50000000       0.25000000       0.66666667 </v>
   <v>       0.66666750       0.33333500       0.50000000 </v>
   <v>       0.50000000       0.50000000       0.66666667 </v>
   <v>       0.66666750       0.58333500       0.50000000 </v>
   <v>       0.50000000       0.75000000       0.66666667 </v>
   <v>       0.66666750       0.83333500       0.50000000 </v>
   <v>       0.25000000       0.00000000       0.66666667 </v>
   <v>       0.41666750       0.08333500       0.50000000 </v>
   <v>       0.25000000       0.25000000       0.66666667 </v>
   <v>       0.41666750       0.33333500       0.50000000 </v>
   <v>       0.25000000       0.50000000       0.66666667 </v>
   <v>       0.41666750       0.58333500       0.50000000 </v>
   <v>       0.25000000       0.75000000       0.66666667 </v>
   <v>       0.41666750       0.83333500       0.50000000 </v>
   <v>       0.00000000       0.00000000       0.66666667 </v>
   <v>       0.16666750       0.08333500       0.50000000 </v>
   <v>       0.00000000       0.25000000       0.66666667 </v>
   <v>       0.16666750       0.33333500       0.50000000 </v>
   <v>       0.00000000       0.50000000       0.66666667 </v>
   <v>       0.16666750       0.58333500       0.50000000 </v>
   <v>       0.00000000       0.75000000       0.66666667 </v>
   <v>       0.16666750       0.83333500       0.50000000 </v>
   <v>       0.75000000       0.00000000       0.66666667 </v>
   <v>       0.91666750       0.08333500       0.50000000 </v>
   <v>       0.75000000       0.25000000       0.66666667 </v>
   <v>       0.91666750       0.33333500       0.50000000 </v>
   <v>       0.75000000       0.50000000       0.66666667 </v>
   <v>       0.91666750       0.58333500       0.50000000 </v>
   <v>       0.75000000       0.75000000       0.66666667 </v>
   <v>       0.91666750       0.83333500       0.50000000 </v>
   <v>       0.50000000       0.00000000       0.00000000 </v>
   <v>       0.66666750       0.08333500       0.83333333 </v>
   <v>       0.50000000       0.25000000       0.00000000 </v>
   <v>       0.66666750       0.33333500       0.83333333 </v>
   <v>       0.50000000       0.50000000       0.00000000 </v>
   <v>       0.66666750       0.58333500       0.83333333 </v>
   <v>       0.50000000       0.75000000       0.00000000 </v>
   <v>       0.66666750       0.83333500       0.83333333 </v>
   <v>       0.25000000       0.00000000       0.00000000 </v>
   <v>       0.41666750       0.08333500       0.83333333 </v>
   <v>       0.25000000       0.25000000       0.00000000 </v>
   <v>       0.41666750       0.33333500       0.83333333 </v>
   <v>       0.25000000       0.50000000       0.00000000 </v>
   <v>       0.41666750       0.58333500       0.83333333 </v>
   <v>       0.25000000       0.75000000       0.00000000 </v>
   <v>       0.41666750       0.83333500       0.83333333 </v>
   <v>       0.00000000       0.00000000       0.00000000 </v>
   <v>       0.16666750       0.08333500       0.83333333 </v>
   <v>       0.00000000       0.25000000       0.00000000 </v>
   <v>       0.16666750       0.33333500       0.83333333 </v>
   <v>       0.00000000       0.50000000       0.00000000 </v>
   <v>       0.16666750       0.58333500       0.83333333 </v>
   <v>       0.00000000       0.75000000       0.00000000 </v>
   <v>       0.16666750       0.83333500       0.83333333 </v>
   <v>       0.75000000       0.00000000       0.00000000 </v>
   <v>       0.91666750       0.08333500       0.83333333 </v>
   <v>       0.75000000       0.25000000       0.00000000 </v>
   <v>       0.91666750       0.33333500       0.83333333 </v>
   <v>       0.75000000       0.50000000       0.00000000 </v>
   <v>       0.91666750       0.58333500       0.83333333 </v>
   <v>       0.75000000       0.75000000       0.00000000 </v>
   <v>       0.91666750       0.83333500       0.83333333 </v>
  </varray>
 </structure>
 <calculation>
  <scstep>
   <time name="diag">   10.98   11.00</time>
   <time name="diis">   30.28   30.75</time>
   <time name="orth">    2.44    2.60</time>
   <time name="total">   43.81   44.45</time>
   <energy>
    <i name="alphaZ">   5907.02065549 </i>
    <i name="ewald"> -53315.62938046 </i>
    <i name="hartreedc">  -3739.02289171 </i>
    <i name="XCdc">  -3088.47954732 </i>
    <i name="pawpsdc">  36640.55581697 </i>
    <i name="pawaedc"> -31912.21006987 </i>
    <i name="eentropy">     -0.01288174 </i>
    <i name="bandstr">  10475.36047281 </i>
    <i name="atom">  43675.75476406 </i>
    <i name="e_fr_energy">   4643.33693823 </i>
    <i name="e_wo_entrp">   4643.34981997 </i>
    <i name="e_0_energy">   4643.34123215 </i>
   </energy>
  </scstep>
  <scstep>
   <time name="diag">   11.00   11.02</time>
   <time name="diis">   30.24   30.76</time>
   <time name="orth">    2.66    2.90</time>
   <time name="total">   43.92   44.68</time>
   <energy>
    <i name="e_fr_energy">    339.54105756 </i>
    <i name="e_wo_entrp">    339.54427845 </i>
    <i name="e_0_energy">    339.54213119 </i>
   </energy>
  </scstep>
  <scstep>
   <time name="diag">   10.98   11.00</time>
   <time name="diis">   30.25   30.68</time>
   <time name="orth">    2.71    2.79</time>
   <time name="total">   43.96   44.48</time>
   <energy>
    <i name="e_fr_energy">   -425.98361707 </i>
    <i name="e_wo_entrp">   -425.97040455 </i>
    <i name="e_0_energy">   -425.97921289 </i>
   </energy>
  </scstep>
  <scstep>
   <time name="diag">   11.01   11.03</time>
   <time name="diis">   30.25   30.75</time>
   <time name="orth">    2.64    2.89</time>
   <time name="total">   43.91   44.68</time>
   <energy>
    <i name="e_fr_energy">   -696.93527261 </i>
    <i name="e_wo_entrp">   -696.93439961 </i>
    <i name="e_0_energy">   -696.93498161 </i>
   </energy>
  </scstep>
  <scstep>
   <time name="diag">   10.98   10.99</time>
   <time name="diis">   30.25   30.76</time>
   <time name="orth">    2.59    2.78</time>
   <time name="total">   43.83   44.53</time>
   <energy>
    <i name="e_fr_energy">   -797.54966186 </i>
    <i name="e_wo_entrp">   -797.54909104 </i>
    <i name="e_0_energy">   -797.54947159 </i>
   </energy>
  </scstep>
  <scstep>
   <time name="diag">   11.00   11.02</time>
   <time name="diis">   30.32   30.70</time>
   <time name="orth">    2.75    2.89</time>
   <time name="total">   44.08   44.61</time>
   <energy>
    <i name="e_fr_energy">   -852.04198722 </i>
    <i name="e_wo_entrp">   -852.04382817 </i>
    <i name="e_0_energy">   -852.04260087 </i>
   </energy>
  </scstep>
  <scstep>
   <time name="diag">   10.98   10.99</time>
   <time name="diis">   30.30   30.77</time>
   <time name="orth">    2.31    2.31</time>
   <time name="total">   43.59   44.08</time>
   <energy>
    <i name="e_fr_energy">   -883.50810261 </i>
    <i name="e_wo_entrp">   -883.50928896 </i>
    <i name="e_0_energy">   -883.50849806 </i>
   </energy>
  </scstep>
  <scstep>
   <time name="diag">   11.11   11.49</time>
   <time name="diis">   30.24   30.69</time>
   <time name="orth">    2.31    2.31</time>
   <time name="total">   43.67   44.50</time>
   <energy>
    <i name="e_fr_energy">   -903.85604102 </i>
    <i name="e_wo_entrp">   -903.86490983 </i>
    <i name="e_0_energy">   -903.85899729 </i>
   </energy>
  </scstep>
  <scstep>
   <time name="diag">   11.28   11.56</time>
   <time name="diis">   86.19   87.66</time>
   <time name="orth">    2.31    2.31</time>
   <time name="total">   99.78  101.54</time>
   <energy>
    <i name="e_fr_energy">   -941.11125971 </i>
    <i name="e_wo_entrp">   -941.13506096 </i>
    <i name="e_0_energy">   -941.11919346 </i>
   </energy>
  </scstep>
  <scstep>
   <time name="diag">   11.31   11.49</time>
   <time name="diis">   88.56   89.88</time>
   <time name="orth">    2.31    2.31</time>
   <time name="total">  102.19  103.68</time>
   <energy>
    <i name="e_fr_energy">   -943.53658555 </i>
    <i name="e_wo_entrp">   -943.58649148 </i>
    <i name="e_0_energy">   -943.55322086 </i>
   </energy>
  </scstep>
  <scstep>
   <time name="diag">   11.36   11.55</time>
   <time name="diis">   84.61   86.19</time>
   <time name="orth">    2.31    2.31</time>
   <time name="total">   98.28  100.06</time>
   <energy>
    <i name="e_fr_energy">   -944.26111488 </i>
    <i name="e_wo_entrp">   -944.30941112 </i>
    <i name="e_0_energy">   -944.27721363 </i>
   </energy>
  </scstep>
  <scstep>
   <time name="diag">   11.31   11.48</time>
   <time name="diis">   87.70   88.70</time>
   <time name="orth">    2.61    2.78</time>
   <time name="total">  104.50  105.84</time>
   <energy>
    <i name="e_fr_energy">   -944.36671832 </i>
    <i name="e_wo_entrp">   -944.41661961 </i>
    <i name="e_0_energy">   -944.38335208 </i>
   </energy>
  </scstep>
  <scstep>
   <time name="diag">   11.35   11.53</time>
   <time name="diis">   59.28   60.16</time>
   <time name="orth">    2.31    2.31</time>
   <time name="total">   75.93   77.01</time>
   <energy>
    <i name="e_fr_energy">   -890.05965957 </i>
    <i name="e_wo_entrp">   -890.06130988 </i>
    <i name="e_0_energy">   -890.06020967 </i>
   </energy>
  </scstep>
  <scstep>
   <time name="diag">   11.47   11.49</time>
   <time name="diis">   64.42   65.43</time>
   <time name="orth">    2.31    2.31</time>
   <time name="total">   81.16   82.20</time>
   <energy>
    <i name="e_fr_energy">   -883.92550906 </i>
    <i name="e_wo_entrp">   -883.89962967 </i>
    <i name="e_0_energy">   -883.91688260 </i>
   </energy>
  </scstep>
  <scstep>
   <time name="diag">   11.34   11.58</time>
   <time name="diis">   75.18   76.32</time>
   <time name="orth">    2.31    2.31</time>
   <time name="total">   91.75   93.38</time>
   <energy>
    <i name="e_fr_energy">   -883.92282752 </i>
    <i name="e_wo_entrp">   -883.89897618 </i>
    <i name="e_0_energy">   -883.91487708 </i>
   </energy>
  </scstep>
  <scstep>
   <time name="diag">   11.02   11.04</time>
   <time name="diis">   65.09   66.30</time>
   <time name="orth">    2.31    2.31</time>
   <time name="total">   81.37   82.61</time>
   <energy>
    <i name="e_fr_energy">   -883.54758565 </i>
    <i name="e_wo_entrp">   -883.51882945 </i>
    <i name="e_0_energy">   -883.53800025 </i>
   </energy>
  </scstep>
  <scstep>
   <time name="diag">   11.43   11.57</time>
   <time name="diis">   72.02   73.07</time>
   <time name="orth">    2.31    2.31</time>
   <time name="total">   88.75   89.95</time>
   <energy>
    <i name="e_fr_energy">   -883.50664494 </i>
    <i name="e_wo_entrp">   -883.47739580 </i>
    <i name="e_0_energy">   -883.49689523 </i>
   </energy>
  </scstep>
  <scstep>
   <time name="diag">   11.42   11.55</time>
   <time name="diis">   79.09   80.11</time>
   <time name="orth">    2.31    2.31</time>
   <time name="total">   95.67   97.08</time>
   <energy>
    <i name="e_fr_energy">   -883.48646858 </i>
    <i name="e_wo_entrp">   -883.45736541 </i>
    <i name="e_0_energy">   -883.47676752 </i>
   </energy>
  </scstep>
  <scstep>
   <time name="diag">   10.97   10.98</time>
   <time name="diis">   69.06   70.09</time>
   <time name="orth">    2.30    2.31</time>
   <time name="total">   85.35   86.40</time>
   <energy>
    <i name="e_fr_energy">   -883.47820086 </i>
    <i name="e_wo_entrp">   -883.44912236 </i>
    <i name="e_0_energy">   -883.46850803 </i>
   </energy>
  </scstep>
  <scstep>
   <time name="diag">   11.39   11.62</time>
   <time name="diis">   81.26   82.66</time>
   <time name="orth">    2.31    2.31</time>
   <time name="total">   97.92   99.56</time>
   <energy>
    <i name="e_fr_energy">   -883.47859704 </i>
    <i name="e_wo_entrp">   -883.44950219 </i>
    <i name="e_0_energy">   -883.46889876 </i>
   </energy>
  </scstep>
  <scstep>
   <time name="diag">   11.17   11.45</time>
   <time name="diis">   74.65   75.74</time>
   <time name="orth">    2.31    2.31</time>
   <time name="total">   91.13   92.50</time>
   <energy>
    <i name="e_fr_energy">   -883.47818778 </i>
    <i name="e_wo_entrp">   -883.44909268 </i>
    <i name="e_0_energy">   -883.46848941 </i>
   </energy>
  </scstep>
  <scstep>
   <time name="diag">   11.13   11.44</time>
   <time name="diis">   80.47   81.75</time>
   <time name="orth">    2.62    2.78</time>
   <time name="total">   97.15   98.91</time>
   <energy>
    <i name="e_fr_energy">   -883.47808778 </i>
    <i name="e_wo_entrp">   -883.44899082 </i>
    <i name="e_0_energy">   -883.46838879 </i>
   </energy>
  </scstep>
  <scstep>
   <time name="diag">   11.29   11.56</time>
   <time name="diis">   69.46   70.15</time>
   <time name="orth">    2.31    2.31</time>
   <time name="total">   85.96   87.18</time>
   <energy>
    <i name="e_fr_energy">   -883.47797043 </i>
    <i name="e_wo_entrp">   -883.44887047 </i>
    <i name="e_0_energy">   -883.46827044 </i>
   </energy>
  </scstep>
  <scstep>
   <time name="diag">   11.00   11.02</time>
   <time name="diis">   73.43   74.87</time>
   <time name="orth">    2.71    2.79</time>
   <time name="total">   87.23   88.76</time>
   <energy>
    <i name="alphaZ">   5907.02065549 </i>
    <i name="ewald"> -53315.62938046 </i>
    <i name="hartreedc">  -2868.87281733 </i>
    <i name="XCdc">  -3092.33981159 </i>
    <i name="pawpsdc">  42151.31250402 </i>
    <i name="pawaedc"> -37648.28844607 </i>
    <i name="eentropy">     -0.02910008 </i>
    <i name="bandstr">   4307.59371669 </i>
    <i name="atom">  43675.75476406 </i>
    <i name="e_fr_energy">   -883.47791526 </i>
    <i name="e_wo_entrp">   -883.44881518 </i>
    <i name="e_0_energy">   -883.46821523 </i>
   </energy>
  </scstep>
  <structure>
   <crystal>
    <varray name="basis" >
     <v>      -5.43748000      -9.41800000       0.00000000 </v>
     <v>      10.87496000       0.00000000       0.00000000 </v>
     <v>       0.00000000       0.00000000      12.89166000 </v>
    </varray>
    <i name="volume">   1320.36862940 </i>
    <varray name="rec_basis" >
     <v>       0.00000000      -0.10617966       0.00000000 </v>
     <v>       0.09195436      -0.05308983       0.00000000 </v>
     <v>       0.00000000       0.00000000       0.07756953 </v>
    </varray>
   </crystal>
   <varray name="positions" >
    <v>       0.50000000       0.00000000       0.33333333 </v>
    <v>       0.66666750       0.08333500       0.16666667 </v>
    <v>       0.50000000       0.25000000       0.33333333 </v>
    <v>       0.66666750       0.33333500       0.16666667 </v>
    <v>       0.50000000       0.50000000       0.33333333 </v>
    <v>       0.66666750       0.58333500       0.16666667 </v>
    <v>       0.50000000       0.75000000       0.33333333 </v>
    <v>       0.66666750       0.83333500       0.16666667 </v>
    <v>       0.25000000       0.00000000       0.33333333 </v>
    <v>       0.41666750       0.08333500       0.16666667 </v>
    <v>       0.25000000       0.25000000       0.33333333 </v>
    <v>       0.41666750       0.33333500       0.16666667 </v>
    <v>       0.25000000       0.50000000       0.33333333 </v>
    <v>       0.41666750       0.58333500       0.16666667 </v>
    <v>       0.25000000       0.75000000       0.33333333 </v>
    <v>       0.41666750       0.83333500       0.16666667 </v>
    <v>       0.00000000       0.00000000       0.33333333 </v>
    <v>       0.16666750       0.08333500       0.16666667 </v>
    <v>       0.00000000       0.25000000       0.33333333 </v>
    <v>       0.16666750       0.33333500       0.16666667 </v>
    <v>       0.00000000       0.50000000       0.33333333 </v>
    <v>       0.16666750       0.58333500       0.16666667 </v>
    <v>       0.00000000       0.75000000       0.33333333 </v>
    <v>       0.16666750       0.83333500       0.16666667 </v>
    <v>       0.75300250       0.00150000       0.33114000 </v>
    <v>       0.91666750       0.08333500       0.16666667 </v>
    <v>       0.75000000       0.25000000       0.33333333 </v>
    <v>       0.91666750       0.33333500       0.16666667 </v>
    <v>       0.75000000       0.50000000       0.33333333 </v>
    <v>       0.91666750       0.58333500       0.16666667 </v>
    <v>       0.75000000       0.75000000       0.33333333 </v>
    <v>       0.91666750       0.83333500       0.16666667 </v>
    <v>       0.50000000       0.00000000       0.66666667 </v>
    <v>       0.66666750       0.08333500       0.50000000 </v>
    <v>       0.50000000       0.25000000       0.66666667 </v>
    <v>       0.66666750       0.33333500       0.50000000 </v>
    <v>       0.50000000       0.50000000       0.66666667 </v>
    <v>       0.66666750       0.58333500       0.50000000 </v>
    <v>       0.50000000       0.75000000       0.66666667 </v>
    <v>       0.66666750       0.83333500       0.50000000 </v>
    <v>       0.25000000       0.00000000       0.66666667 </v>
    <v>       0.41666750       0.08333500       0.50000000 </v>
    <v>       0.25000000       0.25000000       0.66666667 </v>
    <v>       0.41666750       0.33333500       0.50000000 </v>
    <v>       0.25000000       0.50000000       0.66666667 </v>
    <v>       0.41666750       0.58333500       0.50000000 </v>
    <v>       0.25000000       0.75000000       0.66666667 </v>
    <v>       0.41666750       0.83333500       0.50000000 </v>
    <v>       0.00000000       0.00000000       0.66666667 </v>
    <v>       0.16666750       0.08333500       0.50000000 </v>
    <v>       0.00000000       0.25000000       0.66666667 </v>
    <v>       0.16666750       0.33333500       0.50000000 </v>
    <v>       0.00000000       0.50000000       0.66666667 </v>
    <v>       0.16666750       0.58333500       0.50000000 </v>
    <v>       0.00000000       0.75000000       0.66666667 </v>
    <v>       0.16666750       0.83333500       0.50000000 </v>
    <v>       0.75000000       0.00000000       0.66666667 </v>
    <v>       0.91666750       0.08333500       0.50000000 </v>
    <v>       0.75000000       0.25000000       0.66666667 </v>
    <v>       0.91666750       0.33333500       0.50000000 </v>
    <v>       0.75000000       0.50000000       0.66666667 </v>
    <v>       0.91666750       0.58333500       0.50000000 </v>
    <v>       0.75000000       0.75000000       0.66666667 </v>
    <v>       0.91666750       0.83333500       0.50000000 </v>
    <v>       0.50000000       0.00000000       0.00000000 </v>
    <v>       0.66666750       0.08333500       0.83333333 </v>
    <v>       0.50000000       0.25000000       0.00000000 </v>
    <v>       0.66666750       0.33333500       0.83333333 </v>
    <v>       0.50000000       0.50000000       0.00000000 </v>
    <v>       0.66666750       0.58333500       0.83333333 </v>
    <v>       0.50000000       0.75000000       0.00000000 </v>
    <v>       0.66666750       0.83333500       0.83333333 </v>
    <v>       0.25000000       0.00000000       0.00000000 </v>
    <v>       0.41666750       0.08333500       0.83333333 </v>
    <v>       0.25000000       0.25000000       0.00000000 </v>
    <v>       0.41666750       0.33333500       0.83333333 </v>
    <v>       0.25000000       0.50000000       0.00000000 </v>
    <v>       0.41666750       0.58333500       0.83333333 </v>
    <v>       0.25000000       0.75000000       0.00000000 </v>
    <v>       0.41666750       0.83333500       0.83333333 </v>
    <v>       0.00000000       0.00000000       0.00000000 </v>
    <v>       0.16666750       0.08333500       0.83333333 </v>
    <v>       0.00000000       0.25000000       0.00000000 </v>
    <v>       0.16666750       0.33333500       0.83333333 </v>
    <v>       0.00000000       0.50000000       0.00000000 </v>
    <v>       0.16666750       0.58333500       0.83333333 </v>
    <v>       0.00000000       0.75000000       0.00000000 </v>
    <v>       0.16666750       0.83333500       0.83333333 </v>
    <v>       0.75000000       0.00000000       0.00000000 </v>
    <v>       0.91666750       0.08333500       0.83333333 </v>
    <v>       0.75000000       0.25000000       0.00000000 </v>
    <v>       0.91666750       0.33333500       0.83333333 </v>
    <v>       0.75000000       0.50000000       0.00000000 </v>
    <v>       0.91666750       0.58333500       0.83333333 </v>
    <v>       0.75000000       0.75000000       0.00000000 </v>
    <v>       0.91666750       0.83333500       0.83333333 </v>
   </varray>
  </structure>
  <varray name="forces" >
   <v>      -0.02597369      -0.02680643      -0.00168990 </v>
   <v>       0.02751579       0.00674478      -0.01719598 </v>
   <v>      -0.00090343      -0.00430167       0.00009817 </v>
   <v>       0.00000257       0.00196687       0.00094823 </v>
   <v>       0.00090343      -0.00430167       0.00009817 </v>
   <v>      -0.00000257       0.00196687       0.00094823 </v>
   <v>       0.02597369      -0.02680643      -0.00168990 </v>
   <v>      -0.02751579       0.00674478      -0.01719598 </v>
   <v>      -0.02011087      -0.03582887      -0.00380025 </v>
   <v>      -0.00076189      -0.00370305      -0.00066726 </v>
   <v>      -0.00000000      -0.00632304      -0.00052419 </v>
   <v>      -0.00000000       0.00063756      -0.00148507 </v>
   <v>       0.02011087      -0.03582887      -0.00380025 </v>
   <v>       0.00076189      -0.00370305      -0.00066726 </v>
   <v>      -0.00000000      -0.00546357      -0.00058086 </v>
   <v>      -0.00000000       0.00433836       0.00607233 </v>
   <v>      -0.00334856      -0.03220310      -0.00100055 </v>
   <v>      -0.00091221      -0.00585231      -0.00289716 </v>
   <v>       0.00334856      -0.03220310      -0.00100055 </v>
   <v>       0.00091221      -0.00585231      -0.00289716 </v>
   <v>       0.00076545      -0.00456653       0.00009446 </v>
   <v>       0.00140902      -0.00281889       0.00135207 </v>
   <v>      -0.00076545      -0.00456653       0.00009446 </v>
   <v>      -0.00140902      -0.00281889       0.00135207 </v>
   <v>      -0.00000000       0.41875696       0.38490301 </v>
   <v>      -0.00000000      -0.10319428      -0.10023516 </v>
   <v>       0.01054606      -0.00310478      -0.00214672 </v>
   <v>       0.01659645      -0.00206363      -0.01123191 </v>
   <v>      -0.00000000      -0.00100506      -0.00374952 </v>
   <v>      -0.00000000       0.00219077       0.00350694 </v>
   <v>      -0.01054606      -0.00310478      -0.00214672 </v>
   <v>      -0.01659645      -0.00206363      -0.01123191 </v>
   <v>      -0.00055792      -0.00213051       0.00204076 </v>
   <v>      -0.05385565      -0.03930338      -0.05557327 </v>
   <v>       0.00063925       0.00062683      -0.00214766 </v>
   <v>      -0.00082469      -0.00155647      -0.00287749 </v>
   <v>      -0.00063925       0.00062683      -0.00214766 </v>
   <v>       0.00082469      -0.00155647      -0.00287749 </v>
   <v>       0.00055792      -0.00213051       0.00204076 </v>
   <v>       0.05385565      -0.03930338      -0.05557327 </v>
   <v>      -0.00031212      -0.00004597      -0.00012751 </v>
   <v>      -0.00392956      -0.00255691      -0.00066881 </v>
   <v>      -0.00000000      -0.00148419       0.00120384 </v>
   <v>      -0.00000000       0.00049524      -0.00228369 </v>
   <v>       0.00031212      -0.00004597      -0.00012751 </v>
   <v>       0.00392956      -0.00255691      -0.00066881 </v>
   <v>      -0.00000000      -0.00215601       0.00048985 </v>
   <v>      -0.00000000      -0.01745617      -0.01625503 </v>
   <v>       0.00101018       0.00098078       0.00535563 </v>
   <v>      -0.00324224      -0.00213255      -0.00016932 </v>
   <v>      -0.00101018       0.00098078       0.00535563 </v>
   <v>       0.00324224      -0.00213255      -0.00016932 </v>
   <v>      -0.00129439       0.00093879      -0.00171782 </v>
   <v>       0.00298709      -0.00185474       0.00188803 </v>
   <v>       0.00129439       0.00093879      -0.00171782 </v>
   <v>      -0.00298709      -0.00185474       0.00188803 </v>
   <v>      -0.00000000      -0.00000280      -0.02646974 </v>
   <v>      -0.00000000       0.00477100       0.00894842 </v>
   <v>      -0.00157849       0.00141580       0.00317169 </v>
   <v>      -0.00333192       0.00911802      -0.00003296 </v>
   <v>      -0.00000000      -0.00029956       0.00047209 </v>
   <v>      -0.00000000       0.00041408       0.00034283 </v>
   <v>       0.00157849       0.00141580       0.00317169 </v>
   <v>       0.00333192       0.00911802      -0.00003296 </v>
   <v>      -0.00061380       0.00177058       0.00392955 </v>
   <v>      -0.00007490      -0.00036008       0.00060857 </v>
   <v>      -0.00133580      -0.00060656      -0.00074204 </v>
   <v>      -0.00068323       0.00007013      -0.00070974 </v>
   <v>       0.00133580      -0.00060656      -0.00074204 </v>
   <v>       0.00068323       0.00007013      -0.00070974 </v>
   <v>       0.00061380       0.00177058       0.00392955 </v>
   <v>       0.00007490      -0.00036008       0.00060857 </v>
   <v>       0.00041900       0.00005119      -0.00086525 </v>
   <v>      -0.00009867       0.00130723      -0.00118736 </v>
   <v>      -0.00000000       0.00094371      -0.00306614 </v>
   <v>      -0.00000000      -0.00095255       0.00130000 </v>
   <v>      -0.00041900       0.00005119      -0.00086525 </v>
   <v>       0.00009867       0.00130723      -0.00118736 </v>
   <v>      -0.00000000       0.00136020      -0.00256582 </v>
   <v>      -0.00000000      -0.00069680      -0.01567027 </v>
   <v>      -0.00231129      -0.00124270       0.00109902 </v>
   <v>       0.00034322       0.00017272      -0.00040852 </v>
   <v>       0.00231129      -0.00124270       0.00109902 </v>
   <v>      -0.00034322       0.00017272      -0.00040852 </v>
   <v>       0.00171710      -0.00083088      -0.00106297 </v>
   <v>       0.00039665      -0.00043514      -0.00126266 </v>
   <v>      -0.00171710      -0.00083088      -0.00106297 </v>
   <v>      -0.00039665      -0.00043514      -0.00126266 </v>
   <v>      -0.00000000       0.00012913      -0.02735752 </v>
   <v>      -0.00000000      -0.00016330      -0.00045215 </v>
   <v>       0.00138626      -0.00011765       0.00430879 </v>
   <v>       0.00087737       0.00151147      -0.01633890 </v>
   <v>      -0.00000000       0.00044318      -0.00138534 </v>
   <v>      -0.00000000       0.00021233      -0.00190472 </v>
   <v>      -0.00138626      -0.00011765       0.00430879 </v>
   <v>      -0.00087737       0.00151147      -0.01633890 </v>
  </varray>
  <varray name="stress" >
   <v>      -8.68377245       0.00000000       0.00000000 </v>
   <v>       0.00000000      -8.49048943       0.03183888 </v>
   <v>       0.00000000       0.03183826     -22.84079824 </v>
  </varray>
  <energy>
   <i name="e_fr_energy">   -883.47791526 </i>
   <i name="e_wo_entrp">   -883.46821523 </i>
   <i name="e_0_energy">     -0.02910008 </i>
  </energy>
  <time name="totalsc"> 1960.02 1989.97</time>
  <eigenvalues>
   <array>
    <dimension dim="1">band</dimension>
    <dimension dim="2">kpoint</dimension>
    <dimension dim="3">spin</dimension>
    <field>eigene</field>
    <field>occ</field>
    <set>
     <set comment="spin 1">
      <set comment="kpoint 1">
       <r>    0.9016    1.0000 </r>
       <r>    1.9961    1.0000 </r>
       <r>    1.9982    1.0000 </r>
       <r>    2.5644    1.0000 </r>
       <r>    2.5649    1.0000 </r>
       <r>    2.5652    1.0000 </r>
       <r>    2.5656    1.0000 </r>
       <r>    2.5657    1.0000 </r>
       <r>    2.5662    1.0000 </r>
       <r>    2.6733    1.0000 </r>
       <r>    2.6971    1.0000 </r>
       <r>    2.6991    1.0000 </r>
       <r>    2.6992    1.0000 </r>
       <r>    2.6997    1.0000 </r>
       <r>    2.6999    1.0000 </r>
       <r>    2.7017    1.0000 </r>
       <r>    2.7283    1.0000 </r>
       <r>    2.7287    1.0000 </r>
       <r>    2.7288    1.0000 </r>
       <r>    2.9569    1.0000 </r>
       <r>    2.9596    1.0000 </r>
       <r>    3.0957    1.0000 </r>
       <r>    3.0969    1.0000 </r>
       <r>    3.0979    1.0000 </r>
       <r>    3.0981    1.0000 </r>
       <r>    3.0992    1.0000 </r>
       <r>    3.0992    1.0000 </r>
       <r>    3.0994    1.0000 </r>
       <r>    3.0994    1.0000 </r>
       <r>    3.0997    1.0000 </r>
       <r>    3.1000    1.0000 </r>
       <r>    3.1007    1.0000 </r>
       <r>    3.1019    1.0000 </r>
       <r>    3.1038    1.0000 </r>
       <r>    3.1039    1.0000 </r>
       <r>    3.1048    1.0000 </r>
       <r>    3.1064    1.0000 </r>
       <r>    3.1069    1.0000 </r>
       <r>    3.1076    1.0000 </r>
       <r>    3.3600    1.0000 </r>
       <r>    3.3617    1.0000 </r>
       <r>    3.3633    1.0000 </r>
       <r>    3.4868    1.0000 </r>
       <r>    3.4875    1.0000 </r>
       <r>    3.4885    1.0000 </r>
       <r>    3.5182    1.0000 </r>
       <r>    3.5213    1.0000 </r>
       <r>    3.5218    1.0000 </r>
       <r>    3.5221    1.0000 </r>
       <r>    3.5223    1.0000 </r>
       <r>    3.5246    1.0000 </r>
       <r>    3.5631    1.0000 </r>
       <r>    3.5690    1.0000 </r>
       <r>    3.5691    1.0000 </r>
       <r>    3.5693    1.0000 </r>
       <r>    3.5695    1.0000 </r>
       <r>    3.5730    1.0000 </r>
       <r>    3.5939    1.0000 </r>
       <r>    3.5953    1.0000 </r>
       <r>    3.5962    1.0000 </r>
       <r>    3.5976    1.0000 </r>
       <r>    3.5984    1.0000 </r>
       <r>    3.5987    1.0000 </r>
       <r>    3.5988    1.0000 </r>
       <r>    3.5992    1.0000 </r>
       <r>    3.6002    1.0000 </r>
       <r>    3.6010    1.0000 </r>
       <r>    3.6013    1.0000 </r>
       <r>    3.6062    1.0000 </r>
       <r>    3.8867    1.0000 </r>
       <r>    3.8915    1.0000 </r>
       <r>    3.8921    1.0000 </r>
       <r>    3.8931    1.0000 </r>
       <r>    3.8935    1.0000 </r>
       <r>    3.8937    1.0000 </r>
       <r>    3.8939    1.0000 </r>
       <r>    3.8940    1.0000 </r>
       <r>    3.8951    1.0000 </r>
       <r>    3.8952    1.0000 </r>
       <r>    3.8967    1.0000 </r>
       <r>    3.8994    1.0000 </r>
       <r>    4.0320    1.0000 </r>
       <r>    4.0339    1.0000 </r>
       <r>    4.0348    1.0000 </r>
       <r>    4.0367    1.0000 </r>
       <r>    4.0369    1.0000 </r>
       <r>    4.0373    1.0000 </r>
       <r>    4.0376    1.0000 </r>
       <r>    4.0376    1.0000 </r>
       <r>    4.0382    1.0000 </r>
       <r>    4.0394    1.0000 </r>
       <r>    4.0404    1.0000 </r>
       <r>    4.0415    1.0000 </r>
       <r>    4.0822    1.0000 </r>
       <r>    4.0845    1.0000 </r>
       <r>    4.0848    1.0000 </r>
       <r>    4.0849    1.0000 </r>
       <r>    4.0855    1.0000 </r>
       <r>    4.0873    1.0000 </r>
       <r>    4.2611    1.0000 </r>
       <r>    4.2636    1.0000 </r>
       <r>    4.2639    1.0000 </r>
       <r>    4.2652    1.0000 </r>
       <r>    4.2664    1.0000 </r>
       <r>    4.2682    1.0000 </r>
       <r>    4.3190    1.0000 </r>
       <r>    4.3209    1.0000 </r>
       <r>    4.3215    1.0000 </r>
       <r>    4.3218    1.0000 </r>
       <r>    4.3229    1.0000 </r>
       <r>    4.3231    1.0000 </r>
       <r>    4.5153    1.0000 </r>
       <r>    4.5210    1.0000 </r>
       <r>    4.5214    1.0000 </r>
       <r>    4.5221    1.0000 </r>
       <r>    4.5222    1.0000 </r>
       <r>    4.5228    1.0000 </r>
       <r>    4.5231    1.0000 </r>
       <r>    4.5231    1.0000 </r>
       <r>    4.5232    1.0000 </r>
       <r>    4.5242    1.0000 </r>
       <r>    4.5247    1.0000 </r>
       <r>    4.5297    1.0000 </r>
       <r>    4.6669    1.0000 </r>
       <r>    4.6698    1.0000 </r>
       <r>    4.6726    1.0000 </r>
       <r>    4.6739    1.0000 </r>
       <r>    4.6740    1.0000 </r>
       <r>    4.6740    1.0000 </r>
       <r>    4.6742    1.0000 </r>
       <r>    4.6744    1.0000 </r>
       <r>    4.6744    1.0000 </r>
       <r>    4.6755    1.0000 </r>
       <r>    4.6774    1.0000 </r>
       <r>    4.6798    1.0000 </r>
       <r>    4.6878    1.0000 </r>
       <r>    4.6884    1.0000 </r>
       <r>    4.6892    1.0000 </r>
       <r>    4.6906    1.0000 </r>
       <r>    4.6911    1.0000 </r>
       <r>    4.6917    1.0000 </r>
       <r>    4.9763    1.0000 </r>
       <r>    4.9765    1.0000 </r>
       <r>    4.9777    1.0000 </r>
       <r>    4.9780    1.0000 </r>
       <r>    4.9787    1.0000 </r>
       <r>    4.9796    1.0000 </r>
       <r>    5.0318    1.0000 </r>
       <r>    5.0331    1.0000 </r>
       <r>    5.0347    1.0000 </r>
       <r>    5.0352    1.0000 </r>
       <r>    5.0363    1.0000 </r>
       <r>    5.0391    1.0000 </r>
       <r>    5.2420    1.0000 </r>
       <r>    5.2461    1.0000 </r>
       <r>    5.2461    1.0000 </r>
       <r>    5.2472    1.0000 </r>
       <r>    5.2474    1.0000 </r>
       <r>    5.2496    1.0000 </r>
       <r>    5.2530    1.0000 </r>
       <r>    5.2538    1.0000 </r>
       <r>    5.2540    1.0000 </r>
       <r>    5.2567    1.0000 </r>
       <r>    5.2569    1.0000 </r>
       <r>    5.2577    1.0000 </r>
       <r>    5.2579    1.0000 </r>
       <r>    5.2592    1.0000 </r>
       <r>    5.2606    1.0000 </r>
       <r>    5.2612    1.0000 </r>
       <r>    5.2617    1.0000 </r>
       <r>    5.2646    1.0000 </r>
       <r>    5.3710    1.0000 </r>
       <r>    5.3755    1.0000 </r>
       <r>    5.3763    1.0000 </r>
       <r>    5.3766    1.0000 </r>
       <r>    5.3772    1.0000 </r>
       <r>    5.3777    1.0000 </r>
       <r>    5.3778    1.0000 </r>
       <r>    5.3780    1.0000 </r>
       <r>    5.3783    1.0000 </r>
       <r>    5.3798    1.0000 </r>
       <r>    5.3802    1.0000 </r>
       <r>    5.3849    1.0000 </r>
       <r>    5.6671    1.0000 </r>
       <r>    5.6722    1.0000 </r>
       <r>    5.6730    1.0000 </r>
       <r>    5.6731    1.0000 </r>
       <r>    5.6740    1.0000 </r>
       <r>    5.6767    1.0000 </r>
       <r>    5.7994    1.0000 </r>
       <r>    5.8011    1.0000 </r>
       <r>    5.8018    1.0000 </r>
       <r>    5.8082    1.0000 </r>
       <r>    5.8102    1.0000 </r>
       <r>    5.8112    1.0000 </r>
       <r>    5.8125    1.0000 </r>
       <r>    5.8131    1.0000 </r>
       <r>    5.8134    1.0000 </r>
       <r>    5.8136    1.0000 </r>
       <r>    5.8139    1.0000 </r>
       <r>    5.8146    1.0000 </r>
       <r>    5.8163    1.0000 </r>
       <r>    5.8165    1.0000 </r>
       <r>    5.8187    1.0000 </r>
       <r>    5.9360    1.0000 </r>
       <r>    5.9362    1.0000 </r>
       <r>    5.9369    1.0000 </r>
       <r>    5.9370    1.0000 </r>
       <r>    5.9513    1.0000 </r>
       <r>    5.9548    1.0000 </r>
       <r>    5.9553    1.0000 </r>
       <r>    5.9567    1.0000 </r>
       <r>    5.9572    1.0000 </r>
       <r>    5.9575    1.0000 </r>
       <r>    5.9576    1.0000 </r>
       <r>    5.9580    1.0000 </r>
       <r>    5.9584    1.0000 </r>
       <r>    5.9600    1.0000 </r>
       <r>    5.9601    1.0000 </r>
       <r>    5.9634    1.0000 </r>
       <r>    5.9683    1.0000 </r>
       <r>    5.9723    1.0000 </r>
       <r>    6.2139    1.0000 </r>
       <r>    6.2143    1.0000 </r>
       <r>    6.3475    1.0000 </r>
       <r>    6.3486    1.0000 </r>
       <r>    6.3491    1.0000 </r>
       <r>    6.3497    1.0000 </r>
       <r>    6.3950    1.0000 </r>
       <r>    6.4244    1.0000 </r>
       <r>    6.4254    1.0000 </r>
       <r>    6.4269    1.0000 </r>
       <r>    6.4277    1.0000 </r>
       <r>    6.4281    1.0000 </r>
       <r>    6.4316    1.0000 </r>
       <r>    6.4688    1.0000 </r>
       <r>    6.4715    1.0000 </r>
       <r>    6.4731    1.0000 </r>
       <r>    6.4733    1.0000 </r>
       <r>    6.4741    1.0000 </r>
       <r>    6.4766    1.0000 </r>
       <r>    6.5191    1.0000 </r>
       <r>    6.5204    1.0000 </r>
       <r>    6.5219    1.0000 </r>
       <r>    6.5220    1.0000 </r>
       <r>    6.5229    1.0000 </r>
       <r>    6.5232    1.0000 </r>
       <r>    6.5235    1.0000 </r>
       <r>    6.5241    1.0000 </r>
       <r>    6.5253    1.0000 </r>
       <r>    6.5260    1.0000 </r>
       <r>    6.5266    1.0000 </r>
       <r>    6.5272    1.0000 </r>
       <r>    6.6557    1.0000 </r>
       <r>    6.6609    1.0000 </r>
       <r>    6.6610    1.0000 </r>
       <r>    6.6612    1.0000 </r>
       <r>    6.6614    1.0000 </r>
       <r>    6.6651    1.0000 </r>
       <r>    6.6940    1.0000 </r>
       <r>    6.6949    1.0000 </r>
       <r>    6.6971    1.0000 </r>
       <r>    6.6990    1.0000 </r>
       <r>    6.7009    1.0000 </r>
       <r>    6.7020    1.0000 </r>
       <r>    6.7356    1.0000 </r>
       <r>    6.7385    1.0000 </r>
       <r>    6.7403    1.0000 </r>
       <r>    6.7882    1.0000 </r>
       <r>    6.7893    1.0000 </r>
       <r>    6.7921    1.0000 </r>
       <r>    6.7936    1.0000 </r>
       <r>    6.7937    1.0000 </r>
       <r>    6.7938    1.0000 </r>
       <r>    6.7940    1.0000 </r>
       <r>    6.7943    1.0000 </r>
       <r>    6.7952    1.0000 </r>
       <r>    6.7958    1.0000 </r>
       <r>    6.7967    1.0000 </r>
       <r>    6.7998    1.0000 </r>
       <r>    6.8811    1.0000 </r>
       <r>    6.8823    1.0000 </r>
       <r>    7.0043    1.0000 </r>
       <r>    7.0062    1.0000 </r>
       <r>    7.0073    1.0000 </r>
       <r>    7.0466    1.0000 </r>
       <r>    7.0500    1.0000 </r>
       <r>    7.0503    1.0000 </r>
       <r>    7.0516    1.0000 </r>
       <r>    7.0525    1.0000 </r>
       <r>    7.0529    1.0000 </r>
       <r>    7.0530    1.0000 </r>
       <r>    7.0531    1.0000 </r>
       <r>    7.0541    1.0000 </r>
       <r>    7.0545    1.0000 </r>
       <r>    7.0558    1.0000 </r>
       <r>    7.0571    1.0000 </r>
       <r>    7.0833    1.0000 </r>
       <r>    7.0857    1.0000 </r>
       <r>    7.0890    1.0000 </r>
       <r>    7.0892    1.0000 </r>
       <r>    7.0896    1.0000 </r>
       <r>    7.0901    1.0000 </r>
       <r>    7.0903    1.0000 </r>
       <r>    7.0906    1.0000 </r>
       <r>    7.0909    1.0000 </r>
       <r>    7.0914    1.0000 </r>
       <r>    7.0962    1.0000 </r>
       <r>    7.0989    1.0000 </r>
       <r>    7.1858    1.0000 </r>
       <r>    7.1863    1.0000 </r>
       <r>    7.1884    1.0000 </r>
       <r>    7.1887    1.0000 </r>
       <r>    7.1903    1.0000 </r>
       <r>    7.1926    1.0000 </r>
       <r>    7.2667    1.0000 </r>
       <r>    7.2680    1.0000 </r>
       <r>    7.2688    1.0000 </r>
       <r>    7.2711    1.0000 </r>
       <r>    7.2743    1.0000 </r>
       <r>    7.2745    1.0000 </r>
       <r>    7.2750    1.0000 </r>
       <r>    7.2770    1.0000 </r>
       <r>    7.2787    1.0000 </r>
       <r>    7.3609    1.0000 </r>
       <r>    7.3645    1.0000 </r>
       <r>    7.3896    1.0000 </r>
       <r>    7.3931    1.0000 </r>
       <r>    7.7114    1.0000 </r>
       <r>    7.7175    1.0000 </r>
       <r>    7.7190    1.0000 </r>
       <r>    7.7204    1.0000 </r>
       <r>    7.7205    1.0000 </r>
       <r>    7.7207    1.0000 </r>
       <r>    7.7208    1.0000 </r>
       <r>    7.7210    1.0000 </r>
       <r>    7.7218    1.0000 </r>
       <r>    7.7221    1.0000 </r>
       <r>    7.7234    1.0000 </r>
       <r>    7.7281    1.0000 </r>
       <r>    7.7836    1.0000 </r>
       <r>    7.7837    1.0000 </r>
       <r>    7.7852    1.0000 </r>
       <r>    7.7858    1.0000 </r>
       <r>    7.7870    1.0000 </r>
       <r>    7.7878    1.0000 </r>
       <r>    7.9117    1.0000 </r>
       <r>    7.9160    1.0000 </r>
       <r>    7.9167    1.0000 </r>
       <r>    7.9170    1.0000 </r>
       <r>    7.9172    1.0000 </r>
       <r>    7.9234    1.0000 </r>
       <r>    8.1511    1.0000 </r>
       <r>    8.1554    1.0000 </r>
       <r>    8.1560    1.0000 </r>
       <r>    8.1565    1.0000 </r>
       <r>    8.1566    1.0000 </r>
       <r>    8.1601    1.0000 </r>
       <r>    8.3277    1.0000 </r>
       <r>    8.3317    1.0000 </r>
       <r>    8.3349    1.0000 </r>
       <r>    8.3357    1.0000 </r>
       <r>    8.3359    1.0000 </r>
       <r>    8.3363    1.0000 </r>
       <r>    8.3363    1.0000 </r>
       <r>    8.3365    1.0000 </r>
       <r>    8.3371    1.0000 </r>
       <r>    8.3377    1.0000 </r>
       <r>    8.3406    1.0000 </r>
       <r>    8.3452    1.0000 </r>
       <r>    8.4217    1.0000 </r>
       <r>    8.4272    1.0000 </r>
       <r>    8.4273    1.0000 </r>
       <r>    8.4276    1.0000 </r>
       <r>    8.4290    1.0000 </r>
       <r>    8.4317    1.0000 </r>
       <r>    8.5383    1.0002 </r>
       <r>    8.5411    1.0002 </r>
       <r>    8.5417    1.0002 </r>
       <r>    8.5441    1.0003 </r>
       <r>    8.6415    1.0133 </r>
       <r>    8.6439    1.0142 </r>
       <r>    8.6451    1.0147 </r>
       <r>    8.6461    1.0150 </r>
       <r>    8.6473    1.0155 </r>
       <r>    8.6474    1.0156 </r>
       <r>    8.6478    1.0157 </r>
       <r>    8.6481    1.0158 </r>
       <r>    8.6487    1.0161 </r>
       <r>    8.6502    1.0167 </r>
       <r>    8.6519    1.0174 </r>
       <r>    8.6556    1.0190 </r>
       <r>    8.8483    0.3050 </r>
       <r>    8.8514    0.2816 </r>
       <r>    8.8530    0.2697 </r>
       <r>    8.8530    0.2696 </r>
       <r>    8.8557    0.2496 </r>
       <r>    8.8559    0.2483 </r>
       <r>    8.9476   -0.0355 </r>
       <r>    8.9482   -0.0354 </r>
       <r>    8.9502   -0.0353 </r>
       <r>    8.9509   -0.0352 </r>
       <r>    8.9531   -0.0349 </r>
       <r>    8.9537   -0.0348 </r>
       <r>    9.1457   -0.0000 </r>
       <r>    9.1501   -0.0000 </r>
       <r>    9.1513   -0.0000 </r>
       <r>    9.1535   -0.0000 </r>
       <r>    9.1537   -0.0000 </r>
       <r>    9.1538   -0.0000 </r>
       <r>    9.1540   -0.0000 </r>
       <r>    9.1543   -0.0000 </r>
       <r>    9.1551   -0.0000 </r>
       <r>    9.1553   -0.0000 </r>
       <r>    9.1602   -0.0000 </r>
       <r>    9.1607   -0.0000 </r>
       <r>    9.5998   -0.0000 </r>
       <r>    9.6033   -0.0000 </r>
       <r>    9.6048   -0.0000 </r>
       <r>    9.6052   -0.0000 </r>
       <r>    9.6057   -0.0000 </r>
       <r>    9.6057   -0.0000 </r>
       <r>    9.6059   -0.0000 </r>
       <r>    9.6061   -0.0000 </r>
       <r>    9.6067   -0.0000 </r>
       <r>    9.6070   -0.0000 </r>
       <r>    9.6083   -0.0000 </r>
       <r>    9.6112   -0.0000 </r>
       <r>    9.7693   -0.0000 </r>
       <r>    9.7703   -0.0000 </r>
       <r>    9.7714   -0.0000 </r>
       <r>    9.7721   -0.0000 </r>
       <r>    9.8734   -0.0000 </r>
       <r>    9.8735   -0.0000 </r>
       <r>    9.8756   -0.0000 </r>
       <r>    9.8767   -0.0000 </r>
       <r>    9.8770   -0.0000 </r>
       <r>    9.8774   -0.0000 </r>
       <r>    9.8776   -0.0000 </r>
       <r>    9.8778   -0.0000 </r>
       <r>    9.8789   -0.0000 </r>
       <r>    9.8797   -0.0000 </r>
       <r>    9.8810   -0.0000 </r>
       <r>    9.8819   -0.0000 </r>
       <r>    9.9252   -0.0000 </r>
       <r>    9.9290   -0.0000 </r>
       <r>   10.1054   -0.0000 </r>
       <r>   10.1515   -0.0000 </r>
       <r>   10.1579   -0.0000 </r>
       <r>   10.1857   -0.0000 </r>
       <r>   10.2441   -0.0000 </r>
       <r>   10.2632   -0.0000 </r>
       <r>   10.2706   -0.0000 </r>
       <r>   10.2830   -0.0000 </r>
       <r>   10.3349   -0.0000 </r>
       <r>   10.3622   -0.0000 </r>
       <r>   10.3875   -0.0000 </r>
       <r>   10.3929   -0.0000 </r>
       <r>   10.4006   -0.0000 </r>
       <r>   10.4165   -0.0000 </r>
      </set>
      <set comment="kpoint 2">
       <r>    0.9927    1.0000 </r>
       <r>    2.0780    1.0000 </r>
       <r>    2.0801    1.0000 </r>
       <r>    2.1854    1.0000 </r>
       <r>    2.5131    1.0000 </r>
       <r>    2.5134    1.0000 </r>
       <r>    2.6033    1.0000 </r>
       <r>    2.6038    1.0000 </r>
       <r>    2.6225    1.0000 </r>
       <r>    2.6236    1.0000 </r>
       <r>    2.6239    1.0000 </r>
       <r>    2.6240    1.0000 </r>
       <r>    2.7436    1.0000 </r>
       <r>    2.7698    1.0000 </r>
       <r>    2.8050    1.0000 </r>
       <r>    2.8054    1.0000 </r>
       <r>    2.9504    1.0000 </r>
       <r>    2.9519    1.0000 </r>
       <r>    2.9782    1.0000 </r>
       <r>    2.9783    1.0000 </r>
       <r>    3.0369    1.0000 </r>
       <r>    3.0379    1.0000 </r>
       <r>    3.0411    1.0000 </r>
       <r>    3.0436    1.0000 </r>
       <r>    3.0465    1.0000 </r>
       <r>    3.1045    1.0000 </r>
       <r>    3.1052    1.0000 </r>
       <r>    3.1058    1.0000 </r>
       <r>    3.1069    1.0000 </r>
       <r>    3.1440    1.0000 </r>
       <r>    3.1447    1.0000 </r>
       <r>    3.1449    1.0000 </r>
       <r>    3.1454    1.0000 </r>
       <r>    3.1532    1.0000 </r>
       <r>    3.1561    1.0000 </r>
       <r>    3.1879    1.0000 </r>
       <r>    3.1887    1.0000 </r>
       <r>    3.1910    1.0000 </r>
       <r>    3.1914    1.0000 </r>
       <r>    3.3705    1.0000 </r>
       <r>    3.3719    1.0000 </r>
       <r>    3.3728    1.0000 </r>
       <r>    3.3732    1.0000 </r>
       <r>    3.3784    1.0000 </r>
       <r>    3.3806    1.0000 </r>
       <r>    3.4075    1.0000 </r>
       <r>    3.4104    1.0000 </r>
       <r>    3.4329    1.0000 </r>
       <r>    3.4512    1.0000 </r>
       <r>    3.4531    1.0000 </r>
       <r>    3.4958    1.0000 </r>
       <r>    3.5238    1.0000 </r>
       <r>    3.5240    1.0000 </r>
       <r>    3.5251    1.0000 </r>
       <r>    3.5253    1.0000 </r>
       <r>    3.5445    1.0000 </r>
       <r>    3.5448    1.0000 </r>
       <r>    3.5468    1.0000 </r>
       <r>    3.5472    1.0000 </r>
       <r>    3.5473    1.0000 </r>
       <r>    3.5485    1.0000 </r>
       <r>    3.5671    1.0000 </r>
       <r>    3.5685    1.0000 </r>
       <r>    3.5857    1.0000 </r>
       <r>    3.5864    1.0000 </r>
       <r>    3.5872    1.0000 </r>
       <r>    3.5877    1.0000 </r>
       <r>    3.7955    1.0000 </r>
       <r>    3.7979    1.0000 </r>
       <r>    3.8113    1.0000 </r>
       <r>    3.8140    1.0000 </r>
       <r>    3.8300    1.0000 </r>
       <r>    3.8305    1.0000 </r>
       <r>    3.8604    1.0000 </r>
       <r>    3.8618    1.0000 </r>
       <r>    3.8619    1.0000 </r>
       <r>    3.8625    1.0000 </r>
       <r>    3.9474    1.0000 </r>
       <r>    3.9504    1.0000 </r>
       <r>    3.9669    1.0000 </r>
       <r>    3.9672    1.0000 </r>
       <r>    4.0180    1.0000 </r>
       <r>    4.0183    1.0000 </r>
       <r>    4.0207    1.0000 </r>
       <r>    4.0209    1.0000 </r>
       <r>    4.0225    1.0000 </r>
       <r>    4.0226    1.0000 </r>
       <r>    4.0247    1.0000 </r>
       <r>    4.0250    1.0000 </r>
       <r>    4.0693    1.0000 </r>
       <r>    4.0712    1.0000 </r>
       <r>    4.0720    1.0000 </r>
       <r>    4.0731    1.0000 </r>
       <r>    4.1102    1.0000 </r>
       <r>    4.1107    1.0000 </r>
       <r>    4.1124    1.0000 </r>
       <r>    4.1145    1.0000 </r>
       <r>    4.1165    1.0000 </r>
       <r>    4.1172    1.0000 </r>
       <r>    4.1361    1.0000 </r>
       <r>    4.1363    1.0000 </r>
       <r>    4.1682    1.0000 </r>
       <r>    4.1699    1.0000 </r>
       <r>    4.2701    1.0000 </r>
       <r>    4.2718    1.0000 </r>
       <r>    4.2739    1.0000 </r>
       <r>    4.2761    1.0000 </r>
       <r>    4.2763    1.0000 </r>
       <r>    4.2782    1.0000 </r>
       <r>    4.3613    1.0000 </r>
       <r>    4.3619    1.0000 </r>
       <r>    4.3991    1.0000 </r>
       <r>    4.4001    1.0000 </r>
       <r>    4.4026    1.0000 </r>
       <r>    4.4042    1.0000 </r>
       <r>    4.4063    1.0000 </r>
       <r>    4.4080    1.0000 </r>
       <r>    4.4095    1.0000 </r>
       <r>    4.4109    1.0000 </r>
       <r>    4.4222    1.0000 </r>
       <r>    4.4250    1.0000 </r>
       <r>    4.4533    1.0000 </r>
       <r>    4.5825    1.0000 </r>
       <r>    4.5842    1.0000 </r>
       <r>    4.5866    1.0000 </r>
       <r>    4.5873    1.0000 </r>
       <r>    4.5941    1.0000 </r>
       <r>    4.5942    1.0000 </r>
       <r>    4.5950    1.0000 </r>
       <r>    4.5971    1.0000 </r>
       <r>    4.6444    1.0000 </r>
       <r>    4.6469    1.0000 </r>
       <r>    4.6479    1.0000 </r>
       <r>    4.6506    1.0000 </r>
       <r>    4.7101    1.0000 </r>
       <r>    4.7114    1.0000 </r>
       <r>    4.7283    1.0000 </r>
       <r>    4.7300    1.0000 </r>
       <r>    4.7545    1.0000 </r>
       <r>    4.7552    1.0000 </r>
       <r>    4.7571    1.0000 </r>
       <r>    4.7573    1.0000 </r>
       <r>    4.8432    1.0000 </r>
       <r>    4.8451    1.0000 </r>
       <r>    4.8647    1.0000 </r>
       <r>    4.8649    1.0000 </r>
       <r>    5.0541    1.0000 </r>
       <r>    5.0552    1.0000 </r>
       <r>    5.0568    1.0000 </r>
       <r>    5.0568    1.0000 </r>
       <r>    5.1064    1.0000 </r>
       <r>    5.1071    1.0000 </r>
       <r>    5.2109    1.0000 </r>
       <r>    5.2136    1.0000 </r>
       <r>    5.2177    1.0000 </r>
       <r>    5.2350    1.0000 </r>
       <r>    5.2354    1.0000 </r>
       <r>    5.2517    1.0000 </r>
       <r>    5.2522    1.0000 </r>
       <r>    5.3306    1.0000 </r>
       <r>    5.3317    1.0000 </r>
       <r>    5.3419    1.0000 </r>
       <r>    5.3437    1.0000 </r>
       <r>    5.3453    1.0000 </r>
       <r>    5.3455    1.0000 </r>
       <r>    5.3461    1.0000 </r>
       <r>    5.3470    1.0000 </r>
       <r>    5.3853    1.0000 </r>
       <r>    5.3856    1.0000 </r>
       <r>    5.3868    1.0000 </r>
       <r>    5.3902    1.0000 </r>
       <r>    5.4127    1.0000 </r>
       <r>    5.4143    1.0000 </r>
       <r>    5.4156    1.0000 </r>
       <r>    5.4160    1.0000 </r>
       <r>    5.4278    1.0000 </r>
       <r>    5.4295    1.0000 </r>
       <r>    5.4303    1.0000 </r>
       <r>    5.4323    1.0000 </r>
       <r>    5.4403    1.0000 </r>
       <r>    5.4418    1.0000 </r>
       <r>    5.5297    1.0000 </r>
       <r>    5.6485    1.0000 </r>
       <r>    5.6498    1.0000 </r>
       <r>    5.6502    1.0000 </r>
       <r>    5.6523    1.0000 </r>
       <r>    5.6904    1.0000 </r>
       <r>    5.6935    1.0000 </r>
       <r>    5.7039    1.0000 </r>
       <r>    5.7070    1.0000 </r>
       <r>    5.7080    1.0000 </r>
       <r>    5.7102    1.0000 </r>
       <r>    5.7105    1.0000 </r>
       <r>    5.7491    1.0000 </r>
       <r>    5.7504    1.0000 </r>
       <r>    5.7534    1.0000 </r>
       <r>    5.7534    1.0000 </r>
       <r>    5.7698    1.0000 </r>
       <r>    5.7710    1.0000 </r>
       <r>    5.7938    1.0000 </r>
       <r>    5.7952    1.0000 </r>
       <r>    5.8048    1.0000 </r>
       <r>    5.8052    1.0000 </r>
       <r>    5.8064    1.0000 </r>
       <r>    5.8064    1.0000 </r>
       <r>    5.8287    1.0000 </r>
       <r>    5.8478    1.0000 </r>
       <r>    5.8489    1.0000 </r>
       <r>    5.8872    1.0000 </r>
       <r>    5.8894    1.0000 </r>
       <r>    5.8903    1.0000 </r>
       <r>    5.8912    1.0000 </r>
       <r>    5.9769    1.0000 </r>
       <r>    5.9783    1.0000 </r>
       <r>    5.9949    1.0000 </r>
       <r>    5.9957    1.0000 </r>
       <r>    6.0118    1.0000 </r>
       <r>    6.0585    1.0000 </r>
       <r>    6.0590    1.0000 </r>
       <r>    6.0599    1.0000 </r>
       <r>    6.0615    1.0000 </r>
       <r>    6.1871    1.0000 </r>
       <r>    6.1880    1.0000 </r>
       <r>    6.2477    1.0000 </r>
       <r>    6.2746    1.0000 </r>
       <r>    6.2764    1.0000 </r>
       <r>    6.2897    1.0000 </r>
       <r>    6.4099    1.0000 </r>
       <r>    6.4114    1.0000 </r>
       <r>    6.4202    1.0000 </r>
       <r>    6.4225    1.0000 </r>
       <r>    6.4390    1.0000 </r>
       <r>    6.4427    1.0000 </r>
       <r>    6.4460    1.0000 </r>
       <r>    6.4467    1.0000 </r>
       <r>    6.4475    1.0000 </r>
       <r>    6.4833    1.0000 </r>
       <r>    6.4835    1.0000 </r>
       <r>    6.4848    1.0000 </r>
       <r>    6.4861    1.0000 </r>
       <r>    6.4875    1.0000 </r>
       <r>    6.4876    1.0000 </r>
       <r>    6.4946    1.0000 </r>
       <r>    6.4968    1.0000 </r>
       <r>    6.5244    1.0000 </r>
       <r>    6.5273    1.0000 </r>
       <r>    6.5302    1.0000 </r>
       <r>    6.5313    1.0000 </r>
       <r>    6.5355    1.0000 </r>
       <r>    6.5365    1.0000 </r>
       <r>    6.5378    1.0000 </r>
       <r>    6.5380    1.0000 </r>
       <r>    6.5663    1.0000 </r>
       <r>    6.5780    1.0000 </r>
       <r>    6.6351    1.0000 </r>
       <r>    6.6365    1.0000 </r>
       <r>    6.6618    1.0000 </r>
       <r>    6.6642    1.0000 </r>
       <r>    6.7099    1.0000 </r>
       <r>    6.7137    1.0000 </r>
       <r>    6.7171    1.0000 </r>
       <r>    6.7172    1.0000 </r>
       <r>    6.7191    1.0000 </r>
       <r>    6.7191    1.0000 </r>
       <r>    6.7209    1.0000 </r>
       <r>    6.7245    1.0000 </r>
       <r>    6.7275    1.0000 </r>
       <r>    6.7548    1.0000 </r>
       <r>    6.7557    1.0000 </r>
       <r>    6.7564    1.0000 </r>
       <r>    6.7581    1.0000 </r>
       <r>    6.7584    1.0000 </r>
       <r>    6.8022    1.0000 </r>
       <r>    6.8034    1.0000 </r>
       <r>    6.8058    1.0000 </r>
       <r>    6.8068    1.0000 </r>
       <r>    6.8333    1.0000 </r>
       <r>    6.8375    1.0000 </r>
       <r>    6.8428    1.0000 </r>
       <r>    6.8601    1.0000 </r>
       <r>    6.8613    1.0000 </r>
       <r>    6.8628    1.0000 </r>
       <r>    6.8636    1.0000 </r>
       <r>    6.8641    1.0000 </r>
       <r>    6.8642    1.0000 </r>
       <r>    6.8662    1.0000 </r>
       <r>    6.8740    1.0000 </r>
       <r>    6.8773    1.0000 </r>
       <r>    6.8849    1.0000 </r>
       <r>    6.8862    1.0000 </r>
       <r>    6.9443    1.0000 </r>
       <r>    6.9444    1.0000 </r>
       <r>    6.9505    1.0000 </r>
       <r>    6.9753    1.0000 </r>
       <r>    6.9760    1.0000 </r>
       <r>    6.9780    1.0000 </r>
       <r>    6.9789    1.0000 </r>
       <r>    7.0902    1.0000 </r>
       <r>    7.1620    1.0000 </r>
       <r>    7.1632    1.0000 </r>
       <r>    7.1637    1.0000 </r>
       <r>    7.1642    1.0000 </r>
       <r>    7.1954    1.0000 </r>
       <r>    7.1987    1.0000 </r>
       <r>    7.2132    1.0000 </r>
       <r>    7.2159    1.0000 </r>
       <r>    7.2174    1.0000 </r>
       <r>    7.2622    1.0000 </r>
       <r>    7.2626    1.0000 </r>
       <r>    7.2770    1.0000 </r>
       <r>    7.2782    1.0000 </r>
       <r>    7.3062    1.0000 </r>
       <r>    7.3075    1.0000 </r>
       <r>    7.3091    1.0000 </r>
       <r>    7.3368    1.0000 </r>
       <r>    7.3447    1.0000 </r>
       <r>    7.3672    1.0000 </r>
[...]
       <r>     1.0945     2.2768     0.3445 </r>
       <r>     1.1329     1.8477     0.4156 </r>
       <r>     1.1714     1.9518     0.4907 </r>
       <r>     1.2099     3.0792     0.6092 </r>
       <r>     1.2484     4.7644     0.7926 </r>
       <r>     1.2868     5.7966     1.0156 </r>
       <r>     1.3253     5.2507     1.2176 </r>
       <r>     1.3638     3.4688     1.3511 </r>
       <r>     1.4023     1.9171     1.4249 </r>
       <r>     1.4408     1.9027     1.4981 </r>
       <r>     1.4792     3.5246     1.6337 </r>
       <r>     1.5177     5.8604     1.8592 </r>
       <r>     1.5562     7.6729     2.1544 </r>
       <r>     1.5947     7.9617     2.4608 </r>
       <r>     1.6331     6.6459     2.7165 </r>
       <r>     1.6716     4.9059     2.9053 </r>
       <r>     1.7101     4.3552     3.0729 </r>
       <r>     1.7486     5.4693     3.2833 </r>
       <r>     1.7871     6.8752     3.5478 </r>
       <r>     1.8255     6.9319     3.8146 </r>
       <r>     1.8640     5.9474     4.0434 </r>
       <r>     1.9025     5.5773     4.2580 </r>
       <r>     1.9410     6.4263     4.5053 </r>
       <r>     1.9794     7.7157     4.8022 </r>
       <r>     2.0179     8.7375     5.1384 </r>
       <r>     2.0564     9.3175     5.4969 </r>
       <r>     2.0949     9.3521     5.8568 </r>
       <r>     2.1334     9.1490     6.2088 </r>
       <r>     2.1718     9.7265     6.5830 </r>
       <r>     2.2103    11.1731     7.0130 </r>
       <r>     2.2488    11.4667     7.4542 </r>
       <r>     2.2873     9.0039     7.8006 </r>
       <r>     2.3257     5.3265     8.0056 </r>
       <r>     2.3642     3.5583     8.1425 </r>
       <r>     2.4027     5.3306     8.3476 </r>
       <r>     2.4412     9.9997     8.7324 </r>
       <r>     2.4797    15.3652     9.3236 </r>
       <r>     2.5181    19.0597    10.0570 </r>
       <r>     2.5566    20.9239    10.8621 </r>
       <r>     2.5951    23.5514    11.7683 </r>
       <r>     2.6336    28.6983    12.8726 </r>
       <r>     2.6721    34.7758    14.2107 </r>
       <r>     2.7105    40.1468    15.7555 </r>
       <r>     2.7490    46.7698    17.5551 </r>
       <r>     2.7875    57.6203    19.7722 </r>
       <r>     2.8260    71.3925    22.5192 </r>
       <r>     2.8644    83.3783    25.7275 </r>
       <r>     2.9029    92.4127    29.2833 </r>
       <r>     2.9414   102.2274    33.2168 </r>
       <r>     2.9799   114.5566    37.6248 </r>
       <r>     3.0184   126.5841    42.4955 </r>
       <r>     3.0568   134.7876    47.6818 </r>
       <r>     3.0953   137.0435    52.9550 </r>
       <r>     3.1338   133.8376    58.1048 </r>
       <r>     3.1723   127.9601    63.0285 </r>
       <r>     3.2107   122.4398    67.7397 </r>
       <r>     3.2492   122.5299    72.4545 </r>
       <r>     3.2877   134.4411    77.6275 </r>
       <r>     3.3262   154.9624    83.5901 </r>
       <r>     3.3647   169.8509    90.1257 </r>
       <r>     3.4031   169.8091    96.6596 </r>
       <r>     3.4416   161.5541   102.8759 </r>
       <r>     3.4801   158.2425   108.9648 </r>
       <r>     3.5186   163.7531   115.2657 </r>
       <r>     3.5570   168.7601   121.7592 </r>
       <r>     3.5955   162.3654   128.0068 </r>
       <r>     3.6340   147.3648   133.6771 </r>
       <r>     3.6725   136.8349   138.9422 </r>
       <r>     3.7110   134.8776   144.1320 </r>
       <r>     3.7494   132.5578   149.2326 </r>
       <r>     3.7879   124.0942   154.0075 </r>
       <r>     3.8264   114.6908   158.4206 </r>
       <r>     3.8649   109.8248   162.6465 </r>
       <r>     3.9034   107.6713   166.7894 </r>
       <r>     3.9418   105.6904   170.8562 </r>
       <r>     3.9803   105.3226   174.9088 </r>
       <r>     4.0188   106.4000   179.0029 </r>
       <r>     4.0573   105.4906   183.0620 </r>
       <r>     4.0957   102.3340   186.9996 </r>
       <r>     4.1342    99.6947   190.8356 </r>
       <r>     4.1727    97.7386   194.5964 </r>
       <r>     4.2112    97.5378   198.3495 </r>
       <r>     4.2497   105.4135   202.4056 </r>
       <r>     4.2881   123.0830   207.1416 </r>
       <r>     4.3266   140.3762   212.5430 </r>
       <r>     4.3651   147.3089   218.2112 </r>
       <r>     4.4036   145.3911   223.8055 </r>
       <r>     4.4420   141.7749   229.2608 </r>
       <r>     4.4805   139.6767   234.6353 </r>
       <r>     4.5190   138.1851   239.9524 </r>
       <r>     4.5575   136.7783   245.2153 </r>
       <r>     4.5960   134.4884   250.3902 </r>
       <r>     4.6344   128.0469   255.3172 </r>
       <r>     4.6729   117.2068   259.8271 </r>
       <r>     4.7114   107.8249   263.9760 </r>
       <r>     4.7499   105.1382   268.0215 </r>
       <r>     4.7883   108.7996   272.2079 </r>
       <r>     4.8268   116.4041   276.6869 </r>
       <r>     4.8653   125.9205   281.5321 </r>
       <r>     4.9038   134.4229   286.7044 </r>
       <r>     4.9423   139.5023   292.0722 </r>
       <r>     4.9807   140.8920   297.4934 </r>
       <r>     5.0192   138.2775   302.8141 </r>
       <r>     5.0577   130.3376   307.8292 </r>
       <r>     5.0962   120.1628   312.4529 </r>
       <r>     5.1346   118.8733   317.0269 </r>
       <r>     5.1731   134.1556   322.1889 </r>
       <r>     5.2116   155.3618   328.1670 </r>
       <r>     5.2501   161.5554   334.3833 </r>
       <r>     5.2886   145.4808   339.9811 </r>
       <r>     5.3270   120.2903   344.6097 </r>
       <r>     5.3655   102.1257   348.5393 </r>
       <r>     5.4040    93.8949   352.1522 </r>
       <r>     5.4425    88.3829   355.5530 </r>
       <r>     5.4810    80.0983   358.6350 </r>
       <r>     5.5194    68.2597   361.2615 </r>
       <r>     5.5579    54.1943   363.3468 </r>
       <r>     5.5964    43.2413   365.0106 </r>
       <r>     5.6349    44.9258   366.7393 </r>
       <r>     5.6733    64.4192   369.2180 </r>
       <r>     5.7118    94.5505   372.8561 </r>
       <r>     5.7503   121.3056   377.5238 </r>
       <r>     5.7888   139.0463   382.8740 </r>
       <r>     5.8273   154.0103   388.8000 </r>
       <r>     5.8657   170.0297   395.3424 </r>
       <r>     5.9042   181.0536   402.3090 </r>
       <r>     5.9427   183.5859   409.3731 </r>
       <r>     5.9812   185.0058   416.4917 </r>
       <r>     6.0196   190.3567   423.8163 </r>
       <r>     6.0581   192.7152   431.2316 </r>
       <r>     6.0966   185.2356   438.3591 </r>
       <r>     6.1351   169.8675   444.8953 </r>
       <r>     6.1736   151.8181   450.7370 </r>
       <r>     6.2120   136.6816   455.9962 </r>
       <r>     6.2505   128.7084   460.9487 </r>
       <r>     6.2890   126.2158   465.8052 </r>
       <r>     6.3275   124.0789   470.5795 </r>
       <r>     6.3659   121.1935   475.2428 </r>
       <r>     6.4044   121.7025   479.9257 </r>
       <r>     6.4429   128.8890   484.8851 </r>
       <r>     6.4814   141.0266   490.3115 </r>
       <r>     6.5199   155.0211   496.2764 </r>
       <r>     6.5583   171.1311   502.8612 </r>
       <r>     6.5968   189.2058   510.1415 </r>
       <r>     6.6353   201.6737   517.9015 </r>
       <r>     6.6738   198.4305   525.5367 </r>
       <r>     6.7123   179.8096   532.4555 </r>
       <r>     6.7507   157.7875   538.5268 </r>
       <r>     6.7892   143.6262   544.0533 </r>
       <r>     6.8277   138.5129   549.3830 </r>
       <r>     6.8662   135.8944   554.6120 </r>
       <r>     6.9046   130.8964   559.6486 </r>
       <r>     6.9431   126.5020   564.5162 </r>
       <r>     6.9816   128.0856   569.4446 </r>
       <r>     7.0201   134.5716   574.6227 </r>
       <r>     7.0586   141.3556   580.0618 </r>
       <r>     7.0970   148.3279   585.7692 </r>
       <r>     7.1355   157.8456   591.8428 </r>
       <r>     7.1740   167.7554   598.2977 </r>
       <r>     7.2125   172.7955   604.9465 </r>
       <r>     7.2509   171.5730   611.5483 </r>
       <r>     7.2894   167.1039   617.9781 </r>
       <r>     7.3279   162.3196   624.2239 </r>
       <r>     7.3664   158.1945   630.3109 </r>
       <r>     7.4049   152.2795   636.1703 </r>
       <r>     7.4433   139.8390   641.5511 </r>
       <r>     7.4818   122.6471   646.2703 </r>
       <r>     7.5203   112.2917   650.5911 </r>
       <r>     7.5588   116.7607   655.0838 </r>
       <r>     7.5972   128.0210   660.0098 </r>
       <r>     7.6357   130.4652   665.0299 </r>
       <r>     7.6742   119.1755   669.6155 </r>
       <r>     7.7127   103.8381   673.6110 </r>
       <r>     7.7512    96.1540   677.3108 </r>
       <r>     7.7896    98.7599   681.1109 </r>
       <r>     7.8281   105.3131   685.1632 </r>
       <r>     7.8666   107.8135   689.3116 </r>
       <r>     7.9051   103.9682   693.3121 </r>
       <r>     7.9435    96.6397   697.0306 </r>
       <r>     7.9820    87.6910   700.4048 </r>
       <r>     8.0205    77.9002   703.4023 </r>
       <r>     8.0590    71.0392   706.1357 </r>
       <r>     8.0975    70.5117   708.8489 </r>
       <r>     8.1359    73.8627   711.6910 </r>
       <r>     8.1744    77.1381   714.6591 </r>
       <r>     8.2129    81.1155   717.7803 </r>
       <r>     8.2514    88.8185   721.1978 </r>
       <r>     8.2899   100.8971   725.0801 </r>
       <r>     8.3283   114.1757   729.4734 </r>
       <r>     8.3668   122.4897   734.1866 </r>
       <r>     8.4053   120.7253   738.8319 </r>
       <r>     8.4438   108.1098   742.9917 </r>
       <r>     8.4822    88.9845   746.4157 </r>
       <r>     8.5207    72.7885   749.2164 </r>
       <r>     8.5592    67.7392   751.8229 </r>
       <r>     8.5977    70.7951   754.5470 </r>
       <r>     8.6362    69.7956   757.2326 </r>
       <r>     8.6746    58.6291   759.4885 </r>
       <r>     8.7131    45.2051   761.2279 </r>
       <r>     8.7516    42.7856   762.8742 </r>
       <r>     8.7901    57.8837   765.1015 </r>
       <r>     8.8285    85.6907   768.3987 </r>
       <r>     8.8670   113.0199   772.7475 </r>
       <r>     8.9055   127.1791   777.6411 </r>
       <r>     8.9440   123.7567   782.4030 </r>
       <r>     8.9825   106.8480   786.5143 </r>
       <r>     9.0209    85.4146   789.8009 </r>
       <r>     9.0594    68.5254   792.4376 </r>
       <r>     9.0979    60.6951   794.7731 </r>
       <r>     9.1364    61.7789   797.1502 </r>
       <r>     9.1748    68.9563   799.8035 </r>
       <r>     9.2133    76.8728   802.7614 </r>
       <r>     9.2518    80.5077   805.8592 </r>
       <r>     9.2903    79.9661   808.9361 </r>
       <r>     9.3288    79.4024   811.9914 </r>
       <r>     9.3672    82.6599   815.1720 </r>
       <r>     9.4057    92.2622   818.7221 </r>
       <r>     9.4442   107.6134   822.8628 </r>
       <r>     9.4827   121.7342   827.5469 </r>
       <r>     9.5212   127.1345   832.4388 </r>
       <r>     9.5596   125.8131   837.2799 </r>
       <r>     9.5981   126.1524   842.1340 </r>
       <r>     9.6366   131.8273   847.2064 </r>
       <r>     9.6751   138.6614   852.5418 </r>
       <r>     9.7135   139.1340   857.8954 </r>
       <r>     9.7520   128.4098   862.8364 </r>
       <r>     9.7905   110.8259   867.1008 </r>
       <r>     9.8290   100.5307   870.9690 </r>
       <r>     9.8675   110.1548   875.2076 </r>
       <r>     9.9059   137.3682   880.4932 </r>
       <r>     9.9444   163.9252   886.8007 </r>
       <r>     9.9829   169.9586   893.3404 </r>
       <r>    10.0214   151.3058   899.1624 </r>
       <r>    10.0598   121.4091   903.8340 </r>
       <r>    10.0983    96.1804   907.5348 </r>
       <r>    10.1368    80.7019   910.6401 </r>
       <r>    10.1753    70.3613   913.3474 </r>
       <r>    10.2138    59.3997   915.6330 </r>
       <r>    10.2522    45.8693   917.3980 </r>
       <r>    10.2907    31.3609   918.6047 </r>
       <r>    10.3292    18.7259   919.3252 </r>
       <r>    10.3677     9.8845   919.7056 </r>
       <r>    10.4061     4.8474   919.8921 </r>
       <r>    10.4446     2.2922   919.9803 </r>
       <r>    10.4831     0.8991   920.0149 </r>
       <r>    10.5216     0.1090   920.0191 </r>
       <r>    10.5601    -0.1925   920.0117 </r>
       <r>    10.5985    -0.1807   920.0047 </r>
       <r>    10.6370    -0.0874   920.0013 </r>
       <r>    10.6755    -0.0276   920.0003 </r>
       <r>    10.7140    -0.0061   920.0000 </r>
       <r>    10.7524    -0.0010   920.0000 </r>
       <r>    10.7909    -0.0001   920.0000 </r>
       <r>    10.8294    -0.0000   920.0000 </r>
       <r>    10.8679    -0.0000   920.0000 </r>
       <r>    10.9064    -0.0000   920.0000 </r>
       <r>    10.9448    -0.0000   920.0000 </r>
       <r>    10.9833    -0.0000   920.0000 </r>
       <r>    11.0218    -0.0000   920.0000 </r>
       <r>    11.0603    -0.0000   920.0000 </r>
       <r>    11.0988     0.0000   920.0000 </r>
       <r>    11.1372     0.0000   920.0000 </r>
       <r>    11.1757     0.0000   920.0000 </r>
       <r>    11.2142     0.0000   920.0000 </r>
       <r>    11.2527     0.0000   920.0000 </r>
       <r>    11.2911     0.0000   920.0000 </r>
       <r>    11.3296     0.0000   920.0000 </r>
       <r>    11.3681     0.0000   920.0000 </r>
       <r>    11.4066     0.0000   920.0000 </r>
       <r>    11.4451     0.0000   920.0000 </r>
      </set>
     </set>
    </array>
   </total>
  </dos>
 </calculation>
 <structure name="finalpos" >
  <crystal>
   <varray name="basis" >
    <v>      -5.43748000      -9.41800000       0.00000000 </v>
    <v>      10.87496000       0.00000000       0.00000000 </v>
    <v>       0.00000000       0.00000000      12.89166000 </v>
   </varray>
   <i name="volume">   1320.36862940 </i>
   <varray name="rec_basis" >
    <v>       0.00000000      -0.10617966       0.00000000 </v>
    <v>       0.09195436      -0.05308983       0.00000000 </v>
    <v>       0.00000000       0.00000000       0.07756953 </v>
   </varray>
  </crystal>
  <varray name="positions" >
   <v>       0.50000000       0.00000000       0.33333333 </v>
   <v>       0.66666750       0.08333500       0.16666667 </v>
   <v>       0.50000000       0.25000000       0.33333333 </v>
   <v>       0.66666750       0.33333500       0.16666667 </v>
   <v>       0.50000000       0.50000000       0.33333333 </v>
   <v>       0.66666750       0.58333500       0.16666667 </v>
   <v>       0.50000000       0.75000000       0.33333333 </v>
   <v>       0.66666750       0.83333500       0.16666667 </v>
   <v>       0.25000000       0.00000000       0.33333333 </v>
   <v>       0.41666750       0.08333500       0.16666667 </v>
   <v>       0.25000000       0.25000000       0.33333333 </v>
   <v>       0.41666750       0.33333500       0.16666667 </v>
   <v>       0.25000000       0.50000000       0.33333333 </v>
   <v>       0.41666750       0.58333500       0.16666667 </v>
   <v>       0.25000000       0.75000000       0.33333333 </v>
   <v>       0.41666750       0.83333500       0.16666667 </v>
   <v>       0.00000000       0.00000000       0.33333333 </v>
   <v>       0.16666750       0.08333500       0.16666667 </v>
   <v>       0.00000000       0.25000000       0.33333333 </v>
   <v>       0.16666750       0.33333500       0.16666667 </v>
   <v>       0.00000000       0.50000000       0.33333333 </v>
   <v>       0.16666750       0.58333500       0.16666667 </v>
   <v>       0.00000000       0.75000000       0.33333333 </v>
   <v>       0.16666750       0.83333500       0.16666667 </v>
   <v>       0.75300250       0.00150000       0.33114000 </v>
   <v>       0.91666750       0.08333500       0.16666667 </v>
   <v>       0.75000000       0.25000000       0.33333333 </v>
   <v>       0.91666750       0.33333500       0.16666667 </v>
   <v>       0.75000000       0.50000000       0.33333333 </v>
   <v>       0.91666750       0.58333500       0.16666667 </v>
   <v>       0.75000000       0.75000000       0.33333333 </v>
   <v>       0.91666750       0.83333500       0.16666667 </v>
   <v>       0.50000000       0.00000000       0.66666667 </v>
   <v>       0.66666750       0.08333500       0.50000000 </v>
   <v>       0.50000000       0.25000000       0.66666667 </v>
   <v>       0.66666750       0.33333500       0.50000000 </v>
   <v>       0.50000000       0.50000000       0.66666667 </v>
   <v>       0.66666750       0.58333500       0.50000000 </v>
   <v>       0.50000000       0.75000000       0.66666667 </v>
   <v>       0.66666750       0.83333500       0.50000000 </v>
   <v>       0.25000000       0.00000000       0.66666667 </v>
   <v>       0.41666750       0.08333500       0.50000000 </v>
   <v>       0.25000000       0.25000000       0.66666667 </v>
   <v>       0.41666750       0.33333500       0.50000000 </v>
   <v>       0.25000000       0.50000000       0.66666667 </v>
   <v>       0.41666750       0.58333500       0.50000000 </v>
   <v>       0.25000000       0.75000000       0.66666667 </v>
   <v>       0.41666750       0.83333500       0.50000000 </v>
   <v>       0.00000000       0.00000000       0.66666667 </v>
   <v>       0.16666750       0.08333500       0.50000000 </v>
   <v>       0.00000000       0.25000000       0.66666667 </v>
   <v>       0.16666750       0.33333500       0.50000000 </v>
   <v>       0.00000000       0.50000000       0.66666667 </v>
   <v>       0.16666750       0.58333500       0.50000000 </v>
   <v>       0.00000000       0.75000000       0.66666667 </v>
   <v>       0.16666750       0.83333500       0.50000000 </v>
   <v>       0.75000000       0.00000000       0.66666667 </v>
   <v>       0.91666750       0.08333500       0.50000000 </v>
   <v>       0.75000000       0.25000000       0.66666667 </v>
   <v>       0.91666750       0.33333500       0.50000000 </v>
   <v>       0.75000000       0.50000000       0.66666667 </v>
   <v>       0.91666750       0.58333500       0.50000000 </v>
   <v>       0.75000000       0.75000000       0.66666667 </v>
   <v>       0.91666750       0.83333500       0.50000000 </v>
   <v>       0.50000000       0.00000000       0.00000000 </v>
   <v>       0.66666750       0.08333500       0.83333333 </v>
   <v>       0.50000000       0.25000000       0.00000000 </v>
   <v>       0.66666750       0.33333500       0.83333333 </v>
   <v>       0.50000000       0.50000000       0.00000000 </v>
   <v>       0.66666750       0.58333500       0.83333333 </v>
   <v>       0.50000000       0.75000000       0.00000000 </v>
   <v>       0.66666750       0.83333500       0.83333333 </v>
   <v>       0.25000000       0.00000000       0.00000000 </v>
   <v>       0.41666750       0.08333500       0.83333333 </v>
   <v>       0.25000000       0.25000000       0.00000000 </v>
   <v>       0.41666750       0.33333500       0.83333333 </v>
   <v>       0.25000000       0.50000000       0.00000000 </v>
   <v>       0.41666750       0.58333500       0.83333333 </v>
   <v>       0.25000000       0.75000000       0.00000000 </v>
   <v>       0.41666750       0.83333500       0.83333333 </v>
   <v>       0.00000000       0.00000000       0.00000000 </v>
   <v>       0.16666750       0.08333500       0.83333333 </v>
   <v>       0.00000000       0.25000000       0.00000000 </v>
   <v>       0.16666750       0.33333500       0.83333333 </v>
   <v>       0.00000000       0.50000000       0.00000000 </v>
   <v>       0.16666750       0.58333500       0.83333333 </v>
   <v>       0.00000000       0.75000000       0.00000000 </v>
   <v>       0.16666750       0.83333500       0.83333333 </v>
   <v>       0.75000000       0.00000000       0.00000000 </v>
   <v>       0.91666750       0.08333500       0.83333333 </v>
   <v>       0.75000000       0.25000000       0.00000000 </v>
   <v>       0.91666750       0.33333500       0.83333333 </v>
   <v>       0.75000000       0.50000000       0.00000000 </v>
   <v>       0.91666750       0.58333500       0.83333333 </v>
   <v>       0.75000000       0.75000000       0.00000000 </v>
   <v>       0.91666750       0.83333500       0.83333333 </v>
  </varray>
 </structure>
</modeling>
