 256 256   0   0
  0.1419206E+02  0.1537080E-08  0.1537218E-08  0.1537636E-08  0.5000000E-15
  1.000000000000000E-004
  CAR 
 Ir_Ru                                   
     12.68563928     -1.29489707  301      9.24207935      1.00000000
     -1.295  0.0000E+00  0.0000E+00
     -1.248  0.0000E+00  0.0000E+00
     -1.202  0.0000E+00  0.0000E+00
     -1.155  0.0000E+00  0.0000E+00
     -1.108 -0.2753E-28 -0.1283E-29
     -1.062 -0.4108E-25 -0.1916E-26
     -1.015 -0.3955E-22 -0.1845E-23
     -0.969 -0.2456E-19 -0.1146E-20
     -0.922 -0.9842E-17 -0.4598E-18
     -0.875 -0.2469E-14 -0.1155E-15
     -0.829 -0.4095E-12 -0.1920E-13
     -0.782 -0.4373E-10 -0.2057E-11
     -0.736 -0.3009E-08 -0.1423E-09
     -0.689 -0.1335E-06 -0.6364E-08
     -0.642 -0.3825E-05 -0.1846E-06
     -0.596 -0.7096E-04 -0.3492E-05
     -0.549 -0.8548E-03 -0.4333E-04
     -0.503 -0.6689E-02 -0.3550E-03
     -0.456 -0.3359E-01 -0.1920E-02
     -0.409 -0.1021E+00 -0.6678E-02
     -0.363 -0.1377E+00 -0.1309E-01
     -0.316  0.2245E+00 -0.2631E-02
     -0.270  0.1511E+01  0.6778E-01
     -0.223  0.3541E+01  0.2328E+00
     -0.176  0.5072E+01  0.4691E+00
     -0.130  0.5733E+01  0.7363E+00
     -0.083  0.7329E+01  0.1078E+01
     -0.037  0.1020E+02  0.1553E+01
      0.010  0.1102E+02  0.2067E+01
      0.057  0.9148E+01  0.2493E+01
      0.103  0.9383E+01  0.2930E+01
      0.150  0.1316E+02  0.3544E+01
      0.196  0.1592E+02  0.4285E+01
      0.243  0.1605E+02  0.5033E+01
      0.290  0.1673E+02  0.5813E+01
      0.336  0.1850E+02  0.6675E+01
      0.383  0.1835E+02  0.7530E+01
      0.429  0.1745E+02  0.8343E+01
      0.476  0.1982E+02  0.9266E+01
      0.523  0.2338E+02  0.1036E+02
      0.569  0.2405E+02  0.1148E+02
      0.616  0.2228E+02  0.1252E+02
      0.662  0.1872E+02  0.1339E+02
      0.709  0.1408E+02  0.1404E+02
      0.756  0.1115E+02  0.1456E+02
      0.802  0.1072E+02  0.1506E+02
      0.849  0.1113E+02  0.1558E+02
      0.895  0.1214E+02  0.1615E+02
      0.942  0.1461E+02  0.1683E+02
      0.989  0.1830E+02  0.1768E+02
      1.035  0.2285E+02  0.1875E+02
      1.082  0.2808E+02  0.2005E+02
      1.128  0.3126E+02  0.2151E+02
      1.175  0.2973E+02  0.2290E+02
      1.222  0.2588E+02  0.2410E+02
      1.268  0.2304E+02  0.2518E+02
      1.315  0.2095E+02  0.2615E+02
      1.361  0.2003E+02  0.2709E+02
      1.408  0.2163E+02  0.2809E+02
      1.455  0.2409E+02  0.2922E+02
      1.501  0.2568E+02  0.3041E+02
      1.548  0.2898E+02  0.3176E+02
      1.594  0.3510E+02  0.3340E+02
      1.641  0.3874E+02  0.3520E+02
      1.688  0.3785E+02  0.3697E+02
      1.734  0.3923E+02  0.3880E+02
      1.781  0.4548E+02  0.4092E+02
      1.827  0.4932E+02  0.4321E+02
      1.874  0.4781E+02  0.4544E+02
      1.921  0.4724E+02  0.4764E+02
      1.967  0.5083E+02  0.5001E+02
      2.014  0.5407E+02  0.5253E+02
      2.060  0.5548E+02  0.5512E+02
      2.107  0.6137E+02  0.5798E+02
      2.154  0.7454E+02  0.6145E+02
      2.200  0.8939E+02  0.6562E+02
      2.247  0.1031E+03  0.7042E+02
      2.293  0.1179E+03  0.7592E+02
      2.340  0.1310E+03  0.8202E+02
      2.387  0.1382E+03  0.8846E+02
      2.433  0.1432E+03  0.9513E+02
      2.480  0.1522E+03  0.1022E+03
      2.526  0.1609E+03  0.1097E+03
      2.573  0.1617E+03  0.1173E+03
      2.620  0.1614E+03  0.1248E+03
      2.666  0.1691E+03  0.1327E+03
      2.713  0.1786E+03  0.1410E+03
      2.759  0.1849E+03  0.1496E+03
      2.806  0.1979E+03  0.1588E+03
      2.853  0.2230E+03  0.1692E+03
      2.899  0.2476E+03  0.1808E+03
      2.946  0.2563E+03  0.1927E+03
      2.992  0.2497E+03  0.2043E+03
      3.039  0.2468E+03  0.2158E+03
      3.086  0.2622E+03  0.2281E+03
      3.132  0.2865E+03  0.2414E+03
      3.179  0.3010E+03  0.2554E+03
      3.225  0.3035E+03  0.2696E+03
      3.272  0.3048E+03  0.2838E+03
      3.319  0.3084E+03  0.2982E+03
      3.365  0.3112E+03  0.3127E+03
      3.412  0.3146E+03  0.3273E+03
      3.458  0.3218E+03  0.3423E+03
      3.505  0.3334E+03  0.3579E+03
      3.552  0.3440E+03  0.3739E+03
      3.598  0.3469E+03  0.3900E+03
      3.645  0.3450E+03  0.4061E+03
      3.691  0.3490E+03  0.4224E+03
      3.738  0.3578E+03  0.4391E+03
      3.785  0.3593E+03  0.4558E+03
      3.831  0.3523E+03  0.4722E+03
      3.878  0.3479E+03  0.4884E+03
      3.925  0.3497E+03  0.5047E+03
      3.971  0.3507E+03  0.5211E+03
      4.018  0.3415E+03  0.5370E+03
      4.064  0.3228E+03  0.5520E+03
      4.111  0.3067E+03  0.5663E+03
      4.158  0.2976E+03  0.5802E+03
      4.204  0.2875E+03  0.5936E+03
      4.251  0.2712E+03  0.6062E+03
      4.297  0.2536E+03  0.6181E+03
      4.344  0.2427E+03  0.6294E+03
      4.391  0.2454E+03  0.6408E+03
      4.437  0.2579E+03  0.6528E+03
      4.484  0.2616E+03  0.6650E+03
      4.530  0.2504E+03  0.6767E+03
      4.577  0.2476E+03  0.6882E+03
      4.624  0.2674E+03  0.7007E+03
      4.670  0.2921E+03  0.7143E+03
      4.717  0.3069E+03  0.7286E+03
      4.763  0.3137E+03  0.7432E+03
      4.810  0.3134E+03  0.7578E+03
      4.857  0.3047E+03  0.7720E+03
      4.903  0.2900E+03  0.7855E+03
      4.950  0.2785E+03  0.7985E+03
      4.996  0.2812E+03  0.8116E+03
      5.043  0.2951E+03  0.8254E+03
      5.090  0.3078E+03  0.8397E+03
      5.136  0.3092E+03  0.8541E+03
      5.183  0.2976E+03  0.8680E+03
      5.229  0.2856E+03  0.8813E+03
      5.276  0.2845E+03  0.8946E+03
      5.323  0.2904E+03  0.9081E+03
      5.369  0.2973E+03  0.9220E+03
      5.416  0.3019E+03  0.9360E+03
      5.462  0.2986E+03  0.9499E+03
      5.509  0.2887E+03  0.9634E+03
      5.556  0.2867E+03  0.9768E+03
      5.602  0.3028E+03  0.9909E+03
      5.649  0.3216E+03  0.1006E+04
      5.695  0.3253E+03  0.1021E+04
      5.742  0.3203E+03  0.1036E+04
      5.789  0.3200E+03  0.1051E+04
      5.835  0.3262E+03  0.1066E+04
      5.882  0.3367E+03  0.1082E+04
      5.928  0.3502E+03  0.1098E+04
      5.975  0.3655E+03  0.1115E+04
      6.022  0.3790E+03  0.1133E+04
      6.068  0.3854E+03  0.1151E+04
      6.115  0.3874E+03  0.1169E+04
      6.161  0.3916E+03  0.1187E+04
      6.208  0.3986E+03  0.1206E+04
      6.255  0.4095E+03  0.1225E+04
      6.301  0.4272E+03  0.1245E+04
      6.348  0.4465E+03  0.1265E+04
      6.394  0.4574E+03  0.1287E+04
      6.441  0.4572E+03  0.1308E+04
      6.488  0.4532E+03  0.1329E+04
      6.534  0.4501E+03  0.1350E+04
      6.581  0.4458E+03  0.1371E+04
      6.627  0.4394E+03  0.1391E+04
      6.674  0.4320E+03  0.1411E+04
      6.721  0.4248E+03  0.1431E+04
      6.767  0.4169E+03  0.1451E+04
      6.814  0.4014E+03  0.1469E+04
      6.860  0.3766E+03  0.1487E+04
      6.907  0.3542E+03  0.1503E+04
      6.954  0.3442E+03  0.1520E+04
      7.000  0.3391E+03  0.1535E+04
      7.047  0.3275E+03  0.1551E+04
      7.093  0.3147E+03  0.1565E+04
      7.140  0.3135E+03  0.1580E+04
      7.187  0.3194E+03  0.1595E+04
      7.233  0.3133E+03  0.1609E+04
      7.280  0.2873E+03  0.1623E+04
      7.326  0.2557E+03  0.1635E+04
      7.373  0.2402E+03  0.1646E+04
      7.420  0.2488E+03  0.1657E+04
      7.466  0.2713E+03  0.1670E+04
      7.513  0.2846E+03  0.1683E+04
      7.559  0.2763E+03  0.1696E+04
      7.606  0.2584E+03  0.1708E+04
      7.653  0.2483E+03  0.1720E+04
      7.699  0.2573E+03  0.1732E+04
      7.746  0.2830E+03  0.1745E+04
      7.792  0.3055E+03  0.1759E+04
      7.839  0.3120E+03  0.1774E+04
      7.886  0.3088E+03  0.1788E+04
      7.932  0.3030E+03  0.1802E+04
      7.979  0.2959E+03  0.1816E+04
      8.025  0.2910E+03  0.1830E+04
      8.072  0.2958E+03  0.1843E+04
      8.119  0.3093E+03  0.1858E+04
      8.165  0.3171E+03  0.1873E+04
      8.212  0.3178E+03  0.1887E+04
      8.258  0.3299E+03  0.1903E+04
      8.305  0.3538E+03  0.1919E+04
      8.352  0.3623E+03  0.1936E+04
      8.398  0.3396E+03  0.1952E+04
      8.445  0.2998E+03  0.1966E+04
      8.491  0.2668E+03  0.1978E+04
      8.538  0.2557E+03  0.1990E+04
      8.585  0.2711E+03  0.2003E+04
      8.631  0.2956E+03  0.2017E+04
      8.678  0.3002E+03  0.2031E+04
      8.724  0.2839E+03  0.2044E+04
      8.771  0.2674E+03  0.2056E+04
      8.818  0.2568E+03  0.2068E+04
      8.864  0.2491E+03  0.2080E+04
      8.911  0.2452E+03  0.2091E+04
      8.957  0.2454E+03  0.2103E+04
      9.004  0.2535E+03  0.2115E+04
      9.051  0.2734E+03  0.2127E+04
      9.097  0.2839E+03  0.2141E+04
      9.144  0.2659E+03  0.2153E+04
      9.191  0.2407E+03  0.2164E+04
      9.237  0.2282E+03  0.2175E+04
      9.284  0.2199E+03  0.2185E+04
      9.330  0.2138E+03  0.2195E+04
      9.377  0.2220E+03  0.2205E+04
      9.424  0.2426E+03  0.2217E+04
      9.470  0.2624E+03  0.2229E+04
      9.517  0.2736E+03  0.2242E+04
      9.563  0.2773E+03  0.2255E+04
      9.610  0.2762E+03  0.2268E+04
      9.657  0.2709E+03  0.2280E+04
      9.703  0.2609E+03  0.2292E+04
      9.750  0.2437E+03  0.2304E+04
      9.796  0.2242E+03  0.2314E+04
      9.843  0.2196E+03  0.2324E+04
      9.890  0.2367E+03  0.2335E+04
      9.936  0.2643E+03  0.2348E+04
      9.983  0.2953E+03  0.2361E+04
     10.029  0.3275E+03  0.2377E+04
     10.076  0.3493E+03  0.2393E+04
     10.123  0.3463E+03  0.2409E+04
     10.169  0.3237E+03  0.2424E+04
     10.216  0.3101E+03  0.2439E+04
     10.262  0.3294E+03  0.2454E+04
     10.309  0.3876E+03  0.2472E+04
     10.356  0.4669E+03  0.2494E+04
     10.402  0.5187E+03  0.2518E+04
     10.449  0.5089E+03  0.2542E+04
     10.495  0.4499E+03  0.2563E+04
     10.542  0.3732E+03  0.2580E+04
     10.589  0.3014E+03  0.2594E+04
     10.635  0.2478E+03  0.2606E+04
     10.682  0.2121E+03  0.2616E+04
     10.728  0.1804E+03  0.2624E+04
     10.775  0.1414E+03  0.2631E+04
     10.822  0.9655E+02  0.2635E+04
     10.868  0.5582E+02  0.2638E+04
     10.915  0.2687E+02  0.2639E+04
     10.961  0.1021E+02  0.2639E+04
     11.008  0.2938E+01  0.2640E+04
     11.055  0.1619E+01  0.2640E+04
     11.101  0.2248E+01  0.2640E+04
     11.148  0.1967E+01  0.2640E+04
     11.194  0.7867E+00  0.2640E+04
     11.241 -0.5007E-02  0.2640E+04
     11.288 -0.1341E+00  0.2640E+04
     11.334 -0.5667E-01  0.2640E+04
     11.381 -0.1208E-01  0.2640E+04
     11.427 -0.4792E-02  0.2640E+04
     11.474 -0.2067E-01  0.2640E+04
     11.521 -0.6506E-01  0.2640E+04
     11.567 -0.4937E-01  0.2640E+04
     11.614  0.3201E+00  0.2640E+04
     11.660  0.1099E+01  0.2640E+04
     11.707  0.1538E+01  0.2640E+04
     11.754  0.1058E+01  0.2640E+04
     11.800  0.2876E+00  0.2640E+04
     11.847 -0.5596E-01  0.2640E+04
     11.893 -0.6253E-01  0.2640E+04
     11.940 -0.1897E-01  0.2640E+04
     11.987 -0.3022E-02  0.2640E+04
     12.033 -0.2831E-03  0.2640E+04
     12.080 -0.1626E-04  0.2640E+04
     12.126 -0.5842E-06  0.2640E+04
     12.173 -0.1328E-07  0.2640E+04
     12.220 -0.1921E-09  0.2640E+04
     12.266 -0.1777E-11  0.2640E+04
     12.313 -0.1042E-13  0.2640E+04
     12.359  0.0000E+00  0.2640E+04
     12.406  0.0000E+00  0.2640E+04
     12.453  0.0000E+00  0.2640E+04
     12.499  0.0000E+00  0.2640E+04
     12.546  0.0000E+00  0.2640E+04
     12.592  0.0000E+00  0.2640E+04
     12.639  0.0000E+00  0.2640E+04
     12.686  0.0000E+00  0.2640E+04
