 256 256   0   0
  0.1418917E+02  0.1588033E-08  0.1692661E-08  0.1693229E-08  0.5000000E-15
  1.000000000000000E-004
  CAR 
 Ir_Ru                                   
     14.25857102     -1.29205506  301      9.45692184      1.00000000
     -1.292  0.0000E+00  0.0000E+00
     -1.240  0.0000E+00  0.0000E+00
     -1.188  0.0000E+00  0.0000E+00
     -1.137 -0.2720E-30 -0.1410E-31
     -1.085 -0.1237E-26 -0.6415E-28
     -1.033 -0.3275E-23 -0.1698E-24
     -0.981 -0.5040E-20 -0.2614E-21
     -0.929 -0.4506E-17 -0.2339E-18
     -0.877 -0.2279E-14 -0.1184E-15
     -0.826 -0.6791E-12 -0.3532E-13
     -0.774 -0.1173E-09 -0.6115E-11
     -0.722 -0.1167E-07 -0.6109E-09
     -0.670 -0.6658E-06 -0.3512E-07
     -0.618 -0.2168E-04 -0.1159E-05
     -0.566 -0.3996E-03 -0.2187E-04
     -0.515 -0.4132E-02 -0.2361E-03
     -0.463 -0.2372E-01 -0.1466E-02
     -0.411 -0.7412E-01 -0.5308E-02
     -0.359 -0.1029E+00 -0.1064E-01
     -0.307  0.1919E+00 -0.6926E-03
     -0.255  0.1593E+01  0.8189E-01
     -0.204  0.4337E+01  0.3067E+00
     -0.152  0.6335E+01  0.6351E+00
     -0.100  0.6427E+01  0.9682E+00
     -0.048  0.6930E+01  0.1327E+01
      0.004  0.8803E+01  0.1784E+01
      0.056  0.1112E+02  0.2360E+01
      0.108  0.1355E+02  0.3062E+01
      0.159  0.1437E+02  0.3808E+01
      0.211  0.1180E+02  0.4419E+01
      0.263  0.1004E+02  0.4939E+01
      0.315  0.1407E+02  0.5669E+01
      0.367  0.2020E+02  0.6716E+01
      0.419  0.2251E+02  0.7883E+01
      0.470  0.2268E+02  0.9058E+01
      0.522  0.2348E+02  0.1028E+02
      0.574  0.2261E+02  0.1145E+02
      0.626  0.2051E+02  0.1251E+02
      0.678  0.2095E+02  0.1360E+02
      0.730  0.2049E+02  0.1466E+02
      0.781  0.1487E+02  0.1543E+02
      0.833  0.9027E+01  0.1590E+02
      0.885  0.7982E+01  0.1631E+02
      0.937  0.1151E+02  0.1691E+02
      0.989  0.1853E+02  0.1787E+02
      1.041  0.2743E+02  0.1929E+02
      1.092  0.3322E+02  0.2101E+02
      1.144  0.3325E+02  0.2274E+02
      1.196  0.2912E+02  0.2424E+02
      1.248  0.2309E+02  0.2544E+02
      1.300  0.1950E+02  0.2645E+02
      1.352  0.2142E+02  0.2756E+02
      1.403  0.2686E+02  0.2895E+02
      1.455  0.3029E+02  0.3052E+02
      1.507  0.2993E+02  0.3208E+02
      1.559  0.2929E+02  0.3359E+02
      1.611  0.3026E+02  0.3516E+02
      1.663  0.3108E+02  0.3677E+02
      1.714  0.3194E+02  0.3843E+02
      1.766  0.3475E+02  0.4023E+02
      1.818  0.3872E+02  0.4224E+02
      1.870  0.4489E+02  0.4456E+02
      1.922  0.5405E+02  0.4737E+02
      1.974  0.5936E+02  0.5044E+02
      2.025  0.5531E+02  0.5331E+02
      2.077  0.5048E+02  0.5593E+02
      2.129  0.6014E+02  0.5904E+02
      2.181  0.8490E+02  0.6344E+02
      2.233  0.1075E+03  0.6902E+02
      2.285  0.1191E+03  0.7519E+02
      2.336  0.1253E+03  0.8169E+02
      2.388  0.1310E+03  0.8848E+02
      2.440  0.1369E+03  0.9558E+02
      2.492  0.1460E+03  0.1031E+03
      2.544  0.1626E+03  0.1116E+03
      2.596  0.1813E+03  0.1210E+03
      2.647  0.1939E+03  0.1310E+03
      2.699  0.2054E+03  0.1417E+03
      2.751  0.2225E+03  0.1532E+03
      2.803  0.2311E+03  0.1652E+03
      2.855  0.2252E+03  0.1769E+03
      2.907  0.2266E+03  0.1886E+03
      2.958  0.2435E+03  0.2012E+03
      3.010  0.2574E+03  0.2146E+03
      3.062  0.2601E+03  0.2281E+03
      3.114  0.2603E+03  0.2415E+03
      3.166  0.2632E+03  0.2552E+03
      3.218  0.2716E+03  0.2693E+03
      3.269  0.2861E+03  0.2841E+03
      3.321  0.3052E+03  0.2999E+03
      3.373  0.3229E+03  0.3167E+03
      3.425  0.3306E+03  0.3338E+03
      3.477  0.3284E+03  0.3508E+03
      3.529  0.3220E+03  0.3675E+03
      3.580  0.3183E+03  0.3840E+03
      3.632  0.3168E+03  0.4004E+03
      3.684  0.3117E+03  0.4166E+03
      3.736  0.3056E+03  0.4324E+03
      3.788  0.3015E+03  0.4481E+03
      3.840  0.2973E+03  0.4635E+03
      3.891  0.2935E+03  0.4787E+03
      3.943  0.2894E+03  0.4937E+03
      3.995  0.2779E+03  0.5081E+03
      4.047  0.2669E+03  0.5219E+03
      4.099  0.2738E+03  0.5361E+03
      4.151  0.2923E+03  0.5513E+03
      4.202  0.3024E+03  0.5669E+03
      4.254  0.3048E+03  0.5827E+03
      4.306  0.3112E+03  0.5989E+03
      4.358  0.3181E+03  0.6153E+03
      4.410  0.3208E+03  0.6320E+03
      4.462  0.3233E+03  0.6487E+03
      4.514  0.3218E+03  0.6654E+03
      4.565  0.3114E+03  0.6816E+03
      4.617  0.2985E+03  0.6970E+03
      4.669  0.2934E+03  0.7122E+03
      4.721  0.2973E+03  0.7276E+03
      4.773  0.3046E+03  0.7434E+03
      4.825  0.3158E+03  0.7598E+03
      4.876  0.3299E+03  0.7769E+03
      4.928  0.3372E+03  0.7944E+03
      4.980  0.3436E+03  0.8122E+03
      5.032  0.3565E+03  0.8307E+03
      5.084  0.3652E+03  0.8496E+03
      5.136  0.3649E+03  0.8685E+03
      5.187  0.3569E+03  0.8870E+03
      5.239  0.3383E+03  0.9046E+03
      5.291  0.3076E+03  0.9205E+03
      5.343  0.2676E+03  0.9344E+03
      5.395  0.2241E+03  0.9460E+03
      5.447  0.1882E+03  0.9557E+03
      5.498  0.1725E+03  0.9647E+03
      5.550  0.1851E+03  0.9743E+03
      5.602  0.2210E+03  0.9857E+03
      5.654  0.2684E+03  0.9996E+03
      5.706  0.3187E+03  0.1016E+04
      5.758  0.3624E+03  0.1035E+04
      5.809  0.3920E+03  0.1055E+04
      5.861  0.4088E+03  0.1076E+04
      5.913  0.4183E+03  0.1098E+04
      5.965  0.4248E+03  0.1120E+04
      6.017  0.4283E+03  0.1142E+04
      6.069  0.4193E+03  0.1164E+04
      6.120  0.3959E+03  0.1185E+04
      6.172  0.3743E+03  0.1204E+04
      6.224  0.3625E+03  0.1223E+04
      6.276  0.3562E+03  0.1241E+04
      6.328  0.3556E+03  0.1260E+04
      6.380  0.3667E+03  0.1279E+04
      6.431  0.3807E+03  0.1298E+04
      6.483  0.3840E+03  0.1318E+04
      6.535  0.3891E+03  0.1339E+04
      6.587  0.4065E+03  0.1360E+04
      6.639  0.4223E+03  0.1381E+04
      6.691  0.4279E+03  0.1404E+04
      6.742  0.4262E+03  0.1426E+04
      6.794  0.4160E+03  0.1447E+04
      6.846  0.3961E+03  0.1468E+04
      6.898  0.3759E+03  0.1487E+04
      6.950  0.3672E+03  0.1506E+04
      7.002  0.3642E+03  0.1525E+04
      7.053  0.3660E+03  0.1544E+04
      7.105  0.3862E+03  0.1564E+04
      7.157  0.4117E+03  0.1586E+04
      7.209  0.4217E+03  0.1607E+04
      7.261  0.4227E+03  0.1629E+04
      7.313  0.4163E+03  0.1651E+04
      7.364  0.3936E+03  0.1671E+04
      7.416  0.3637E+03  0.1690E+04
      7.468  0.3427E+03  0.1708E+04
      7.520  0.3334E+03  0.1725E+04
      7.572  0.3297E+03  0.1742E+04
      7.624  0.3202E+03  0.1759E+04
      7.675  0.3000E+03  0.1774E+04
      7.727  0.2803E+03  0.1789E+04
      7.779  0.2699E+03  0.1803E+04
      7.831  0.2645E+03  0.1817E+04
      7.883  0.2589E+03  0.1830E+04
      7.935  0.2502E+03  0.1843E+04
      7.986  0.2432E+03  0.1856E+04
      8.038  0.2431E+03  0.1868E+04
      8.090  0.2406E+03  0.1881E+04
      8.142  0.2327E+03  0.1893E+04
      8.194  0.2288E+03  0.1905E+04
      8.246  0.2323E+03  0.1917E+04
      8.297  0.2372E+03  0.1929E+04
      8.349  0.2390E+03  0.1941E+04
      8.401  0.2378E+03  0.1954E+04
      8.453  0.2309E+03  0.1966E+04
      8.505  0.2204E+03  0.1977E+04
      8.557  0.2131E+03  0.1988E+04
      8.609  0.2083E+03  0.1999E+04
      8.660  0.2015E+03  0.2009E+04
      8.712  0.1932E+03  0.2019E+04
      8.764  0.1848E+03  0.2029E+04
      8.816  0.1795E+03  0.2038E+04
      8.868  0.1848E+03  0.2048E+04
      8.920  0.2068E+03  0.2059E+04
      8.971  0.2321E+03  0.2071E+04
      9.023  0.2379E+03  0.2083E+04
      9.075  0.2268E+03  0.2095E+04
      9.127  0.2106E+03  0.2106E+04
      9.179  0.1912E+03  0.2116E+04
      9.231  0.1787E+03  0.2125E+04
      9.282  0.1911E+03  0.2135E+04
      9.334  0.2220E+03  0.2146E+04
      9.386  0.2416E+03  0.2159E+04
      9.438  0.2430E+03  0.2171E+04
      9.490  0.2442E+03  0.2184E+04
      9.542  0.2451E+03  0.2197E+04
      9.593  0.2443E+03  0.2209E+04
      9.645  0.2653E+03  0.2223E+04
      9.697  0.3084E+03  0.2239E+04
      9.749  0.3345E+03  0.2256E+04
      9.801  0.3295E+03  0.2274E+04
      9.853  0.3181E+03  0.2290E+04
      9.904  0.3150E+03  0.2306E+04
      9.956  0.3192E+03  0.2323E+04
     10.008  0.3363E+03  0.2340E+04
     10.060  0.3705E+03  0.2360E+04
     10.112  0.4065E+03  0.2381E+04
     10.164  0.4260E+03  0.2403E+04
     10.215  0.4341E+03  0.2425E+04
     10.267  0.4449E+03  0.2448E+04
     10.319  0.4620E+03  0.2472E+04
     10.371  0.4807E+03  0.2497E+04
     10.423  0.4932E+03  0.2523E+04
     10.475  0.4906E+03  0.2548E+04
     10.526  0.4612E+03  0.2572E+04
     10.578  0.4062E+03  0.2593E+04
     10.630  0.3412E+03  0.2611E+04
     10.682  0.2649E+03  0.2625E+04
     10.734  0.1685E+03  0.2633E+04
     10.786  0.7230E+02  0.2637E+04
     10.837  0.1255E+02  0.2638E+04
     10.889 -0.4433E+01  0.2637E+04
     10.941 -0.2904E+01  0.2637E+04
     10.993 -0.7093E+00  0.2637E+04
     11.045 -0.1736E+00  0.2637E+04
     11.097 -0.5507E-01  0.2637E+04
     11.148 -0.1154E-01  0.2637E+04
     11.200 -0.1311E-02  0.2637E+04
     11.252 -0.8139E-04  0.2637E+04
     11.304 -0.2823E-05  0.2637E+04
     11.356 -0.5551E-07  0.2637E+04
     11.408 -0.6244E-09  0.2637E+04
     11.459 -0.1274E-10  0.2637E+04
     11.511 -0.1287E-08  0.2637E+04
     11.563 -0.1101E-06  0.2637E+04
     11.615 -0.5423E-05  0.2637E+04
     11.667 -0.1526E-03  0.2637E+04
     11.719 -0.2412E-02  0.2637E+04
     11.770 -0.2062E-01  0.2637E+04
     11.822 -0.8541E-01  0.2637E+04
     11.874 -0.8860E-01  0.2637E+04
     11.926  0.4985E+00  0.2637E+04
     11.978  0.1843E+01  0.2637E+04
     12.030  0.2538E+01  0.2637E+04
     12.081  0.1774E+01  0.2638E+04
     12.133  0.9317E+00  0.2638E+04
     12.185  0.7307E+00  0.2638E+04
     12.237  0.1180E+01  0.2638E+04
     12.289  0.2235E+01  0.2638E+04
     12.341  0.2768E+01  0.2638E+04
     12.392  0.2766E+01  0.2638E+04
     12.444  0.2793E+01  0.2638E+04
     12.496  0.2224E+01  0.2638E+04
     12.548  0.1688E+01  0.2638E+04
     12.600  0.2192E+01  0.2639E+04
     12.652  0.3431E+01  0.2639E+04
     12.704  0.4483E+01  0.2639E+04
     12.755  0.3921E+01  0.2639E+04
     12.807  0.2449E+01  0.2639E+04
     12.859  0.2191E+01  0.2639E+04
     12.911  0.2492E+01  0.2640E+04
     12.963  0.1899E+01  0.2640E+04
     13.015  0.1134E+01  0.2640E+04
     13.066  0.8242E+00  0.2640E+04
     13.118  0.6874E+00  0.2640E+04
     13.170  0.8915E+00  0.2640E+04
     13.222  0.1258E+01  0.2640E+04
     13.274  0.1218E+01  0.2640E+04
     13.326  0.6898E+00  0.2640E+04
     13.377  0.1428E+00  0.2640E+04
     13.429 -0.4949E-01  0.2640E+04
     13.481 -0.3318E-01  0.2640E+04
     13.533 -0.7105E-02  0.2640E+04
     13.585 -0.7448E-03  0.2640E+04
     13.637 -0.4187E-04  0.2640E+04
     13.688 -0.1308E-05  0.2640E+04
     13.740 -0.2312E-07  0.2640E+04
     13.792 -0.2334E-09  0.2640E+04
     13.844 -0.1355E-11  0.2640E+04
     13.896 -0.4760E-14  0.2640E+04
     13.948  0.0000E+00  0.2640E+04
     13.999  0.0000E+00  0.2640E+04
     14.051  0.0000E+00  0.2640E+04
     14.103  0.0000E+00  0.2640E+04
     14.155  0.0000E+00  0.2640E+04
     14.207  0.0000E+00  0.2640E+04
     14.259  0.0000E+00  0.2640E+04
