       N       E                     dE             d eps       ncg     rms          rms(c)
RMM:   1     0.136790236824E+05    0.13679E+05   -0.47218E+05 25080   0.725E+02
RMM:   2     0.131335733351E+04   -0.12366E+05   -0.13120E+05 25080   0.260E+02
RMM:   3    -0.104570422322E+04   -0.23591E+04   -0.22855E+04 25080   0.111E+02
RMM:   4    -0.184600917827E+04   -0.80030E+03   -0.57406E+03 25080   0.768E+01
RMM:   5    -0.212912601204E+04   -0.28312E+03   -0.24896E+03 25080   0.451E+01
RMM:   6    -0.227484118684E+04   -0.14572E+03   -0.12952E+03 25080   0.349E+01
RMM:   7    -0.235270384928E+04   -0.77863E+02   -0.73852E+02 25080   0.235E+01
RMM:   8    -0.240020032492E+04   -0.47496E+02   -0.44555E+02 25080   0.195E+01
RMM:   9    -0.247908420468E+04   -0.78884E+02   -0.77964E+02 71859   0.137E+01
RMM:  10    -0.248864164089E+04   -0.95574E+01   -0.11977E+02 79661   0.283E+00
RMM:  11    -0.249088266334E+04   -0.22410E+01   -0.17848E+01 77272   0.686E-01
RMM:  12    -0.249118879058E+04   -0.30613E+00   -0.19809E+00 79549   0.198E-01    0.782E+01
RMM:  13    -0.241366100867E+04    0.77528E+02   -0.68486E+02 57171   0.246E+01    0.583E+01
RMM:  14    -0.236777121013E+04    0.45890E+02   -0.34116E+02 51434   0.174E+01    0.416E+01
RMM:  15    -0.233562609618E+04    0.32145E+02   -0.11853E+02 53322   0.101E+01    0.255E+01
RMM:  16    -0.232130747464E+04    0.14319E+02   -0.25854E+01 56008   0.435E+00    0.433E+00
RMM:  17    -0.232143249068E+04   -0.12502E+00   -0.64255E+00 73473   0.132E+00    0.415E+00
RMM:  18    -0.232109522989E+04    0.33726E+00   -0.11757E+00 64010   0.726E-01    0.337E+00
RMM:  19    -0.232075182805E+04    0.34340E+00   -0.59389E-01 60616   0.672E-01    0.171E+00
RMM:  20    -0.232069936177E+04    0.52466E-01   -0.23529E-01 63623   0.346E-01    0.157E+00
RMM:  21    -0.232065696394E+04    0.42398E-01   -0.11466E-01 62387   0.243E-01    0.120E+00
RMM:  22    -0.232063262521E+04    0.24339E-01   -0.48218E-02 60913   0.162E-01    0.704E-01
RMM:  23    -0.232062762951E+04    0.49957E-02   -0.13337E-02 67103   0.678E-02    0.491E-01
RMM:  24    -0.232062400980E+04    0.36197E-02   -0.10606E-02 62422   0.768E-02    0.244E-01
RMM:  25    -0.232062507616E+04   -0.10664E-02   -0.13309E-02 66248   0.795E-02    0.264E-01
RMM:  26    -0.232062517741E+04   -0.10125E-03   -0.31863E-03 75269   0.279E-02    0.270E-01
RMM:  27    -0.232062422260E+04    0.95481E-03   -0.73356E-04 59947   0.210E-02    0.177E-01
RMM:  28    -0.232062364492E+04    0.57768E-03   -0.11807E-03 63892   0.250E-02    0.701E-02
RMM:  29    -0.232062356549E+04    0.79437E-04   -0.55420E-04 71580   0.144E-02
   1 F= -.23206236E+04 E0= -.23206235E+04  d E =-.649950E-04
