<?xml version="1.0" encoding="ISO-8859-1"?>
<modeling>
 <generator>
  <i name="program" type="string">vasp </i>
  <i name="version" type="string">5.4.1  </i>
  <i name="subversion" type="string">24Jun15 (build Feb 03 2017 16:24:58) complex                          parallel </i>
  <i name="platform" type="string">IFC91_ompi </i>
  <i name="date" type="string">2018 07 14 </i>
  <i name="time" type="string">22:49:52 </i>
 </generator>
 <incar>
  <i type="string" name="SYSTEM"> Ir_Ru</i>
  <i type="int" name="ISTART">     0</i>
  <i type="string" name="PREC">accurate</i>
  <i type="string" name="ALGO"> Very_Fast</i>
  <i type="int" name="ICHARG">     2</i>
  <i type="int" name="NELMIN">     5</i>
  <i type="int" name="IBRION">    -1</i>
  <i name="EDIFFG">      0.00001000</i>
  <i type="int" name="ISIF">     2</i>
  <i type="string" name="LREAL"> AUTO</i>
  <i type="int" name="ISMEAR">     1</i>
  <i name="SIGMA">      0.10000000</i>
  <v type="int" name="KPOINT_BSE">    -1     0     0     0</v>
 </incar>
 <kpoints>
  <generation param="Gamma">
   <v type="int" name="divisions">       4        3        3 </v>
   <v name="usershift">      0.00000000       0.00000000       0.00000000 </v>
   <v name="genvec1">      0.25000000      -0.00000000      -0.00000000 </v>
   <v name="genvec2">      0.00000000       0.33333333       0.00000000 </v>
   <v name="genvec3">     -0.00000000      -0.00000000       0.33333333 </v>
   <v name="shift">      0.00000000       0.00000000       0.00000000 </v>
  </generation>
  <varray name="kpointlist" >
   <v>       0.00000000       0.00000000       0.00000000 </v>
   <v>       0.25000000       0.00000000      -0.00000000 </v>
   <v>       0.50000000       0.00000000      -0.00000000 </v>
   <v>       0.00000000       0.33333333       0.00000000 </v>
   <v>       0.25000000       0.33333333       0.00000000 </v>
   <v>       0.50000000       0.33333333       0.00000000 </v>
   <v>      -0.25000000       0.33333333       0.00000000 </v>
   <v>       0.00000000      -0.00000000       0.33333333 </v>
   <v>       0.25000000      -0.00000000       0.33333333 </v>
   <v>       0.50000000       0.00000000       0.33333333 </v>
   <v>      -0.25000000       0.00000000       0.33333333 </v>
   <v>       0.00000000       0.33333333       0.33333333 </v>
   <v>       0.25000000       0.33333333       0.33333333 </v>
   <v>       0.50000000       0.33333333       0.33333333 </v>
   <v>      -0.25000000       0.33333333       0.33333333 </v>
   <v>       0.00000000      -0.33333333       0.33333333 </v>
   <v>       0.25000000      -0.33333333       0.33333333 </v>
   <v>       0.50000000      -0.33333333       0.33333333 </v>
   <v>      -0.25000000      -0.33333333       0.33333333 </v>
  </varray>
  <varray name="weights" >
   <v>       0.02777778 </v>
   <v>       0.05555556 </v>
   <v>       0.02777778 </v>
   <v>       0.05555556 </v>
   <v>       0.05555556 </v>
   <v>       0.05555556 </v>
   <v>       0.05555556 </v>
   <v>       0.05555556 </v>
   <v>       0.05555556 </v>
   <v>       0.05555556 </v>
   <v>       0.05555556 </v>
   <v>       0.05555556 </v>
   <v>       0.05555556 </v>
   <v>       0.05555556 </v>
   <v>       0.05555556 </v>
   <v>       0.05555556 </v>
   <v>       0.05555556 </v>
   <v>       0.05555556 </v>
   <v>       0.05555556 </v>
  </varray>
 </kpoints>
 <parameters>
  <separator name="general" >
   <i type="string" name="SYSTEM">Ir_Ru</i>
   <i type="logical" name="LCOMPAT"> F  </i>
  </separator>
  <separator name="electronic" >
   <i type="string" name="PREC">accura</i>
   <i name="ENMAX">    213.27600000</i>
   <i name="ENAUG">    333.49400000</i>
   <i name="EDIFF">      0.00010000</i>
   <i type="int" name="IALGO">    48</i>
   <i type="int" name="IWAVPR">    10</i>
   <i type="int" name="NBANDS">  1320</i>
   <i name="NELECT">   2176.00000000</i>
   <i type="int" name="TURBO">     0</i>
   <i type="int" name="IRESTART">     0</i>
   <i type="int" name="NREBOOT">     0</i>
   <i type="int" name="NMIN">     0</i>
   <i name="EREF">      0.00000000</i>
   <separator name="electronic smearing" >
    <i type="int" name="ISMEAR">     1</i>
    <i name="SIGMA">      0.10000000</i>
    <i name="KSPACING">      0.50000000</i>
    <i type="logical" name="KGAMMA"> T  </i>
   </separator>
   <separator name="electronic projectors" >
    <i type="logical" name="LREAL"> T  </i>
    <v name="ROPT">     -0.00025000     -0.00025000</v>
    <i type="int" name="LMAXPAW">  -100</i>
    <i type="int" name="LMAXMIX">     2</i>
    <i type="logical" name="NLSPLINE"> F  </i>
   </separator>
   <separator name="electronic startup" >
    <i type="int" name="ISTART">     0</i>
    <i type="int" name="ICHARG">     2</i>
    <i type="int" name="INIWAV">     1</i>
   </separator>
   <separator name="electronic spin" >
    <i type="int" name="ISPIN">     1</i>
    <i type="logical" name="LNONCOLLINEAR"> F  </i>
    <v name="MAGMOM">      1.00000000      1.00000000      1.00000000      1.00000000      1.00000000      1.00000000      1.00000000      1.00000000      1.00000000      1.00000000      1.00000000      1.00000000      1.00000000      1.00000000      1.00000000      1.00000000      1.00000000      1.00000000      1.00000000      1.00000000
      1.00000000      1.00000000      1.00000000      1.00000000      1.00000000      1.00000000      1.00000000      1.00000000      1.00000000      1.00000000      1.00000000      1.00000000      1.00000000      1.00000000      1.00000000      1.00000000      1.00000000      1.00000000      1.00000000      1.00000000
      1.00000000      1.00000000      1.00000000      1.00000000      1.00000000      1.00000000      1.00000000      1.00000000      1.00000000      1.00000000      1.00000000      1.00000000      1.00000000      1.00000000      1.00000000      1.00000000      1.00000000      1.00000000      1.00000000      1.00000000
      1.00000000      1.00000000      1.00000000      1.00000000      1.00000000      1.00000000      1.00000000      1.00000000      1.00000000      1.00000000      1.00000000      1.00000000      1.00000000      1.00000000      1.00000000      1.00000000      1.00000000      1.00000000      1.00000000      1.00000000
      1.00000000      1.00000000      1.00000000      1.00000000      1.00000000      1.00000000      1.00000000      1.00000000      1.00000000      1.00000000      1.00000000      1.00000000      1.00000000      1.00000000      1.00000000      1.00000000      1.00000000      1.00000000      1.00000000      1.00000000
      1.00000000      1.00000000      1.00000000      1.00000000      1.00000000      1.00000000      1.00000000      1.00000000      1.00000000      1.00000000      1.00000000      1.00000000      1.00000000      1.00000000      1.00000000      1.00000000      1.00000000      1.00000000      1.00000000      1.00000000
      1.00000000      1.00000000      1.00000000      1.00000000      1.00000000      1.00000000      1.00000000      1.00000000      1.00000000      1.00000000      1.00000000      1.00000000      1.00000000      1.00000000      1.00000000      1.00000000      1.00000000      1.00000000      1.00000000      1.00000000
      1.00000000      1.00000000      1.00000000      1.00000000      1.00000000      1.00000000      1.00000000      1.00000000      1.00000000      1.00000000      1.00000000      1.00000000      1.00000000      1.00000000      1.00000000      1.00000000      1.00000000      1.00000000      1.00000000      1.00000000
      1.00000000      1.00000000      1.00000000      1.00000000      1.00000000      1.00000000      1.00000000      1.00000000      1.00000000      1.00000000      1.00000000      1.00000000      1.00000000      1.00000000      1.00000000      1.00000000      1.00000000      1.00000000      1.00000000      1.00000000
      1.00000000      1.00000000      1.00000000      1.00000000      1.00000000      1.00000000      1.00000000      1.00000000      1.00000000      1.00000000      1.00000000      1.00000000      1.00000000      1.00000000      1.00000000      1.00000000      1.00000000      1.00000000      1.00000000      1.00000000
      1.00000000      1.00000000      1.00000000      1.00000000      1.00000000      1.00000000      1.00000000      1.00000000      1.00000000      1.00000000      1.00000000      1.00000000      1.00000000      1.00000000      1.00000000      1.00000000      1.00000000      1.00000000      1.00000000      1.00000000
      1.00000000      1.00000000      1.00000000      1.00000000      1.00000000      1.00000000      1.00000000      1.00000000      1.00000000      1.00000000      1.00000000      1.00000000      1.00000000      1.00000000      1.00000000      1.00000000      1.00000000      1.00000000      1.00000000      1.00000000
      1.00000000      1.00000000      1.00000000      1.00000000      1.00000000      1.00000000      1.00000000      1.00000000      1.00000000      1.00000000      1.00000000      1.00000000      1.00000000      1.00000000      1.00000000      1.00000000</v>
    <i name="NUPDOWN">     -1.00000000</i>
    <i type="logical" name="LSORBIT"> F  </i>
    <v name="SAXIS">      0.00000000      0.00000000      1.00000000</v>
    <i type="logical" name="LSPIRAL"> F  </i>
    <v name="QSPIRAL">      0.00000000      0.00000000      0.00000000</v>
    <i type="logical" name="LZEROZ"> F  </i>
   </separator>
   <separator name="electronic exchange-correlation" >
    <i type="logical" name="LASPH"> F  </i>
    <i type="logical" name="LMETAGGA"> F  </i>
   </separator>
   <separator name="electronic convergence" >
    <i type="int" name="NELM">    60</i>
    <i type="int" name="NELMDL">   -12</i>
    <i type="int" name="NELMIN">     5</i>
    <i name="ENINI">    213.27600000</i>
    <separator name="electronic convergence detail" >
     <i type="logical" name="LDIAG"> T  </i>
     <i type="logical" name="LSUBROT"> F  </i>
     <i name="WEIMIN">      0.00000000</i>
     <i name="EBREAK">      0.00000000</i>
     <i name="DEPER">      0.30000000</i>
     <i type="int" name="NRMM">     4</i>
     <i name="TIME">      0.40000000</i>
    </separator>
   </separator>
   <separator name="electronic mixer" >
    <i name="AMIX">      0.40000000</i>
    <i name="BMIX">      1.00000000</i>
    <i name="AMIN">      0.10000000</i>
    <i name="AMIX_MAG">      1.60000000</i>
    <i name="BMIX_MAG">      1.00000000</i>
    <separator name="electronic mixer details" >
     <i type="int" name="IMIX">     4</i>
     <i type="logical" name="MIXFIRST"> F  </i>
     <i type="int" name="MAXMIX">   -45</i>
     <i name="WC">    100.00000000</i>
     <i type="int" name="INIMIX">     1</i>
     <i type="int" name="MIXPRE">     1</i>
     <i type="int" name="MREMOVE">     5</i>
    </separator>
   </separator>
   <separator name="electronic dipolcorrection" >
    <i type="logical" name="LDIPOL"> F  </i>
    <i type="logical" name="LMONO"> F  </i>
    <i type="int" name="IDIPOL">     0</i>
    <i name="EPSILON">      1.00000000</i>
    <v name="DIPOL">   -100.00000000   -100.00000000   -100.00000000</v>
    <i name="EFIELD">      0.00000000</i>
   </separator>
  </separator>
  <separator name="grids" >
   <i type="int" name="NGX">    80</i>
   <i type="int" name="NGY">    84</i>
   <i type="int" name="NGZ">    84</i>
   <i type="int" name="NGXF">   160</i>
   <i type="int" name="NGYF">   168</i>
   <i type="int" name="NGZF">   168</i>
   <i type="logical" name="ADDGRID"> F  </i>
  </separator>
  <separator name="ionic" >
   <i type="int" name="NSW">     0</i>
   <i type="int" name="IBRION">    -1</i>
   <i type="int" name="ISIF">     2</i>
   <i name="PSTRESS">      0.00000000</i>
   <i name="EDIFFG">      0.00001000</i>
   <i type="int" name="NFREE">     0</i>
   <i name="POTIM">      0.50000000</i>
   <i name="SMASS">     -3.00000000</i>
   <i name="SCALEE">      1.00000000</i>
  </separator>
  <separator name="ionic md" >
   <i name="TEBEG">      0.00010000</i>
   <i name="TEEND">      0.00010000</i>
   <i type="int" name="NBLOCK">     1</i>
   <i type="int" name="KBLOCK">     1</i>
   <i type="int" name="NPACO">   256</i>
   <i name="APACO">     16.00000000</i>
  </separator>
  <separator name="symmetry" >
   <i type="int" name="ISYM">     2</i>
   <i name="SYMPREC">      0.00001000</i>
  </separator>
  <separator name="dos" >
   <i type="logical" name="LORBIT"> F  </i>
   <v name="RWIGS">     -1.00000000     -1.00000000</v>
   <i type="int" name="NEDOS">   301</i>
   <i name="EMIN">     10.00000000</i>
   <i name="EMAX">    -10.00000000</i>
   <i name="EFERMI">      0.00000000</i>
  </separator>
  <separator name="writing" >
   <i type="int" name="NWRITE">     2</i>
   <i type="logical" name="LWAVE"> T  </i>
   <i type="logical" name="LCHARG"> T  </i>
   <i type="logical" name="LPARD"> F  </i>
   <i type="logical" name="LVTOT"> F  </i>
   <i type="logical" name="LVHAR"> F  </i>
   <i type="logical" name="LELF"> F  </i>
   <i type="logical" name="LOPTICS"> F  </i>
   <v name="STM">      0.00000000      0.00000000      0.00000000      0.00000000      0.00000000      0.00000000      0.00000000</v>
  </separator>
  <separator name="performance" >
   <i type="int" name="NPAR">    20</i>
   <i type="int" name="NSIM">     4</i>
   <i type="int" name="NBLK">    -1</i>
   <i type="logical" name="LPLANE"> T  </i>
   <i type="logical" name="LSCALAPACK"> T  </i>
   <i type="logical" name="LSCAAWARE"> F  </i>
   <i type="logical" name="LSCALU"> F  </i>
   <i type="logical" name="LASYNC"> F  </i>
   <i type="logical" name="LORBITALREAL"> F  </i>
  </separator>
  <separator name="miscellaneous" >
   <i type="int" name="IDIOT">     3</i>
   <i type="logical" name="LMUSIC"> F  </i>
   <v name="POMASS">    192.22000000    101.07000000</v>
   <v name="DARWINR">      0.00000000      0.00000000</v>
   <v name="DARWINV">      1.00000000      1.00000000</v>
   <i type="logical" name="LCORR"> T  </i>
  </separator>
  <i type="logical" name="GGA_COMPAT"> T  </i>
  <i type="logical" name="LBERRY"> F  </i>
  <i type="int" name="ICORELEVEL">     0</i>
  <i type="logical" name="LDAU"> F  </i>
  <i type="int" name="I_CONSTRAINED_M">     0</i>
  <separator name="electronic exchange-correlation" >
   <i type="string" name="GGA">--</i>
   <i type="int" name="VOSKOWN">     0</i>
   <i type="logical" name="LHFCALC"> F  </i>
   <i type="string" name="PRECFOCK"></i>
   <i type="logical" name="LSYMGRAD"> F  </i>
   <i type="logical" name="LHFONE"> F  </i>
   <i type="logical" name="LRHFCALC"> F  </i>
   <i type="logical" name="LTHOMAS"> F  </i>
   <i type="logical" name="LMODELHF"> F  </i>
   <i name="ENCUT4O">     -1.00000000</i>
   <i type="int" name="EXXOEP">     0</i>
   <i type="int" name="FOURORBIT">     0</i>
   <i name="AEXX">      0.00000000</i>
   <i name="HFALPHA">      0.00000000</i>
   <i name="MCALPHA">      0.00000000</i>
   <i name="ALDAX">      1.00000000</i>
   <i name="AGGAX">      1.00000000</i>
   <i name="ALDAC">      1.00000000</i>
   <i name="AGGAC">      1.00000000</i>
   <i type="int" name="NKREDX">     1</i>
   <i type="int" name="NKREDY">     1</i>
   <i type="int" name="NKREDZ">     1</i>
   <i type="logical" name="SHIFTRED"> F  </i>
   <i type="logical" name="ODDONLY"> F  </i>
   <i type="logical" name="EVENONLY"> F  </i>
   <i type="int" name="LMAXFOCK">     0</i>
   <i type="int" name="NMAXFOCKAE">     0</i>
   <i type="logical" name="LFOCKAEDFT"> F  </i>
   <i name="HFSCREEN">      0.00000000</i>
   <i name="HFSCREENC">      0.00000000</i>
   <i type="int" name="NBANDSGWLOW">     0</i>
  </separator>
  <separator name="vdW DFT" >
   <i type="logical" name="LUSE_VDW"> F  </i>
   <i name="Zab_VDW">     -0.84910000</i>
   <i name="PARAM1">      0.12340000</i>
   <i name="PARAM2">      1.00000000</i>
   <i name="PARAM3">      0.00000000</i>
  </separator>
  <separator name="model GW" >
   <i type="int" name="MODEL_GW">     0</i>
   <i name="MODEL_EPS0">      8.51350379</i>
   <i name="MODEL_ALPHA">      1.00000000</i>
  </separator>
  <separator name="linear response parameters" >
   <i type="logical" name="LEPSILON"> F  </i>
   <i type="logical" name="LRPA"> F  </i>
   <i type="logical" name="LNABLA"> F  </i>
   <i type="logical" name="LVEL"> F  </i>
   <i type="int" name="KINTER">     0</i>
   <i name="CSHIFT">      0.10000000</i>
   <i name="OMEGAMAX">     -1.00000000</i>
   <i name="DEG_THRESHOLD">      0.00200000</i>
  </separator>
  <separator name="orbital magnetization" >
   <i type="logical" name="NUCIND"> F  </i>
   <v name="MAGPOS">      0.00000000      0.00000000      0.00000000</v>
   <i type="logical" name="LNICSALL"> T  </i>
   <i type="logical" name="ORBITALMAG"> F  </i>
   <i type="logical" name="LMAGBLOCH"> F  </i>
   <i type="logical" name="LCHIMAG"> F  </i>
   <i type="logical" name="LGAUGE"> T  </i>
   <i type="int" name="MAGATOM">     0</i>
   <v name="MAGDIPOL">      0.00000000      0.00000000      0.00000000</v>
   <v name="AVECCONST">      0.00000000      0.00000000      0.00000000</v>
  </separator>
  <separator name="response functions" >
   <i type="logical" name="LADDER"> F  </i>
   <i type="logical" name="LFXC"> F  </i>
   <i type="logical" name="LHARTREE"> T  </i>
   <i type="int" name="IBSE">     0</i>
   <v type="int" name="KPOINT">    -1     0     0     0</v>
   <i type="logical" name="LTCTE"> F  </i>
   <i type="logical" name="LTETE"> F  </i>
   <i type="logical" name="LTRIPLET"> F  </i>
   <i type="logical" name="LFXCEPS"> F  </i>
   <i type="logical" name="LFXHEG"> F  </i>
   <i type="int" name="NATURALO">     0</i>
   <i type="logical" name="L2ORDER"> F  </i>
   <i type="logical" name="LUSEW"> F  </i>
   <i name="ENCUTGW">     -2.00000000</i>
   <i name="ENCUTGWSOFT">     -2.00000000</i>
   <i name="ENCUTLF">     -1.00000000</i>
   <i type="int" name="LMAXMP2">    -1</i>
   <i name="SCISSOR">      0.00000000</i>
   <i type="int" name="NOMEGA">     0</i>
   <i type="int" name="NOMEGAR">     0</i>
   <i type="int" name="NBANDSGW">    -1</i>
   <i type="int" name="NBANDSO">    -1</i>
   <i type="int" name="NBANDSV">    -1</i>
   <i type="int" name="NELM">     1</i>
   <i type="int" name="NELMHF">     1</i>
   <i type="int" name="DIM">     3</i>
   <i type="int" name="ANTIRES">     0</i>
   <i name="OMEGAMAX">    -30.00000000</i>
   <i name="OMEGAMIN">    -30.00000000</i>
   <i name="OMEGATL">   -200.00000000</i>
   <i type="int" name="OMEGAGRID">     0</i>
   <i name="CSHIFT">     -0.10000000</i>
   <i type="logical" name="SELFENERGY"> F  </i>
   <i type="logical" name="LSPECTRAL"> F  </i>
   <i type="logical" name="LSPECTRALGW"> F  </i>
   <i type="logical" name="LSINGLES"> F  </i>
   <i type="logical" name="LFERMIGW"> F  </i>
   <i type="logical" name="ODDONLYGW"> F  </i>
   <i type="logical" name="EVENONLYGW"> F  </i>
   <i type="int" name="NKREDLFX">     1</i>
   <i type="int" name="NKREDLFY">     1</i>
   <i type="int" name="NKREDLFZ">     1</i>
   <i type="int" name="MAXMEM">  1800</i>
   <i type="int" name="TELESCOPE">     0</i>
   <i type="int" name="TAUPAR">     1</i>
   <i type="int" name="OMEGAPAR">    -1</i>
   <i name="LAMBDA">      1.00000000</i>
  </separator>
  <separator name="External order field" >
   <i name="OFIELD_KAPPA">      0.00000000</i>
   <v name="OFIELD_K">      0.00000000      0.00000000      0.00000000</v>
   <i name="OFIELD_Q6_NEAR">      0.00000000</i>
   <i name="OFIELD_Q6_FAR">      0.00000000</i>
   <i name="OFIELD_A">      0.00000000</i>
  </separator>
 </parameters>
 <atominfo>
  <atoms>     256 </atoms>
  <types>       2 </types>
  <array name="atoms" >
   <dimension dim="1">ion</dimension>
   <field type="string">element</field>
   <field type="int">atomtype</field>
   <set>
    <rc><c>Ir</c><c>   1</c></rc>
    <rc><c>Ir</c><c>   1</c></rc>
    <rc><c>Ir</c><c>   1</c></rc>
    <rc><c>Ir</c><c>   1</c></rc>
    <rc><c>Ir</c><c>   1</c></rc>
    <rc><c>Ir</c><c>   1</c></rc>
    <rc><c>Ir</c><c>   1</c></rc>
    <rc><c>Ir</c><c>   1</c></rc>
    <rc><c>Ir</c><c>   1</c></rc>
    <rc><c>Ir</c><c>   1</c></rc>
    <rc><c>Ir</c><c>   1</c></rc>
    <rc><c>Ir</c><c>   1</c></rc>
    <rc><c>Ir</c><c>   1</c></rc>
    <rc><c>Ir</c><c>   1</c></rc>
    <rc><c>Ir</c><c>   1</c></rc>
    <rc><c>Ir</c><c>   1</c></rc>
    <rc><c>Ir</c><c>   1</c></rc>
    <rc><c>Ir</c><c>   1</c></rc>
    <rc><c>Ir</c><c>   1</c></rc>
    <rc><c>Ir</c><c>   1</c></rc>
    <rc><c>Ir</c><c>   1</c></rc>
    <rc><c>Ir</c><c>   1</c></rc>
    <rc><c>Ir</c><c>   1</c></rc>
    <rc><c>Ir</c><c>   1</c></rc>
    <rc><c>Ir</c><c>   1</c></rc>
    <rc><c>Ir</c><c>   1</c></rc>
    <rc><c>Ir</c><c>   1</c></rc>
    <rc><c>Ir</c><c>   1</c></rc>
    <rc><c>Ir</c><c>   1</c></rc>
    <rc><c>Ir</c><c>   1</c></rc>
    <rc><c>Ir</c><c>   1</c></rc>
    <rc><c>Ir</c><c>   1</c></rc>
    <rc><c>Ir</c><c>   1</c></rc>
    <rc><c>Ir</c><c>   1</c></rc>
    <rc><c>Ir</c><c>   1</c></rc>
    <rc><c>Ir</c><c>   1</c></rc>
    <rc><c>Ir</c><c>   1</c></rc>
    <rc><c>Ir</c><c>   1</c></rc>
    <rc><c>Ir</c><c>   1</c></rc>
    <rc><c>Ir</c><c>   1</c></rc>
    <rc><c>Ir</c><c>   1</c></rc>
    <rc><c>Ir</c><c>   1</c></rc>
    <rc><c>Ir</c><c>   1</c></rc>
    <rc><c>Ir</c><c>   1</c></rc>
    <rc><c>Ir</c><c>   1</c></rc>
    <rc><c>Ir</c><c>   1</c></rc>
    <rc><c>Ir</c><c>   1</c></rc>
    <rc><c>Ir</c><c>   1</c></rc>
    <rc><c>Ir</c><c>   1</c></rc>
    <rc><c>Ir</c><c>   1</c></rc>
    <rc><c>Ir</c><c>   1</c></rc>
    <rc><c>Ir</c><c>   1</c></rc>
    <rc><c>Ir</c><c>   1</c></rc>
    <rc><c>Ir</c><c>   1</c></rc>
    <rc><c>Ir</c><c>   1</c></rc>
    <rc><c>Ir</c><c>   1</c></rc>
    <rc><c>Ir</c><c>   1</c></rc>
    <rc><c>Ir</c><c>   1</c></rc>
    <rc><c>Ir</c><c>   1</c></rc>
    <rc><c>Ir</c><c>   1</c></rc>
    <rc><c>Ir</c><c>   1</c></rc>
    <rc><c>Ir</c><c>   1</c></rc>
    <rc><c>Ir</c><c>   1</c></rc>
    <rc><c>Ir</c><c>   1</c></rc>
    <rc><c>Ir</c><c>   1</c></rc>
    <rc><c>Ir</c><c>   1</c></rc>
    <rc><c>Ir</c><c>   1</c></rc>
    <rc><c>Ir</c><c>   1</c></rc>
    <rc><c>Ir</c><c>   1</c></rc>
    <rc><c>Ir</c><c>   1</c></rc>
    <rc><c>Ir</c><c>   1</c></rc>
    <rc><c>Ir</c><c>   1</c></rc>
    <rc><c>Ir</c><c>   1</c></rc>
    <rc><c>Ir</c><c>   1</c></rc>
    <rc><c>Ir</c><c>   1</c></rc>
    <rc><c>Ir</c><c>   1</c></rc>
    <rc><c>Ir</c><c>   1</c></rc>
    <rc><c>Ir</c><c>   1</c></rc>
    <rc><c>Ir</c><c>   1</c></rc>
    <rc><c>Ir</c><c>   1</c></rc>
    <rc><c>Ir</c><c>   1</c></rc>
    <rc><c>Ir</c><c>   1</c></rc>
    <rc><c>Ir</c><c>   1</c></rc>
    <rc><c>Ir</c><c>   1</c></rc>
    <rc><c>Ir</c><c>   1</c></rc>
    <rc><c>Ir</c><c>   1</c></rc>
    <rc><c>Ir</c><c>   1</c></rc>
    <rc><c>Ir</c><c>   1</c></rc>
    <rc><c>Ir</c><c>   1</c></rc>
    <rc><c>Ir</c><c>   1</c></rc>
    <rc><c>Ir</c><c>   1</c></rc>
    <rc><c>Ir</c><c>   1</c></rc>
    <rc><c>Ir</c><c>   1</c></rc>
    <rc><c>Ir</c><c>   1</c></rc>
    <rc><c>Ir</c><c>   1</c></rc>
    <rc><c>Ir</c><c>   1</c></rc>
    <rc><c>Ir</c><c>   1</c></rc>
    <rc><c>Ir</c><c>   1</c></rc>
    <rc><c>Ir</c><c>   1</c></rc>
    <rc><c>Ir</c><c>   1</c></rc>
    <rc><c>Ir</c><c>   1</c></rc>
    <rc><c>Ir</c><c>   1</c></rc>
    <rc><c>Ir</c><c>   1</c></rc>
    <rc><c>Ir</c><c>   1</c></rc>
    <rc><c>Ir</c><c>   1</c></rc>
    <rc><c>Ir</c><c>   1</c></rc>
    <rc><c>Ir</c><c>   1</c></rc>
    <rc><c>Ir</c><c>   1</c></rc>
    <rc><c>Ir</c><c>   1</c></rc>
    <rc><c>Ir</c><c>   1</c></rc>
    <rc><c>Ir</c><c>   1</c></rc>
    <rc><c>Ir</c><c>   1</c></rc>
    <rc><c>Ir</c><c>   1</c></rc>
    <rc><c>Ir</c><c>   1</c></rc>
    <rc><c>Ir</c><c>   1</c></rc>
    <rc><c>Ir</c><c>   1</c></rc>
    <rc><c>Ir</c><c>   1</c></rc>
    <rc><c>Ir</c><c>   1</c></rc>
    <rc><c>Ir</c><c>   1</c></rc>
    <rc><c>Ir</c><c>   1</c></rc>
    <rc><c>Ir</c><c>   1</c></rc>
    <rc><c>Ir</c><c>   1</c></rc>
    <rc><c>Ir</c><c>   1</c></rc>
    <rc><c>Ir</c><c>   1</c></rc>
    <rc><c>Ir</c><c>   1</c></rc>
    <rc><c>Ir</c><c>   1</c></rc>
    <rc><c>Ir</c><c>   1</c></rc>
    <rc><c>Ir</c><c>   1</c></rc>
    <rc><c>Ru</c><c>   2</c></rc>
    <rc><c>Ru</c><c>   2</c></rc>
    <rc><c>Ru</c><c>   2</c></rc>
    <rc><c>Ru</c><c>   2</c></rc>
    <rc><c>Ru</c><c>   2</c></rc>
    <rc><c>Ru</c><c>   2</c></rc>
    <rc><c>Ru</c><c>   2</c></rc>
    <rc><c>Ru</c><c>   2</c></rc>
    <rc><c>Ru</c><c>   2</c></rc>
    <rc><c>Ru</c><c>   2</c></rc>
    <rc><c>Ru</c><c>   2</c></rc>
    <rc><c>Ru</c><c>   2</c></rc>
    <rc><c>Ru</c><c>   2</c></rc>
    <rc><c>Ru</c><c>   2</c></rc>
    <rc><c>Ru</c><c>   2</c></rc>
    <rc><c>Ru</c><c>   2</c></rc>
    <rc><c>Ru</c><c>   2</c></rc>
    <rc><c>Ru</c><c>   2</c></rc>
    <rc><c>Ru</c><c>   2</c></rc>
    <rc><c>Ru</c><c>   2</c></rc>
    <rc><c>Ru</c><c>   2</c></rc>
    <rc><c>Ru</c><c>   2</c></rc>
    <rc><c>Ru</c><c>   2</c></rc>
    <rc><c>Ru</c><c>   2</c></rc>
    <rc><c>Ru</c><c>   2</c></rc>
    <rc><c>Ru</c><c>   2</c></rc>
    <rc><c>Ru</c><c>   2</c></rc>
    <rc><c>Ru</c><c>   2</c></rc>
    <rc><c>Ru</c><c>   2</c></rc>
    <rc><c>Ru</c><c>   2</c></rc>
    <rc><c>Ru</c><c>   2</c></rc>
    <rc><c>Ru</c><c>   2</c></rc>
    <rc><c>Ru</c><c>   2</c></rc>
    <rc><c>Ru</c><c>   2</c></rc>
    <rc><c>Ru</c><c>   2</c></rc>
    <rc><c>Ru</c><c>   2</c></rc>
    <rc><c>Ru</c><c>   2</c></rc>
    <rc><c>Ru</c><c>   2</c></rc>
    <rc><c>Ru</c><c>   2</c></rc>
    <rc><c>Ru</c><c>   2</c></rc>
    <rc><c>Ru</c><c>   2</c></rc>
    <rc><c>Ru</c><c>   2</c></rc>
    <rc><c>Ru</c><c>   2</c></rc>
    <rc><c>Ru</c><c>   2</c></rc>
    <rc><c>Ru</c><c>   2</c></rc>
    <rc><c>Ru</c><c>   2</c></rc>
    <rc><c>Ru</c><c>   2</c></rc>
    <rc><c>Ru</c><c>   2</c></rc>
    <rc><c>Ru</c><c>   2</c></rc>
    <rc><c>Ru</c><c>   2</c></rc>
    <rc><c>Ru</c><c>   2</c></rc>
    <rc><c>Ru</c><c>   2</c></rc>
    <rc><c>Ru</c><c>   2</c></rc>
    <rc><c>Ru</c><c>   2</c></rc>
    <rc><c>Ru</c><c>   2</c></rc>
    <rc><c>Ru</c><c>   2</c></rc>
    <rc><c>Ru</c><c>   2</c></rc>
    <rc><c>Ru</c><c>   2</c></rc>
    <rc><c>Ru</c><c>   2</c></rc>
    <rc><c>Ru</c><c>   2</c></rc>
    <rc><c>Ru</c><c>   2</c></rc>
    <rc><c>Ru</c><c>   2</c></rc>
    <rc><c>Ru</c><c>   2</c></rc>
    <rc><c>Ru</c><c>   2</c></rc>
    <rc><c>Ru</c><c>   2</c></rc>
    <rc><c>Ru</c><c>   2</c></rc>
    <rc><c>Ru</c><c>   2</c></rc>
    <rc><c>Ru</c><c>   2</c></rc>
    <rc><c>Ru</c><c>   2</c></rc>
    <rc><c>Ru</c><c>   2</c></rc>
    <rc><c>Ru</c><c>   2</c></rc>
    <rc><c>Ru</c><c>   2</c></rc>
    <rc><c>Ru</c><c>   2</c></rc>
    <rc><c>Ru</c><c>   2</c></rc>
    <rc><c>Ru</c><c>   2</c></rc>
    <rc><c>Ru</c><c>   2</c></rc>
    <rc><c>Ru</c><c>   2</c></rc>
    <rc><c>Ru</c><c>   2</c></rc>
    <rc><c>Ru</c><c>   2</c></rc>
    <rc><c>Ru</c><c>   2</c></rc>
    <rc><c>Ru</c><c>   2</c></rc>
    <rc><c>Ru</c><c>   2</c></rc>
    <rc><c>Ru</c><c>   2</c></rc>
    <rc><c>Ru</c><c>   2</c></rc>
    <rc><c>Ru</c><c>   2</c></rc>
    <rc><c>Ru</c><c>   2</c></rc>
    <rc><c>Ru</c><c>   2</c></rc>
    <rc><c>Ru</c><c>   2</c></rc>
    <rc><c>Ru</c><c>   2</c></rc>
    <rc><c>Ru</c><c>   2</c></rc>
    <rc><c>Ru</c><c>   2</c></rc>
    <rc><c>Ru</c><c>   2</c></rc>
    <rc><c>Ru</c><c>   2</c></rc>
    <rc><c>Ru</c><c>   2</c></rc>
    <rc><c>Ru</c><c>   2</c></rc>
    <rc><c>Ru</c><c>   2</c></rc>
    <rc><c>Ru</c><c>   2</c></rc>
    <rc><c>Ru</c><c>   2</c></rc>
    <rc><c>Ru</c><c>   2</c></rc>
    <rc><c>Ru</c><c>   2</c></rc>
    <rc><c>Ru</c><c>   2</c></rc>
    <rc><c>Ru</c><c>   2</c></rc>
    <rc><c>Ru</c><c>   2</c></rc>
    <rc><c>Ru</c><c>   2</c></rc>
    <rc><c>Ru</c><c>   2</c></rc>
    <rc><c>Ru</c><c>   2</c></rc>
    <rc><c>Ru</c><c>   2</c></rc>
    <rc><c>Ru</c><c>   2</c></rc>
    <rc><c>Ru</c><c>   2</c></rc>
    <rc><c>Ru</c><c>   2</c></rc>
    <rc><c>Ru</c><c>   2</c></rc>
    <rc><c>Ru</c><c>   2</c></rc>
    <rc><c>Ru</c><c>   2</c></rc>
    <rc><c>Ru</c><c>   2</c></rc>
    <rc><c>Ru</c><c>   2</c></rc>
    <rc><c>Ru</c><c>   2</c></rc>
    <rc><c>Ru</c><c>   2</c></rc>
    <rc><c>Ru</c><c>   2</c></rc>
    <rc><c>Ru</c><c>   2</c></rc>
    <rc><c>Ru</c><c>   2</c></rc>
    <rc><c>Ru</c><c>   2</c></rc>
    <rc><c>Ru</c><c>   2</c></rc>
    <rc><c>Ru</c><c>   2</c></rc>
    <rc><c>Ru</c><c>   2</c></rc>
    <rc><c>Ru</c><c>   2</c></rc>
    <rc><c>Ru</c><c>   2</c></rc>
    <rc><c>Ru</c><c>   2</c></rc>
    <rc><c>Ru</c><c>   2</c></rc>
   </set>
  </array>
  <array name="atomtypes" >
   <dimension dim="1">type</dimension>
   <field type="int">atomspertype</field>
   <field type="string">element</field>
   <field>mass</field>
   <field>valence</field>
   <field type="string">pseudopotential</field>
   <set>
    <rc><c> 128</c><c>Ir</c><c>    192.22000000</c><c>      9.00000000</c><c> PAW_PBE Ir 06Sep2000                   </c></rc>
    <rc><c> 128</c><c>Ru</c><c>    101.07000000</c><c>      8.00000000</c><c> PAW_PBE Ru 06Sep2000                   </c></rc>
   </set>
  </array>
 </atominfo>
 <structure name="initialpos" >
  <crystal>
   <varray name="basis" >
    <v>       5.48320000     -14.25407000       4.35211000 </v>
    <v>     -10.97158000      -9.50382000       8.70700000 </v>
    <v>     -10.97268000      -9.50770000      -8.71242000 </v>
   </varray>
   <i name="volume">   3632.42828475 </i>
   <varray name="rec_basis" >
    <v>       0.04558516      -0.05261718       0.00000884 </v>
    <v>      -0.04557998      -0.00000485       0.05741007 </v>
    <v>      -0.02278050      -0.02628868      -0.05739990 </v>
   </varray>
  </crystal>
  <varray name="positions" >
   <v>       0.24961500       0.25116000       0.87474750 </v>
   <v>       0.37462500       0.12471000       0.81183750 </v>
   <v>       0.06264000       0.31198500       0.84450000 </v>
   <v>       0.06345000       0.06286500       0.59341500 </v>
   <v>       0.43715000       0.43626500       0.65842500 </v>
   <v>       0.18774000       0.43608000       0.53137000 </v>
   <v>       0.43778500       0.19000000       0.40508750 </v>
   <v>       0.27102000       0.31327500       0.69738000 </v>
   <v>       0.39571500       0.18779500       0.63473250 </v>
   <v>       0.02156000       0.06211500       0.82305500 </v>
   <v>       0.08285000       0.37426000       0.66685000 </v>
   <v>       0.33244500       0.12499000       0.54249250 </v>
   <v>       0.27037500       0.06213000       0.44856250 </v>
   <v>       0.08317500       0.12555000       0.91594750 </v>
   <v>       0.45837000       0.49946000       0.47964000 </v>
   <v>       0.20886500       0.49992000       0.85301250 </v>
   <v>       0.24961500       0.75116000       0.87474750 </v>
   <v>       0.37462500       0.62471000       0.81183750 </v>
   <v>       0.06264000       0.81198500       0.84450000 </v>
   <v>       0.06345500       0.56286500       0.59341250 </v>
   <v>       0.43715000       0.93626500       0.65843000 </v>
   <v>       0.18774000       0.93608000       0.53136500 </v>
   <v>       0.43778500       0.69000000       0.40508750 </v>
   <v>       0.27102000       0.81327500       0.69738000 </v>
   <v>       0.39571500       0.68779500       0.63473250 </v>
   <v>       0.02156000       0.56211500       0.82305500 </v>
   <v>       0.08285000       0.87426000       0.66685000 </v>
   <v>       0.33244500       0.62499000       0.54249250 </v>
   <v>       0.27037500       0.56213000       0.44856250 </v>
   <v>       0.08317500       0.62555000       0.91594750 </v>
   <v>       0.45837000       0.99946000       0.47964000 </v>
   <v>       0.20886500       0.99992000       0.85301250 </v>
   <v>       0.24961500       0.25116000       0.37474750 </v>
   <v>       0.37462500       0.12471000       0.31183750 </v>
   <v>       0.06264000       0.31198500       0.34450000 </v>
   <v>       0.06345500       0.06286500       0.09341250 </v>
   <v>       0.43715000       0.43626500       0.15842500 </v>
   <v>       0.18774000       0.43608000       0.03137000 </v>
   <v>       0.43778500       0.19000000       0.90508750 </v>
   <v>       0.27102000       0.31327500       0.19738000 </v>
   <v>       0.39571500       0.18779500       0.13473250 </v>
   <v>       0.02156000       0.06211500       0.32305500 </v>
   <v>       0.08285000       0.37426000       0.16685000 </v>
   <v>       0.33244500       0.12499000       0.04249250 </v>
   <v>       0.27037500       0.06213000       0.94856250 </v>
   <v>       0.08317500       0.12555000       0.41594750 </v>
   <v>       0.45837000       0.49946000       0.97964000 </v>
   <v>       0.20886500       0.49992000       0.35301250 </v>
   <v>       0.74961500       0.25116000       0.62474750 </v>
   <v>       0.87462500       0.12471000       0.56183750 </v>
   <v>       0.56264000       0.31198500       0.59450000 </v>
   <v>       0.56345000       0.06286500       0.34341500 </v>
   <v>       0.93715000       0.43626500       0.40842500 </v>
   <v>       0.68774000       0.43608000       0.28137000 </v>
   <v>       0.93778500       0.19000000       0.15508750 </v>
   <v>       0.77102000       0.31327500       0.44738000 </v>
   <v>       0.89571500       0.18779500       0.38473250 </v>
   <v>       0.52156000       0.06211500       0.57305500 </v>
   <v>       0.58285000       0.37426000       0.41685000 </v>
   <v>       0.83244500       0.12499000       0.29249750 </v>
   <v>       0.77037500       0.06213000       0.19856250 </v>
   <v>       0.58317500       0.12555000       0.66594750 </v>
   <v>       0.95837000       0.49946000       0.22964000 </v>
   <v>       0.70886500       0.49992000       0.60301250 </v>
   <v>       0.24961500       0.75116000       0.37474750 </v>
   <v>       0.37462500       0.62471000       0.31183750 </v>
   <v>       0.06264000       0.81198500       0.34450000 </v>
   <v>       0.06345500       0.56286500       0.09341250 </v>
   <v>       0.43715000       0.93626500       0.15842500 </v>
   <v>       0.18774000       0.93608000       0.03137000 </v>
   <v>       0.43778500       0.69000000       0.90508750 </v>
   <v>       0.27102000       0.81327500       0.19738000 </v>
   <v>       0.39571500       0.68779500       0.13473250 </v>
   <v>       0.02156000       0.56211500       0.32305500 </v>
   <v>       0.08285000       0.87426000       0.16685000 </v>
   <v>       0.33244500       0.62499000       0.04249250 </v>
   <v>       0.27037500       0.56213000       0.94856250 </v>
   <v>       0.08317500       0.62555000       0.41594750 </v>
   <v>       0.45837000       0.99946000       0.97964000 </v>
   <v>       0.20886500       0.99992000       0.35301250 </v>
   <v>       0.74961500       0.75116000       0.62474750 </v>
   <v>       0.87462500       0.62471000       0.56183750 </v>
   <v>       0.56264000       0.81198500       0.59450000 </v>
   <v>       0.56345000       0.56286500       0.34341500 </v>
   <v>       0.93715000       0.93626500       0.40842500 </v>
   <v>       0.68774000       0.93608000       0.28136500 </v>
   <v>       0.93778500       0.69000000       0.15508750 </v>
   <v>       0.77102000       0.81327500       0.44738000 </v>
   <v>       0.89571500       0.68779500       0.38473250 </v>
   <v>       0.52156000       0.56211500       0.57305500 </v>
   <v>       0.58285000       0.87426000       0.41685000 </v>
   <v>       0.83244500       0.62499000       0.29249250 </v>
   <v>       0.77037500       0.56213000       0.19856250 </v>
   <v>       0.58317500       0.62555000       0.66594750 </v>
   <v>       0.95837000       0.99946000       0.22964000 </v>
   <v>       0.70886500       0.99992000       0.60301250 </v>
   <v>       0.74961500       0.25116000       0.12474750 </v>
   <v>       0.87462500       0.12471000       0.06183750 </v>
   <v>       0.56264000       0.31198500       0.09450000 </v>
   <v>       0.56345000       0.06286500       0.84341500 </v>
   <v>       0.93715000       0.43626500       0.90842500 </v>
   <v>       0.68774000       0.43608000       0.78137000 </v>
   <v>       0.93778500       0.19000000       0.65508750 </v>
   <v>       0.77102000       0.31327500       0.94738000 </v>
   <v>       0.89571500       0.18779500       0.88473250 </v>
   <v>       0.52156000       0.06211500       0.07305500 </v>
   <v>       0.58285000       0.37655500       0.91455500 </v>
   <v>       0.83244500       0.12499000       0.79249750 </v>
   <v>       0.77037500       0.06213000       0.69856250 </v>
   <v>       0.58317500       0.12555000       0.16594750 </v>
   <v>       0.95837000       0.49946000       0.72964000 </v>
   <v>       0.70886500       0.49992000       0.10301250 </v>
   <v>       0.74961500       0.75116000       0.12474750 </v>
   <v>       0.87462500       0.62471000       0.06183750 </v>
   <v>       0.56264000       0.81198500       0.09450000 </v>
   <v>       0.56345000       0.56286500       0.84341500 </v>
   <v>       0.93715000       0.93626500       0.90843000 </v>
   <v>       0.68774000       0.93608000       0.78137000 </v>
   <v>       0.93778500       0.69000000       0.65508750 </v>
   <v>       0.77102000       0.81327500       0.94738000 </v>
   <v>       0.89571500       0.68779500       0.88473250 </v>
   <v>       0.52156000       0.56211500       0.07305500 </v>
   <v>       0.58285000       0.87426000       0.91685000 </v>
   <v>       0.83244500       0.62499000       0.79249250 </v>
   <v>       0.77037500       0.56213000       0.69856250 </v>
   <v>       0.58317500       0.62555000       0.16594750 </v>
   <v>       0.95837000       0.99946000       0.72964000 </v>
   <v>       0.70886500       0.99992000       0.10301250 </v>
   <v>       0.12552000       0.37374500       0.43878000 </v>
   <v>       0.49955500       0.49856000       0.25097750 </v>
   <v>       0.18753000       0.18756000       0.77992000 </v>
   <v>       0.31234000       0.06179500       0.71926500 </v>
   <v>       0.12523500       0.12622500       0.68665250 </v>
   <v>       0.24965000       0.00016500       0.62632000 </v>
   <v>       0.37544000       0.37420500       0.56234500 </v>
   <v>       0.99989000       0.25085000       0.74831000 </v>
   <v>       0.31230000       0.31346000       0.46828500 </v>
   <v>       0.14612500       0.43832500       0.76050750 </v>
   <v>       0.20830000       0.24878000       0.60429000 </v>
   <v>       0.14574500       0.18778500       0.51141250 </v>
   <v>       0.39572500       0.43673000       0.38531750 </v>
   <v>       0.02141500       0.31227500       0.57284750 </v>
   <v>       0.33289000       0.37625500       0.79155500 </v>
   <v>       0.45828500       0.25070500       0.72884250 </v>
   <v>       0.12552000       0.87374500       0.43878000 </v>
   <v>       0.49955500       0.99856000       0.25097750 </v>
   <v>       0.18753000       0.68756000       0.77992000 </v>
   <v>       0.31234000       0.56179500       0.71926500 </v>
   <v>       0.12523500       0.62622500       0.68665250 </v>
   <v>       0.24965000       0.50016500       0.62632000 </v>
   <v>       0.37544000       0.87420500       0.56234500 </v>
   <v>       0.99989000       0.75085000       0.74831000 </v>
   <v>       0.31230000       0.81346000       0.46828500 </v>
   <v>       0.14612500       0.93832500       0.76050750 </v>
   <v>       0.20830000       0.74878000       0.60429000 </v>
   <v>       0.14574500       0.68778500       0.51141250 </v>
   <v>       0.39572500       0.93673000       0.38531750 </v>
   <v>       0.02141500       0.81227500       0.57284750 </v>
   <v>       0.33289000       0.87625500       0.79155500 </v>
   <v>       0.45828500       0.75070500       0.72884250 </v>
   <v>       0.12552000       0.37374500       0.93878000 </v>
   <v>       0.49955500       0.49856000       0.75097750 </v>
   <v>       0.18753000       0.18756000       0.27992000 </v>
   <v>       0.31234000       0.06179500       0.21926500 </v>
   <v>       0.12523500       0.12622500       0.18665250 </v>
   <v>       0.24965000       0.00016500       0.12632000 </v>
   <v>       0.37544000       0.37420500       0.06234500 </v>
   <v>       0.99989000       0.25085000       0.24831000 </v>
   <v>       0.31230000       0.31346000       0.96828500 </v>
   <v>       0.14612500       0.43832500       0.26050750 </v>
   <v>       0.20830000       0.24878000       0.10429000 </v>
   <v>       0.14574500       0.18778500       0.01141250 </v>
   <v>       0.39572500       0.43673000       0.88531750 </v>
   <v>       0.02141500       0.31227500       0.07284750 </v>
   <v>       0.33289000       0.37625500       0.29155500 </v>
   <v>       0.45828500       0.25070500       0.22884250 </v>
   <v>       0.62552000       0.37374500       0.18878000 </v>
   <v>       0.99955500       0.49856000       0.00097750 </v>
   <v>       0.68753000       0.18756000       0.52992000 </v>
   <v>       0.81234000       0.06179500       0.46926500 </v>
   <v>       0.62523500       0.12622500       0.43665250 </v>
   <v>       0.74965000       0.00016500       0.37632000 </v>
   <v>       0.87544000       0.37420500       0.31234500 </v>
   <v>       0.49989000       0.25085000       0.49831000 </v>
   <v>       0.81230000       0.31346000       0.21828500 </v>
   <v>       0.64612500       0.43832500       0.51050750 </v>
   <v>       0.70830000       0.24878000       0.35429000 </v>
   <v>       0.64574500       0.18778500       0.26141250 </v>
   <v>       0.89572500       0.43673000       0.13531750 </v>
   <v>       0.52141500       0.31227500       0.32284750 </v>
   <v>       0.83289000       0.37625500       0.54155500 </v>
   <v>       0.95828500       0.25070500       0.47884250 </v>
   <v>       0.12552000       0.87374500       0.93878000 </v>
   <v>       0.49955500       0.99856000       0.75097750 </v>
   <v>       0.18753000       0.68756000       0.27992000 </v>
   <v>       0.31234000       0.56179500       0.21926500 </v>
   <v>       0.12523500       0.62622500       0.18665250 </v>
   <v>       0.24965000       0.50016500       0.12632000 </v>
   <v>       0.37544000       0.87420500       0.06234500 </v>
   <v>       0.99989000       0.75085000       0.24831000 </v>
   <v>       0.31230000       0.81346000       0.96828500 </v>
   <v>       0.14612500       0.93832500       0.26050750 </v>
   <v>       0.20830000       0.74878000       0.10429000 </v>
   <v>       0.14574500       0.68778500       0.01141250 </v>
   <v>       0.39572500       0.93673000       0.88531750 </v>
   <v>       0.02141500       0.81227500       0.07284750 </v>
   <v>       0.33289000       0.87625500       0.29155500 </v>
   <v>       0.45828500       0.75070500       0.22884250 </v>
   <v>       0.62552000       0.87374500       0.18878000 </v>
   <v>       0.99955500       0.99856000       0.00097750 </v>
   <v>       0.68753000       0.68756000       0.52992000 </v>
   <v>       0.81234000       0.56179500       0.46926500 </v>
   <v>       0.62523500       0.62622500       0.43665250 </v>
   <v>       0.74965000       0.50016500       0.37632000 </v>
   <v>       0.87544000       0.87420500       0.31234500 </v>
   <v>       0.49989000       0.75085000       0.49831000 </v>
   <v>       0.81230000       0.81346000       0.21828500 </v>
   <v>       0.64612500       0.93832500       0.51050750 </v>
   <v>       0.70830000       0.74878000       0.35429000 </v>
   <v>       0.64574500       0.68778500       0.26141250 </v>
   <v>       0.89572500       0.93673000       0.13531750 </v>
   <v>       0.52141500       0.81227500       0.32284750 </v>
   <v>       0.83289000       0.87625500       0.54155500 </v>
   <v>       0.95828500       0.75070500       0.47884250 </v>
   <v>       0.62552000       0.37374500       0.68878000 </v>
   <v>       0.99955500       0.49856000       0.50097750 </v>
   <v>       0.68753000       0.18756000       0.02992000 </v>
   <v>       0.81234000       0.06179500       0.96926500 </v>
   <v>       0.62523500       0.12622500       0.93665250 </v>
   <v>       0.74965000       0.00016500       0.87632000 </v>
   <v>       0.87544000       0.37420500       0.81234500 </v>
   <v>       0.49989000       0.25085000       0.99831000 </v>
   <v>       0.81230000       0.31346000       0.71828500 </v>
   <v>       0.64612500       0.43832500       0.01050750 </v>
   <v>       0.70830000       0.24878000       0.85429000 </v>
   <v>       0.64574500       0.18778500       0.76141250 </v>
   <v>       0.89572500       0.43673000       0.63531750 </v>
   <v>       0.52141500       0.31227500       0.82284750 </v>
   <v>       0.83289000       0.37625500       0.04155500 </v>
   <v>       0.95828500       0.25070500       0.97884250 </v>
   <v>       0.62552000       0.87374500       0.68878000 </v>
   <v>       0.99955500       0.99856000       0.50097750 </v>
   <v>       0.68753000       0.68756000       0.02992000 </v>
   <v>       0.81234000       0.56179500       0.96926500 </v>
   <v>       0.62523500       0.62622500       0.93665250 </v>
   <v>       0.74965000       0.50016500       0.87632000 </v>
   <v>       0.87544000       0.87420500       0.81234500 </v>
   <v>       0.49989000       0.75085000       0.99831000 </v>
   <v>       0.81230000       0.81346000       0.71828500 </v>
   <v>       0.64612500       0.93832500       0.01050750 </v>
   <v>       0.70830000       0.74878000       0.85429000 </v>
   <v>       0.64574500       0.68778500       0.76141250 </v>
   <v>       0.89572500       0.93673000       0.63531750 </v>
   <v>       0.52141500       0.81227500       0.82284750 </v>
   <v>       0.83289000       0.87625500       0.04155500 </v>
   <v>       0.95828500       0.75070500       0.97884250 </v>
  </varray>
 </structure>
 <calculation>
  <scstep>
   <time name="diag">  100.93  103.04</time>
   <time name="diis">  161.38  164.80</time>
   <time name="orth">   29.84   30.13</time>
   <time name="total">  292.65  298.47</time>
   <energy>
    <i name="alphaZ">  17820.12086445 </i>
    <i name="ewald">-159082.29301181 </i>
    <i name="hartreedc"> -10367.59024628 </i>
    <i name="XCdc">  -6287.81965715 </i>
    <i name="pawpsdc"> 107387.23103886 </i>
    <i name="pawaedc"> -95870.62587529 </i>
    <i name="eentropy">      0.02508414 </i>
    <i name="bandstr">  30145.83662068 </i>
    <i name="atom"> 129934.13886476 </i>
    <i name="e_fr_energy">  13679.02368236 </i>
    <i name="e_wo_entrp">  13678.99859822 </i>
    <i name="e_0_energy">  13679.01532098 </i>
   </energy>
  </scstep>
  <scstep>
   <time name="diag">  102.02  103.68</time>
   <time name="diis">  161.90  164.67</time>
   <time name="orth">   29.11   30.94</time>
   <time name="total">  293.04  299.32</time>
   <energy>
    <i name="e_fr_energy">   1313.35733351 </i>
    <i name="e_wo_entrp">   1313.35834193 </i>
    <i name="e_0_energy">   1313.35766965 </i>
   </energy>
  </scstep>
  <scstep>
   <time name="diag">  101.29  103.80</time>
   <time name="diis">  162.86  165.70</time>
   <time name="orth">   28.65   29.70</time>
   <time name="total">  292.82  299.23</time>
   <energy>
    <i name="e_fr_energy">  -1045.70422322 </i>
    <i name="e_wo_entrp">  -1045.72473594 </i>
    <i name="e_0_energy">  -1045.71106079 </i>
   </energy>
  </scstep>
  <scstep>
   <time name="diag">  101.77  103.67</time>
   <time name="diis">  160.89  164.48</time>
   <time name="orth">   29.39   29.73</time>
   <time name="total">  292.08  297.92</time>
   <energy>
    <i name="e_fr_energy">  -1846.00917827 </i>
    <i name="e_wo_entrp">  -1845.99962760 </i>
    <i name="e_0_energy">  -1846.00599471 </i>
   </energy>
  </scstep>
  <scstep>
   <time name="diag">  102.31  103.39</time>
   <time name="diis">  160.60  163.74</time>
   <time name="orth">   28.11   29.28</time>
   <time name="total">  291.04  296.43</time>
   <energy>
    <i name="e_fr_energy">  -2129.12601204 </i>
    <i name="e_wo_entrp">  -2129.12957338 </i>
    <i name="e_0_energy">  -2129.12719915 </i>
   </energy>
  </scstep>
  <scstep>
   <time name="diag">  100.90  104.04</time>
   <time name="diis">  159.73  163.32</time>
   <time name="orth">   29.43   29.94</time>
   <time name="total">  290.08  297.32</time>
   <energy>
    <i name="e_fr_energy">  -2274.84118684 </i>
    <i name="e_wo_entrp">  -2274.84548830 </i>
    <i name="e_0_energy">  -2274.84262066 </i>
   </energy>
  </scstep>
  <scstep>
   <time name="diag">  103.76  105.58</time>
   <time name="diis">  158.11  165.79</time>
   <time name="orth">   29.57   30.97</time>
   <time name="total">  291.46  302.37</time>
   <energy>
    <i name="e_fr_energy">  -2352.70384928 </i>
    <i name="e_wo_entrp">  -2352.71027311 </i>
    <i name="e_0_energy">  -2352.70599056 </i>
   </energy>
  </scstep>
  <scstep>
   <time name="diag">  101.70  106.66</time>
   <time name="diis">  159.63  165.77</time>
   <time name="orth">   29.70   31.14</time>
   <time name="total">  291.06  303.59</time>
   <energy>
    <i name="e_fr_energy">  -2400.20032492 </i>
    <i name="e_wo_entrp">  -2400.20550447 </i>
    <i name="e_0_energy">  -2400.20205144 </i>
   </energy>
  </scstep>
  <scstep>
   <time name="diag">  100.22  105.14</time>
   <time name="diis">  446.01  455.19</time>
   <time name="orth">   29.42   29.97</time>
   <time name="total">  575.69  590.35</time>
   <energy>
    <i name="e_fr_energy">  -2479.08420468 </i>
    <i name="e_wo_entrp">  -2479.07735535 </i>
    <i name="e_0_energy">  -2479.08192157 </i>
   </energy>
  </scstep>
  <scstep>
   <time name="diag">  104.18  106.61</time>
   <time name="diis">  489.55  505.37</time>
   <time name="orth">   30.12   31.01</time>
   <time name="total">  623.87  643.02</time>
   <energy>
    <i name="e_fr_energy">  -2488.64164089 </i>
    <i name="e_wo_entrp">  -2488.62764927 </i>
    <i name="e_0_energy">  -2488.63697702 </i>
   </energy>
  </scstep>
  <scstep>
   <time name="diag">  100.31  103.08</time>
   <time name="diis">  471.33  483.69</time>
   <time name="orth">   29.70   30.79</time>
   <time name="total">  601.36  617.58</time>
   <energy>
    <i name="e_fr_energy">  -2490.88266334 </i>
    <i name="e_wo_entrp">  -2490.87018178 </i>
    <i name="e_0_energy">  -2490.87850282 </i>
   </energy>
  </scstep>
  <scstep>
   <time name="diag">   98.32  102.59</time>
   <time name="diis">  490.46  501.21</time>
   <time name="orth">   28.08   29.68</time>
   <time name="total">  635.45  653.00</time>
   <energy>
    <i name="e_fr_energy">  -2491.18879058 </i>
    <i name="e_wo_entrp">  -2491.17576005 </i>
    <i name="e_0_energy">  -2491.18444707 </i>
   </energy>
  </scstep>
  <scstep>
   <time name="diag">   98.55  103.33</time>
   <time name="diis">  346.32  361.96</time>
   <time name="orth">   28.87   30.06</time>
   <time name="total">  492.93  515.05</time>
   <energy>
    <i name="e_fr_energy">  -2413.66100867 </i>
    <i name="e_wo_entrp">  -2413.65408147 </i>
    <i name="e_0_energy">  -2413.65869960 </i>
   </energy>
  </scstep>
  <scstep>
   <time name="diag">  100.60  103.92</time>
   <time name="diis">  313.86  327.15</time>
   <time name="orth">   29.02   30.23</time>
   <time name="total">  462.13  480.76</time>
   <energy>
    <i name="e_fr_energy">  -2367.77121013 </i>
    <i name="e_wo_entrp">  -2367.77418990 </i>
    <i name="e_0_energy">  -2367.77220339 </i>
   </energy>
  </scstep>
  <scstep>
   <time name="diag">  103.53  105.90</time>
   <time name="diis">  326.34  341.14</time>
   <time name="orth">   29.64   31.05</time>
   <time name="total">  478.35  497.69</time>
   <energy>
    <i name="e_fr_energy">  -2335.62609618 </i>
    <i name="e_wo_entrp">  -2335.62249608 </i>
    <i name="e_0_energy">  -2335.62489615 </i>
   </energy>
  </scstep>
  <scstep>
   <time name="diag">   97.37  105.02</time>
   <time name="diis">  331.07  358.82</time>
   <time name="orth">   27.71   30.14</time>
   <time name="total">  474.49  514.17</time>
   <energy>
    <i name="e_fr_energy">  -2321.30747464 </i>
    <i name="e_wo_entrp">  -2321.30571880 </i>
    <i name="e_0_energy">  -2321.30688936 </i>
   </energy>
  </scstep>
  <scstep>
   <time name="diag">  103.07  105.83</time>
   <time name="diis">  454.13  466.46</time>
   <time name="orth">   29.45   30.16</time>
   <time name="total">  606.00  622.14</time>
   <energy>
    <i name="e_fr_energy">  -2321.43249068 </i>
    <i name="e_wo_entrp">  -2321.43423703 </i>
    <i name="e_0_energy">  -2321.43307280 </i>
   </energy>
  </scstep>
  <scstep>
   <time name="diag">   98.93  106.32</time>
   <time name="diis">  388.77  410.51</time>
   <time name="orth">   28.52   30.47</time>
   <time name="total">  534.62  567.17</time>
   <energy>
    <i name="e_fr_energy">  -2321.09522989 </i>
    <i name="e_wo_entrp">  -2321.09587879 </i>
    <i name="e_0_energy">  -2321.09544619 </i>
   </energy>
  </scstep>
  <scstep>
   <time name="diag">   99.40  106.10</time>
   <time name="diis">  368.82  390.87</time>
   <time name="orth">   28.55   30.62</time>
   <time name="total">  515.54  547.75</time>
   <energy>
    <i name="e_fr_energy">  -2320.75182805 </i>
    <i name="e_wo_entrp">  -2320.74979288 </i>
    <i name="e_0_energy">  -2320.75114966 </i>
   </energy>
  </scstep>
  <scstep>
   <time name="diag">  101.00  105.59</time>
   <time name="diis">  383.12  402.44</time>
   <time name="orth">   29.44   30.70</time>
   <time name="total">  532.36  558.48</time>
   <energy>
    <i name="e_fr_energy">  -2320.69936177 </i>
    <i name="e_wo_entrp">  -2320.69829472 </i>
    <i name="e_0_energy">  -2320.69900609 </i>
   </energy>
  </scstep>
  <scstep>
   <time name="diag">  104.37  106.21</time>
   <time name="diis">  396.97  408.03</time>
   <time name="orth">   29.98   30.52</time>
   <time name="total">  550.79  565.17</time>
   <energy>
    <i name="e_fr_energy">  -2320.65696394 </i>
    <i name="e_wo_entrp">  -2320.65700998 </i>
    <i name="e_0_energy">  -2320.65697929 </i>
   </energy>
  </scstep>
  <scstep>
   <time name="diag">  101.18  106.53</time>
   <time name="diis">  392.12  399.76</time>
   <time name="orth">   30.37   30.91</time>
   <time name="total">  543.46  557.61</time>
   <energy>
    <i name="e_fr_energy">  -2320.63262521 </i>
    <i name="e_wo_entrp">  -2320.63270923 </i>
    <i name="e_0_energy">  -2320.63265322 </i>
   </energy>
  </scstep>
  <scstep>
   <time name="diag">  102.71  106.49</time>
   <time name="diis">  422.50  437.49</time>
   <time name="orth">   30.51   30.92</time>
   <time name="total">  575.33  595.28</time>
   <energy>
    <i name="e_fr_energy">  -2320.62762951 </i>
    <i name="e_wo_entrp">  -2320.62763282 </i>
    <i name="e_0_energy">  -2320.62763062 </i>
   </energy>
  </scstep>
  <scstep>
   <time name="diag">   99.80  105.50</time>
   <time name="diis">  393.88  409.09</time>
   <time name="orth">   28.86   29.89</time>
   <time name="total">  541.86  564.83</time>
   <energy>
    <i name="e_fr_energy">  -2320.62400980 </i>
    <i name="e_wo_entrp">  -2320.62394737 </i>
    <i name="e_0_energy">  -2320.62398899 </i>
   </energy>
  </scstep>
  <scstep>
   <time name="diag">   99.79  105.55</time>
   <time name="diis">  400.80  418.33</time>
   <time name="orth">   29.22   30.48</time>
   <time name="total">  549.45  574.29</time>
   <energy>
    <i name="e_fr_energy">  -2320.62507616 </i>
    <i name="e_wo_entrp">  -2320.62494578 </i>
    <i name="e_0_energy">  -2320.62503270 </i>
   </energy>
  </scstep>
  <scstep>
   <time name="diag">  103.27  105.41</time>
   <time name="diis">  462.27  478.63</time>
   <time name="orth">   27.87   29.14</time>
   <time name="total">  612.94  633.09</time>
   <energy>
    <i name="e_fr_energy">  -2320.62517741 </i>
    <i name="e_wo_entrp">  -2320.62504385 </i>
    <i name="e_0_energy">  -2320.62513289 </i>
   </energy>
  </scstep>
  <scstep>
   <time name="diag">  101.74  104.94</time>
   <time name="diis">  370.29  382.61</time>
   <time name="orth">   28.67   29.45</time>
   <time name="total">  519.57  536.60</time>
   <energy>
    <i name="e_fr_energy">  -2320.62422260 </i>
    <i name="e_wo_entrp">  -2320.62410708 </i>
    <i name="e_0_energy">  -2320.62418409 </i>
   </energy>
  </scstep>
  <scstep>
   <time name="diag">   99.84  105.13</time>
   <time name="diis">  377.90  400.12</time>
   <time name="orth">   28.99   30.36</time>
   <time name="total">  525.55  555.19</time>
   <energy>
    <i name="e_fr_energy">  -2320.62364492 </i>
    <i name="e_wo_entrp">  -2320.62356638 </i>
    <i name="e_0_energy">  -2320.62361874 </i>
   </energy>
  </scstep>
  <scstep>
   <time name="diag">  102.19  105.70</time>
   <time name="diis">  423.74  445.53</time>
   <time name="orth">   28.08   30.74</time>
   <time name="total">  554.38  582.42</time>
   <energy>
    <i name="alphaZ">  17820.12086445 </i>
    <i name="ewald">-159082.29301181 </i>
    <i name="hartreedc">  -7962.88474329 </i>
    <i name="XCdc">  -6307.34963981 </i>
    <i name="pawpsdc"> 121925.51556283 </i>
    <i name="pawaedc">-111099.44304161 </i>
    <i name="eentropy">     -0.00006499 </i>
    <i name="bandstr">  12451.57164399 </i>
    <i name="atom"> 129934.13886476 </i>
    <i name="e_fr_energy">  -2320.62356549 </i>
    <i name="e_wo_entrp">  -2320.62350049 </i>
    <i name="e_0_energy">  -2320.62354382 </i>
   </energy>
  </scstep>
  <structure>
   <crystal>
    <varray name="basis" >
     <v>       5.48320000     -14.25407000       4.35211000 </v>
     <v>     -10.97158000      -9.50382000       8.70700000 </v>
     <v>     -10.97268000      -9.50770000      -8.71242000 </v>
    </varray>
    <i name="volume">   3632.42828475 </i>
    <varray name="rec_basis" >
     <v>       0.04558516      -0.05261718       0.00000884 </v>
     <v>      -0.04557998      -0.00000485       0.05741007 </v>
     <v>      -0.02278050      -0.02628868      -0.05739990 </v>
    </varray>
   </crystal>
   <varray name="positions" >
    <v>       0.24961500       0.25116000       0.87474750 </v>
    <v>       0.37462500       0.12471000       0.81183750 </v>
    <v>       0.06264000       0.31198500       0.84450000 </v>
    <v>       0.06345000       0.06286500       0.59341500 </v>
    <v>       0.43715000       0.43626500       0.65842500 </v>
    <v>       0.18774000       0.43608000       0.53137000 </v>
    <v>       0.43778500       0.19000000       0.40508750 </v>
    <v>       0.27102000       0.31327500       0.69738000 </v>
    <v>       0.39571500       0.18779500       0.63473250 </v>
    <v>       0.02156000       0.06211500       0.82305500 </v>
    <v>       0.08285000       0.37426000       0.66685000 </v>
    <v>       0.33244500       0.12499000       0.54249250 </v>
    <v>       0.27037500       0.06213000       0.44856250 </v>
    <v>       0.08317500       0.12555000       0.91594750 </v>
    <v>       0.45837000       0.49946000       0.47964000 </v>
    <v>       0.20886500       0.49992000       0.85301250 </v>
    <v>       0.24961500       0.75116000       0.87474750 </v>
    <v>       0.37462500       0.62471000       0.81183750 </v>
    <v>       0.06264000       0.81198500       0.84450000 </v>
    <v>       0.06345500       0.56286500       0.59341250 </v>
    <v>       0.43715000       0.93626500       0.65843000 </v>
    <v>       0.18774000       0.93608000       0.53136500 </v>
    <v>       0.43778500       0.69000000       0.40508750 </v>
    <v>       0.27102000       0.81327500       0.69738000 </v>
    <v>       0.39571500       0.68779500       0.63473250 </v>
    <v>       0.02156000       0.56211500       0.82305500 </v>
    <v>       0.08285000       0.87426000       0.66685000 </v>
    <v>       0.33244500       0.62499000       0.54249250 </v>
    <v>       0.27037500       0.56213000       0.44856250 </v>
    <v>       0.08317500       0.62555000       0.91594750 </v>
    <v>       0.45837000       0.99946000       0.47964000 </v>
    <v>       0.20886500       0.99992000       0.85301250 </v>
    <v>       0.24961500       0.25116000       0.37474750 </v>
    <v>       0.37462500       0.12471000       0.31183750 </v>
    <v>       0.06264000       0.31198500       0.34450000 </v>
    <v>       0.06345500       0.06286500       0.09341250 </v>
    <v>       0.43715000       0.43626500       0.15842500 </v>
    <v>       0.18774000       0.43608000       0.03137000 </v>
    <v>       0.43778500       0.19000000       0.90508750 </v>
    <v>       0.27102000       0.31327500       0.19738000 </v>
    <v>       0.39571500       0.18779500       0.13473250 </v>
    <v>       0.02156000       0.06211500       0.32305500 </v>
    <v>       0.08285000       0.37426000       0.16685000 </v>
    <v>       0.33244500       0.12499000       0.04249250 </v>
    <v>       0.27037500       0.06213000       0.94856250 </v>
    <v>       0.08317500       0.12555000       0.41594750 </v>
    <v>       0.45837000       0.49946000       0.97964000 </v>
    <v>       0.20886500       0.49992000       0.35301250 </v>
    <v>       0.74961500       0.25116000       0.62474750 </v>
    <v>       0.87462500       0.12471000       0.56183750 </v>
    <v>       0.56264000       0.31198500       0.59450000 </v>
    <v>       0.56345000       0.06286500       0.34341500 </v>
    <v>       0.93715000       0.43626500       0.40842500 </v>
    <v>       0.68774000       0.43608000       0.28137000 </v>
    <v>       0.93778500       0.19000000       0.15508750 </v>
    <v>       0.77102000       0.31327500       0.44738000 </v>
    <v>       0.89571500       0.18779500       0.38473250 </v>
    <v>       0.52156000       0.06211500       0.57305500 </v>
    <v>       0.58285000       0.37426000       0.41685000 </v>
    <v>       0.83244500       0.12499000       0.29249750 </v>
    <v>       0.77037500       0.06213000       0.19856250 </v>
    <v>       0.58317500       0.12555000       0.66594750 </v>
    <v>       0.95837000       0.49946000       0.22964000 </v>
    <v>       0.70886500       0.49992000       0.60301250 </v>
    <v>       0.24961500       0.75116000       0.37474750 </v>
    <v>       0.37462500       0.62471000       0.31183750 </v>
    <v>       0.06264000       0.81198500       0.34450000 </v>
    <v>       0.06345500       0.56286500       0.09341250 </v>
    <v>       0.43715000       0.93626500       0.15842500 </v>
    <v>       0.18774000       0.93608000       0.03137000 </v>
    <v>       0.43778500       0.69000000       0.90508750 </v>
    <v>       0.27102000       0.81327500       0.19738000 </v>
    <v>       0.39571500       0.68779500       0.13473250 </v>
    <v>       0.02156000       0.56211500       0.32305500 </v>
    <v>       0.08285000       0.87426000       0.16685000 </v>
    <v>       0.33244500       0.62499000       0.04249250 </v>
    <v>       0.27037500       0.56213000       0.94856250 </v>
    <v>       0.08317500       0.62555000       0.41594750 </v>
    <v>       0.45837000       0.99946000       0.97964000 </v>
    <v>       0.20886500       0.99992000       0.35301250 </v>
    <v>       0.74961500       0.75116000       0.62474750 </v>
    <v>       0.87462500       0.62471000       0.56183750 </v>
    <v>       0.56264000       0.81198500       0.59450000 </v>
    <v>       0.56345000       0.56286500       0.34341500 </v>
    <v>       0.93715000       0.93626500       0.40842500 </v>
    <v>       0.68774000       0.93608000       0.28136500 </v>
    <v>       0.93778500       0.69000000       0.15508750 </v>
    <v>       0.77102000       0.81327500       0.44738000 </v>
    <v>       0.89571500       0.68779500       0.38473250 </v>
    <v>       0.52156000       0.56211500       0.57305500 </v>
    <v>       0.58285000       0.87426000       0.41685000 </v>
    <v>       0.83244500       0.62499000       0.29249250 </v>
    <v>       0.77037500       0.56213000       0.19856250 </v>
    <v>       0.58317500       0.62555000       0.66594750 </v>
    <v>       0.95837000       0.99946000       0.22964000 </v>
    <v>       0.70886500       0.99992000       0.60301250 </v>
    <v>       0.74961500       0.25116000       0.12474750 </v>
    <v>       0.87462500       0.12471000       0.06183750 </v>
    <v>       0.56264000       0.31198500       0.09450000 </v>
    <v>       0.56345000       0.06286500       0.84341500 </v>
    <v>       0.93715000       0.43626500       0.90842500 </v>
    <v>       0.68774000       0.43608000       0.78137000 </v>
    <v>       0.93778500       0.19000000       0.65508750 </v>
    <v>       0.77102000       0.31327500       0.94738000 </v>
    <v>       0.89571500       0.18779500       0.88473250 </v>
    <v>       0.52156000       0.06211500       0.07305500 </v>
    <v>       0.58285000       0.37655500       0.91455500 </v>
    <v>       0.83244500       0.12499000       0.79249750 </v>
    <v>       0.77037500       0.06213000       0.69856250 </v>
    <v>       0.58317500       0.12555000       0.16594750 </v>
    <v>       0.95837000       0.49946000       0.72964000 </v>
    <v>       0.70886500       0.49992000       0.10301250 </v>
    <v>       0.74961500       0.75116000       0.12474750 </v>
    <v>       0.87462500       0.62471000       0.06183750 </v>
    <v>       0.56264000       0.81198500       0.09450000 </v>
    <v>       0.56345000       0.56286500       0.84341500 </v>
    <v>       0.93715000       0.93626500       0.90843000 </v>
    <v>       0.68774000       0.93608000       0.78137000 </v>
    <v>       0.93778500       0.69000000       0.65508750 </v>
    <v>       0.77102000       0.81327500       0.94738000 </v>
    <v>       0.89571500       0.68779500       0.88473250 </v>
    <v>       0.52156000       0.56211500       0.07305500 </v>
    <v>       0.58285000       0.87426000       0.91685000 </v>
    <v>       0.83244500       0.62499000       0.79249250 </v>
    <v>       0.77037500       0.56213000       0.69856250 </v>
    <v>       0.58317500       0.62555000       0.16594750 </v>
    <v>       0.95837000       0.99946000       0.72964000 </v>
    <v>       0.70886500       0.99992000       0.10301250 </v>
    <v>       0.12552000       0.37374500       0.43878000 </v>
    <v>       0.49955500       0.49856000       0.25097750 </v>
    <v>       0.18753000       0.18756000       0.77992000 </v>
    <v>       0.31234000       0.06179500       0.71926500 </v>
    <v>       0.12523500       0.12622500       0.68665250 </v>
    <v>       0.24965000       0.00016500       0.62632000 </v>
    <v>       0.37544000       0.37420500       0.56234500 </v>
    <v>       0.99989000       0.25085000       0.74831000 </v>
    <v>       0.31230000       0.31346000       0.46828500 </v>
    <v>       0.14612500       0.43832500       0.76050750 </v>
    <v>       0.20830000       0.24878000       0.60429000 </v>
    <v>       0.14574500       0.18778500       0.51141250 </v>
    <v>       0.39572500       0.43673000       0.38531750 </v>
    <v>       0.02141500       0.31227500       0.57284750 </v>
    <v>       0.33289000       0.37625500       0.79155500 </v>
    <v>       0.45828500       0.25070500       0.72884250 </v>
    <v>       0.12552000       0.87374500       0.43878000 </v>
    <v>       0.49955500       0.99856000       0.25097750 </v>
    <v>       0.18753000       0.68756000       0.77992000 </v>
    <v>       0.31234000       0.56179500       0.71926500 </v>
    <v>       0.12523500       0.62622500       0.68665250 </v>
    <v>       0.24965000       0.50016500       0.62632000 </v>
    <v>       0.37544000       0.87420500       0.56234500 </v>
    <v>       0.99989000       0.75085000       0.74831000 </v>
    <v>       0.31230000       0.81346000       0.46828500 </v>
    <v>       0.14612500       0.93832500       0.76050750 </v>
    <v>       0.20830000       0.74878000       0.60429000 </v>
    <v>       0.14574500       0.68778500       0.51141250 </v>
    <v>       0.39572500       0.93673000       0.38531750 </v>
    <v>       0.02141500       0.81227500       0.57284750 </v>
    <v>       0.33289000       0.87625500       0.79155500 </v>
    <v>       0.45828500       0.75070500       0.72884250 </v>
    <v>       0.12552000       0.37374500       0.93878000 </v>
    <v>       0.49955500       0.49856000       0.75097750 </v>
    <v>       0.18753000       0.18756000       0.27992000 </v>
    <v>       0.31234000       0.06179500       0.21926500 </v>
    <v>       0.12523500       0.12622500       0.18665250 </v>
    <v>       0.24965000       0.00016500       0.12632000 </v>
    <v>       0.37544000       0.37420500       0.06234500 </v>
    <v>       0.99989000       0.25085000       0.24831000 </v>
    <v>       0.31230000       0.31346000       0.96828500 </v>
    <v>       0.14612500       0.43832500       0.26050750 </v>
    <v>       0.20830000       0.24878000       0.10429000 </v>
    <v>       0.14574500       0.18778500       0.01141250 </v>
    <v>       0.39572500       0.43673000       0.88531750 </v>
    <v>       0.02141500       0.31227500       0.07284750 </v>
    <v>       0.33289000       0.37625500       0.29155500 </v>
    <v>       0.45828500       0.25070500       0.22884250 </v>
    <v>       0.62552000       0.37374500       0.18878000 </v>
    <v>       0.99955500       0.49856000       0.00097750 </v>
    <v>       0.68753000       0.18756000       0.52992000 </v>
    <v>       0.81234000       0.06179500       0.46926500 </v>
    <v>       0.62523500       0.12622500       0.43665250 </v>
    <v>       0.74965000       0.00016500       0.37632000 </v>
    <v>       0.87544000       0.37420500       0.31234500 </v>
    <v>       0.49989000       0.25085000       0.49831000 </v>
    <v>       0.81230000       0.31346000       0.21828500 </v>
    <v>       0.64612500       0.43832500       0.51050750 </v>
    <v>       0.70830000       0.24878000       0.35429000 </v>
    <v>       0.64574500       0.18778500       0.26141250 </v>
    <v>       0.89572500       0.43673000       0.13531750 </v>
    <v>       0.52141500       0.31227500       0.32284750 </v>
    <v>       0.83289000       0.37625500       0.54155500 </v>
    <v>       0.95828500       0.25070500       0.47884250 </v>
    <v>       0.12552000       0.87374500       0.93878000 </v>
    <v>       0.49955500       0.99856000       0.75097750 </v>
    <v>       0.18753000       0.68756000       0.27992000 </v>
    <v>       0.31234000       0.56179500       0.21926500 </v>
    <v>       0.12523500       0.62622500       0.18665250 </v>
    <v>       0.24965000       0.50016500       0.12632000 </v>
    <v>       0.37544000       0.87420500       0.06234500 </v>
    <v>       0.99989000       0.75085000       0.24831000 </v>
    <v>       0.31230000       0.81346000       0.96828500 </v>
    <v>       0.14612500       0.93832500       0.26050750 </v>
    <v>       0.20830000       0.74878000       0.10429000 </v>
    <v>       0.14574500       0.68778500       0.01141250 </v>
    <v>       0.39572500       0.93673000       0.88531750 </v>
    <v>       0.02141500       0.81227500       0.07284750 </v>
    <v>       0.33289000       0.87625500       0.29155500 </v>
    <v>       0.45828500       0.75070500       0.22884250 </v>
    <v>       0.62552000       0.87374500       0.18878000 </v>
    <v>       0.99955500       0.99856000       0.00097750 </v>
    <v>       0.68753000       0.68756000       0.52992000 </v>
    <v>       0.81234000       0.56179500       0.46926500 </v>
    <v>       0.62523500       0.62622500       0.43665250 </v>
    <v>       0.74965000       0.50016500       0.37632000 </v>
    <v>       0.87544000       0.87420500       0.31234500 </v>
    <v>       0.49989000       0.75085000       0.49831000 </v>
    <v>       0.81230000       0.81346000       0.21828500 </v>
    <v>       0.64612500       0.93832500       0.51050750 </v>
    <v>       0.70830000       0.74878000       0.35429000 </v>
    <v>       0.64574500       0.68778500       0.26141250 </v>
    <v>       0.89572500       0.93673000       0.13531750 </v>
    <v>       0.52141500       0.81227500       0.32284750 </v>
    <v>       0.83289000       0.87625500       0.54155500 </v>
    <v>       0.95828500       0.75070500       0.47884250 </v>
    <v>       0.62552000       0.37374500       0.68878000 </v>
    <v>       0.99955500       0.49856000       0.50097750 </v>
    <v>       0.68753000       0.18756000       0.02992000 </v>
    <v>       0.81234000       0.06179500       0.96926500 </v>
    <v>       0.62523500       0.12622500       0.93665250 </v>
    <v>       0.74965000       0.00016500       0.87632000 </v>
    <v>       0.87544000       0.37420500       0.81234500 </v>
    <v>       0.49989000       0.25085000       0.99831000 </v>
    <v>       0.81230000       0.31346000       0.71828500 </v>
    <v>       0.64612500       0.43832500       0.01050750 </v>
    <v>       0.70830000       0.24878000       0.85429000 </v>
    <v>       0.64574500       0.18778500       0.76141250 </v>
    <v>       0.89572500       0.43673000       0.63531750 </v>
    <v>       0.52141500       0.31227500       0.82284750 </v>
    <v>       0.83289000       0.37625500       0.04155500 </v>
    <v>       0.95828500       0.25070500       0.97884250 </v>
    <v>       0.62552000       0.87374500       0.68878000 </v>
    <v>       0.99955500       0.99856000       0.50097750 </v>
    <v>       0.68753000       0.68756000       0.02992000 </v>
    <v>       0.81234000       0.56179500       0.96926500 </v>
    <v>       0.62523500       0.62622500       0.93665250 </v>
    <v>       0.74965000       0.50016500       0.87632000 </v>
    <v>       0.87544000       0.87420500       0.81234500 </v>
    <v>       0.49989000       0.75085000       0.99831000 </v>
    <v>       0.81230000       0.81346000       0.71828500 </v>
    <v>       0.64612500       0.93832500       0.01050750 </v>
    <v>       0.70830000       0.74878000       0.85429000 </v>
    <v>       0.64574500       0.68778500       0.76141250 </v>
    <v>       0.89572500       0.93673000       0.63531750 </v>
    <v>       0.52141500       0.81227500       0.82284750 </v>
    <v>       0.83289000       0.87625500       0.04155500 </v>
    <v>       0.95828500       0.75070500       0.97884250 </v>
   </varray>
  </structure>
  <varray name="forces" >
   <v>      -0.00051214       0.01003349       0.01140896 </v>
   <v>      -0.00810823       0.00214524       0.00101969 </v>
   <v>      -0.00227694       0.02014070       0.00128155 </v>
   <v>       0.01276336       0.00810663      -0.00271570 </v>
   <v>      -0.00477539       0.01971626      -0.00547205 </v>
   <v>      -0.00881788       0.00076183      -0.00142489 </v>
   <v>      -0.00200362       0.00190603       0.00059890 </v>
   <v>       0.00002135      -0.01559350      -0.00327448 </v>
   <v>      -0.00332887      -0.01147122      -0.00154234 </v>
   <v>      -0.01087561      -0.00562297      -0.00253310 </v>
   <v>       0.01155299      -0.00641087      -0.00005540 </v>
   <v>      -0.00988036      -0.00602103      -0.00405861 </v>
   <v>       0.00429627      -0.00754285       0.00189263 </v>
   <v>       0.00337890      -0.01919569      -0.00056648 </v>
   <v>      -0.00388531       0.00016846       0.00067574 </v>
   <v>       0.01381165      -0.01120242       0.00439727 </v>
   <v>       0.00008995       0.01181764       0.01240378 </v>
   <v>      -0.02521543       0.01189136       0.00369925 </v>
   <v>      -0.00254107       0.01894397       0.00226684 </v>
   <v>       0.01069042       0.00820002      -0.00265446 </v>
   <v>      -0.00000256       0.01708889      -0.00953943 </v>
   <v>      -0.00960020      -0.00081267      -0.00261421 </v>
   <v>      -0.00031616       0.00028951       0.00051643 </v>
   <v>       0.00157783      -0.01622110      -0.00203963 </v>
   <v>      -0.00351883      -0.00534783       0.00613774 </v>
   <v>      -0.01048077      -0.00633353      -0.00291281 </v>
   <v>       0.01055281      -0.00526400       0.00031184 </v>
   <v>      -0.01002323      -0.00859490      -0.00399735 </v>
   <v>       0.00446509      -0.00730858       0.00311739 </v>
   <v>       0.00335887      -0.01951949      -0.00115787 </v>
   <v>      -0.00375440       0.00091240       0.00716033 </v>
   <v>       0.01295181      -0.01128320       0.00281017 </v>
   <v>      -0.00150588       0.01048981       0.01185614 </v>
   <v>      -0.00511299      -0.00025673       0.00378041 </v>
   <v>      -0.00130406       0.01944695      -0.00001238 </v>
   <v>       0.01101583       0.00792669      -0.00268469 </v>
   <v>       0.00083310       0.01975779      -0.00737826 </v>
   <v>      -0.00970231       0.00200951      -0.00228774 </v>
   <v>       0.00253504       0.00013712       0.00517266 </v>
   <v>      -0.00100445      -0.01529254      -0.00264244 </v>
   <v>      -0.00349619      -0.01693383       0.00530980 </v>
   <v>      -0.01152951      -0.00443964      -0.00259548 </v>
   <v>       0.01196899      -0.00789001      -0.00002717 </v>
   <v>      -0.00990733      -0.00318288      -0.00321521 </v>
   <v>       0.00429425      -0.00778904       0.00345761 </v>
   <v>       0.00323516      -0.01903157       0.00024888 </v>
   <v>      -0.00225664       0.00040702      -0.00066245 </v>
   <v>       0.01420680      -0.01139256       0.00251311 </v>
   <v>      -0.00172448       0.01125355       0.01173095 </v>
   <v>      -0.00970960       0.00132693       0.00109396 </v>
   <v>      -0.00171311       0.01760368       0.00024707 </v>
   <v>       0.00965039       0.00671178      -0.00283954 </v>
   <v>      -0.00162758       0.01600231      -0.00541374 </v>
   <v>      -0.00928738      -0.00007487      -0.00255852 </v>
   <v>       0.00050845       0.00261165       0.00455133 </v>
   <v>       0.00139487      -0.01565190      -0.00229156 </v>
   <v>      -0.00372887      -0.01050580      -0.00141138 </v>
   <v>      -0.01122540      -0.00495467      -0.00396567 </v>
   <v>       0.01188962      -0.00559173      -0.00033085 </v>
   <v>      -0.00909850      -0.00746167      -0.00260699 </v>
   <v>      -0.00064744      -0.00552649       0.01019656 </v>
   <v>       0.00323974      -0.01973775      -0.00102364 </v>
   <v>      -0.00354318       0.00060992       0.00119165 </v>
   <v>       0.01920829      -0.01458303       0.00864709 </v>
   <v>      -0.00080596       0.01324144       0.01262792 </v>
   <v>      -0.00879407       0.00149988       0.00182111 </v>
   <v>      -0.00108197       0.01871985       0.00068813 </v>
   <v>       0.01157371       0.00811003      -0.00193299 </v>
   <v>      -0.00179420       0.01790472      -0.01108069 </v>
   <v>      -0.00924555       0.00167380      -0.00209991 </v>
   <v>      -0.00274324      -0.00101464       0.00317924 </v>
   <v>      -0.00060779      -0.01555343      -0.00302868 </v>
   <v>      -0.00323059      -0.01165520      -0.00219432 </v>
   <v>      -0.01162063      -0.00517511      -0.00172792 </v>
   <v>       0.01100094      -0.00667009       0.00021575 </v>
   <v>      -0.00945960      -0.00544896      -0.00254958 </v>
   <v>       0.00407382      -0.00797114       0.00371221 </v>
   <v>       0.00364189      -0.01979414       0.00024098 </v>
   <v>      -0.00334274       0.00121288       0.00068801 </v>
   <v>       0.01397504      -0.01170916       0.00354177 </v>
   <v>      -0.00081888       0.00680098       0.01460970 </v>
   <v>      -0.01124173       0.00218861      -0.00340713 </v>
   <v>       0.00096466       0.02064429       0.00043448 </v>
   <v>       0.01133351       0.00732148      -0.00211145 </v>
   <v>      -0.00182455       0.01515843      -0.00556708 </v>
   <v>      -0.00837941      -0.00116284      -0.00312327 </v>
   <v>      -0.00032429       0.00304183       0.00518455 </v>
   <v>       0.00103704      -0.01526295       0.00486066 </v>
   <v>      -0.00339058      -0.01143122      -0.00277008 </v>
   <v>      -0.01040301       0.00055118       0.00500143 </v>
[...]
       <r>    10.9929    -0.7093  2637.2347 </r>
       <r>    11.0448    -0.1736  2637.2257 </r>
       <r>    11.0966    -0.0551  2637.2229 </r>
       <r>    11.1484    -0.0115  2637.2223 </r>
       <r>    11.2003    -0.0013  2637.2222 </r>
       <r>    11.2521    -0.0001  2637.2222 </r>
       <r>    11.3040    -0.0000  2637.2222 </r>
       <r>    11.3558    -0.0000  2637.2222 </r>
       <r>    11.4076    -0.0000  2637.2222 </r>
       <r>    11.4595    -0.0000  2637.2222 </r>
       <r>    11.5113    -0.0000  2637.2222 </r>
       <r>    11.5631    -0.0000  2637.2222 </r>
       <r>    11.6150    -0.0000  2637.2222 </r>
       <r>    11.6668    -0.0002  2637.2222 </r>
       <r>    11.7186    -0.0024  2637.2221 </r>
       <r>    11.7705    -0.0206  2637.2210 </r>
       <r>    11.8223    -0.0854  2637.2166 </r>
       <r>    11.8741    -0.0886  2637.2120 </r>
       <r>    11.9260     0.4985  2637.2378 </r>
       <r>    11.9778     1.8430  2637.3334 </r>
       <r>    12.0296     2.5378  2637.4649 </r>
       <r>    12.0815     1.7744  2637.5569 </r>
       <r>    12.1333     0.9317  2637.6052 </r>
       <r>    12.1852     0.7307  2637.6431 </r>
       <r>    12.2370     1.1804  2637.7043 </r>
       <r>    12.2888     2.2353  2637.8201 </r>
       <r>    12.3407     2.7679  2637.9636 </r>
       <r>    12.3925     2.7661  2638.1070 </r>
       <r>    12.4443     2.7933  2638.2518 </r>
       <r>    12.4962     2.2235  2638.3670 </r>
       <r>    12.5480     1.6879  2638.4545 </r>
       <r>    12.5998     2.1922  2638.5682 </r>
       <r>    12.6517     3.4312  2638.7460 </r>
       <r>    12.7035     4.4826  2638.9784 </r>
       <r>    12.7553     3.9215  2639.1816 </r>
       <r>    12.8072     2.4493  2639.3086 </r>
       <r>    12.8590     2.1913  2639.4222 </r>
       <r>    12.9109     2.4924  2639.5514 </r>
       <r>    12.9627     1.8991  2639.6498 </r>
       <r>    13.0145     1.1342  2639.7086 </r>
       <r>    13.0664     0.8242  2639.7513 </r>
       <r>    13.1182     0.6874  2639.7870 </r>
       <r>    13.1700     0.8915  2639.8332 </r>
       <r>    13.2219     1.2577  2639.8984 </r>
       <r>    13.2737     1.2185  2639.9615 </r>
       <r>    13.3255     0.6898  2639.9973 </r>
       <r>    13.3774     0.1428  2640.0047 </r>
       <r>    13.4292    -0.0495  2640.0021 </r>
       <r>    13.4810    -0.0332  2640.0004 </r>
       <r>    13.5329    -0.0071  2640.0000 </r>
       <r>    13.5847    -0.0007  2640.0000 </r>
       <r>    13.6365    -0.0000  2640.0000 </r>
       <r>    13.6884    -0.0000  2640.0000 </r>
       <r>    13.7402    -0.0000  2640.0000 </r>
       <r>    13.7921    -0.0000  2640.0000 </r>
       <r>    13.8439    -0.0000  2640.0000 </r>
       <r>    13.8957    -0.0000  2640.0000 </r>
       <r>    13.9476     0.0000  2640.0000 </r>
       <r>    13.9994     0.0000  2640.0000 </r>
       <r>    14.0512     0.0000  2640.0000 </r>
       <r>    14.1031     0.0000  2640.0000 </r>
       <r>    14.1549     0.0000  2640.0000 </r>
       <r>    14.2067     0.0000  2640.0000 </r>
       <r>    14.2586     0.0000  2640.0000 </r>
      </set>
     </set>
    </array>
   </total>
  </dos>
 </calculation>
 <structure name="finalpos" >
  <crystal>
   <varray name="basis" >
    <v>       5.48320000     -14.25407000       4.35211000 </v>
    <v>     -10.97158000      -9.50382000       8.70700000 </v>
    <v>     -10.97268000      -9.50770000      -8.71242000 </v>
   </varray>
   <i name="volume">   3632.42828475 </i>
   <varray name="rec_basis" >
    <v>       0.04558516      -0.05261718       0.00000884 </v>
    <v>      -0.04557998      -0.00000485       0.05741007 </v>
    <v>      -0.02278050      -0.02628868      -0.05739990 </v>
   </varray>
  </crystal>
  <varray name="positions" >
   <v>       0.24961500       0.25116000       0.87474750 </v>
   <v>       0.37462500       0.12471000       0.81183750 </v>
   <v>       0.06264000       0.31198500       0.84450000 </v>
   <v>       0.06345000       0.06286500       0.59341500 </v>
   <v>       0.43715000       0.43626500       0.65842500 </v>
   <v>       0.18774000       0.43608000       0.53137000 </v>
   <v>       0.43778500       0.19000000       0.40508750 </v>
   <v>       0.27102000       0.31327500       0.69738000 </v>
   <v>       0.39571500       0.18779500       0.63473250 </v>
   <v>       0.02156000       0.06211500       0.82305500 </v>
   <v>       0.08285000       0.37426000       0.66685000 </v>
   <v>       0.33244500       0.12499000       0.54249250 </v>
   <v>       0.27037500       0.06213000       0.44856250 </v>
   <v>       0.08317500       0.12555000       0.91594750 </v>
   <v>       0.45837000       0.49946000       0.47964000 </v>
   <v>       0.20886500       0.49992000       0.85301250 </v>
   <v>       0.24961500       0.75116000       0.87474750 </v>
   <v>       0.37462500       0.62471000       0.81183750 </v>
   <v>       0.06264000       0.81198500       0.84450000 </v>
   <v>       0.06345500       0.56286500       0.59341250 </v>
   <v>       0.43715000       0.93626500       0.65843000 </v>
   <v>       0.18774000       0.93608000       0.53136500 </v>
   <v>       0.43778500       0.69000000       0.40508750 </v>
   <v>       0.27102000       0.81327500       0.69738000 </v>
   <v>       0.39571500       0.68779500       0.63473250 </v>
   <v>       0.02156000       0.56211500       0.82305500 </v>
   <v>       0.08285000       0.87426000       0.66685000 </v>
   <v>       0.33244500       0.62499000       0.54249250 </v>
   <v>       0.27037500       0.56213000       0.44856250 </v>
   <v>       0.08317500       0.62555000       0.91594750 </v>
   <v>       0.45837000       0.99946000       0.47964000 </v>
   <v>       0.20886500       0.99992000       0.85301250 </v>
   <v>       0.24961500       0.25116000       0.37474750 </v>
   <v>       0.37462500       0.12471000       0.31183750 </v>
   <v>       0.06264000       0.31198500       0.34450000 </v>
   <v>       0.06345500       0.06286500       0.09341250 </v>
   <v>       0.43715000       0.43626500       0.15842500 </v>
   <v>       0.18774000       0.43608000       0.03137000 </v>
   <v>       0.43778500       0.19000000       0.90508750 </v>
   <v>       0.27102000       0.31327500       0.19738000 </v>
   <v>       0.39571500       0.18779500       0.13473250 </v>
   <v>       0.02156000       0.06211500       0.32305500 </v>
   <v>       0.08285000       0.37426000       0.16685000 </v>
   <v>       0.33244500       0.12499000       0.04249250 </v>
   <v>       0.27037500       0.06213000       0.94856250 </v>
   <v>       0.08317500       0.12555000       0.41594750 </v>
   <v>       0.45837000       0.49946000       0.97964000 </v>
   <v>       0.20886500       0.49992000       0.35301250 </v>
   <v>       0.74961500       0.25116000       0.62474750 </v>
   <v>       0.87462500       0.12471000       0.56183750 </v>
   <v>       0.56264000       0.31198500       0.59450000 </v>
   <v>       0.56345000       0.06286500       0.34341500 </v>
   <v>       0.93715000       0.43626500       0.40842500 </v>
   <v>       0.68774000       0.43608000       0.28137000 </v>
   <v>       0.93778500       0.19000000       0.15508750 </v>
   <v>       0.77102000       0.31327500       0.44738000 </v>
   <v>       0.89571500       0.18779500       0.38473250 </v>
   <v>       0.52156000       0.06211500       0.57305500 </v>
   <v>       0.58285000       0.37426000       0.41685000 </v>
   <v>       0.83244500       0.12499000       0.29249750 </v>
   <v>       0.77037500       0.06213000       0.19856250 </v>
   <v>       0.58317500       0.12555000       0.66594750 </v>
   <v>       0.95837000       0.49946000       0.22964000 </v>
   <v>       0.70886500       0.49992000       0.60301250 </v>
   <v>       0.24961500       0.75116000       0.37474750 </v>
   <v>       0.37462500       0.62471000       0.31183750 </v>
   <v>       0.06264000       0.81198500       0.34450000 </v>
   <v>       0.06345500       0.56286500       0.09341250 </v>
   <v>       0.43715000       0.93626500       0.15842500 </v>
   <v>       0.18774000       0.93608000       0.03137000 </v>
   <v>       0.43778500       0.69000000       0.90508750 </v>
   <v>       0.27102000       0.81327500       0.19738000 </v>
   <v>       0.39571500       0.68779500       0.13473250 </v>
   <v>       0.02156000       0.56211500       0.32305500 </v>
   <v>       0.08285000       0.87426000       0.16685000 </v>
   <v>       0.33244500       0.62499000       0.04249250 </v>
   <v>       0.27037500       0.56213000       0.94856250 </v>
   <v>       0.08317500       0.62555000       0.41594750 </v>
   <v>       0.45837000       0.99946000       0.97964000 </v>
   <v>       0.20886500       0.99992000       0.35301250 </v>
   <v>       0.74961500       0.75116000       0.62474750 </v>
   <v>       0.87462500       0.62471000       0.56183750 </v>
   <v>       0.56264000       0.81198500       0.59450000 </v>
   <v>       0.56345000       0.56286500       0.34341500 </v>
   <v>       0.93715000       0.93626500       0.40842500 </v>
   <v>       0.68774000       0.93608000       0.28136500 </v>
   <v>       0.93778500       0.69000000       0.15508750 </v>
   <v>       0.77102000       0.81327500       0.44738000 </v>
   <v>       0.89571500       0.68779500       0.38473250 </v>
   <v>       0.52156000       0.56211500       0.57305500 </v>
   <v>       0.58285000       0.87426000       0.41685000 </v>
   <v>       0.83244500       0.62499000       0.29249250 </v>
   <v>       0.77037500       0.56213000       0.19856250 </v>
   <v>       0.58317500       0.62555000       0.66594750 </v>
   <v>       0.95837000       0.99946000       0.22964000 </v>
   <v>       0.70886500       0.99992000       0.60301250 </v>
   <v>       0.74961500       0.25116000       0.12474750 </v>
   <v>       0.87462500       0.12471000       0.06183750 </v>
   <v>       0.56264000       0.31198500       0.09450000 </v>
   <v>       0.56345000       0.06286500       0.84341500 </v>
   <v>       0.93715000       0.43626500       0.90842500 </v>
   <v>       0.68774000       0.43608000       0.78137000 </v>
   <v>       0.93778500       0.19000000       0.65508750 </v>
   <v>       0.77102000       0.31327500       0.94738000 </v>
   <v>       0.89571500       0.18779500       0.88473250 </v>
   <v>       0.52156000       0.06211500       0.07305500 </v>
   <v>       0.58285000       0.37655500       0.91455500 </v>
   <v>       0.83244500       0.12499000       0.79249750 </v>
   <v>       0.77037500       0.06213000       0.69856250 </v>
   <v>       0.58317500       0.12555000       0.16594750 </v>
   <v>       0.95837000       0.49946000       0.72964000 </v>
   <v>       0.70886500       0.49992000       0.10301250 </v>
   <v>       0.74961500       0.75116000       0.12474750 </v>
   <v>       0.87462500       0.62471000       0.06183750 </v>
   <v>       0.56264000       0.81198500       0.09450000 </v>
   <v>       0.56345000       0.56286500       0.84341500 </v>
   <v>       0.93715000       0.93626500       0.90843000 </v>
   <v>       0.68774000       0.93608000       0.78137000 </v>
   <v>       0.93778500       0.69000000       0.65508750 </v>
   <v>       0.77102000       0.81327500       0.94738000 </v>
   <v>       0.89571500       0.68779500       0.88473250 </v>
   <v>       0.52156000       0.56211500       0.07305500 </v>
   <v>       0.58285000       0.87426000       0.91685000 </v>
   <v>       0.83244500       0.62499000       0.79249250 </v>
   <v>       0.77037500       0.56213000       0.69856250 </v>
   <v>       0.58317500       0.62555000       0.16594750 </v>
   <v>       0.95837000       0.99946000       0.72964000 </v>
   <v>       0.70886500       0.99992000       0.10301250 </v>
   <v>       0.12552000       0.37374500       0.43878000 </v>
   <v>       0.49955500       0.49856000       0.25097750 </v>
   <v>       0.18753000       0.18756000       0.77992000 </v>
   <v>       0.31234000       0.06179500       0.71926500 </v>
   <v>       0.12523500       0.12622500       0.68665250 </v>
   <v>       0.24965000       0.00016500       0.62632000 </v>
   <v>       0.37544000       0.37420500       0.56234500 </v>
   <v>       0.99989000       0.25085000       0.74831000 </v>
   <v>       0.31230000       0.31346000       0.46828500 </v>
   <v>       0.14612500       0.43832500       0.76050750 </v>
   <v>       0.20830000       0.24878000       0.60429000 </v>
   <v>       0.14574500       0.18778500       0.51141250 </v>
   <v>       0.39572500       0.43673000       0.38531750 </v>
   <v>       0.02141500       0.31227500       0.57284750 </v>
   <v>       0.33289000       0.37625500       0.79155500 </v>
   <v>       0.45828500       0.25070500       0.72884250 </v>
   <v>       0.12552000       0.87374500       0.43878000 </v>
   <v>       0.49955500       0.99856000       0.25097750 </v>
   <v>       0.18753000       0.68756000       0.77992000 </v>
   <v>       0.31234000       0.56179500       0.71926500 </v>
   <v>       0.12523500       0.62622500       0.68665250 </v>
   <v>       0.24965000       0.50016500       0.62632000 </v>
   <v>       0.37544000       0.87420500       0.56234500 </v>
   <v>       0.99989000       0.75085000       0.74831000 </v>
   <v>       0.31230000       0.81346000       0.46828500 </v>
   <v>       0.14612500       0.93832500       0.76050750 </v>
   <v>       0.20830000       0.74878000       0.60429000 </v>
   <v>       0.14574500       0.68778500       0.51141250 </v>
   <v>       0.39572500       0.93673000       0.38531750 </v>
   <v>       0.02141500       0.81227500       0.57284750 </v>
   <v>       0.33289000       0.87625500       0.79155500 </v>
   <v>       0.45828500       0.75070500       0.72884250 </v>
   <v>       0.12552000       0.37374500       0.93878000 </v>
   <v>       0.49955500       0.49856000       0.75097750 </v>
   <v>       0.18753000       0.18756000       0.27992000 </v>
   <v>       0.31234000       0.06179500       0.21926500 </v>
   <v>       0.12523500       0.12622500       0.18665250 </v>
   <v>       0.24965000       0.00016500       0.12632000 </v>
   <v>       0.37544000       0.37420500       0.06234500 </v>
   <v>       0.99989000       0.25085000       0.24831000 </v>
   <v>       0.31230000       0.31346000       0.96828500 </v>
   <v>       0.14612500       0.43832500       0.26050750 </v>
   <v>       0.20830000       0.24878000       0.10429000 </v>
   <v>       0.14574500       0.18778500       0.01141250 </v>
   <v>       0.39572500       0.43673000       0.88531750 </v>
   <v>       0.02141500       0.31227500       0.07284750 </v>
   <v>       0.33289000       0.37625500       0.29155500 </v>
   <v>       0.45828500       0.25070500       0.22884250 </v>
   <v>       0.62552000       0.37374500       0.18878000 </v>
   <v>       0.99955500       0.49856000       0.00097750 </v>
   <v>       0.68753000       0.18756000       0.52992000 </v>
   <v>       0.81234000       0.06179500       0.46926500 </v>
   <v>       0.62523500       0.12622500       0.43665250 </v>
   <v>       0.74965000       0.00016500       0.37632000 </v>
   <v>       0.87544000       0.37420500       0.31234500 </v>
   <v>       0.49989000       0.25085000       0.49831000 </v>
   <v>       0.81230000       0.31346000       0.21828500 </v>
   <v>       0.64612500       0.43832500       0.51050750 </v>
   <v>       0.70830000       0.24878000       0.35429000 </v>
   <v>       0.64574500       0.18778500       0.26141250 </v>
   <v>       0.89572500       0.43673000       0.13531750 </v>
   <v>       0.52141500       0.31227500       0.32284750 </v>
   <v>       0.83289000       0.37625500       0.54155500 </v>
   <v>       0.95828500       0.25070500       0.47884250 </v>
   <v>       0.12552000       0.87374500       0.93878000 </v>
   <v>       0.49955500       0.99856000       0.75097750 </v>
   <v>       0.18753000       0.68756000       0.27992000 </v>
   <v>       0.31234000       0.56179500       0.21926500 </v>
   <v>       0.12523500       0.62622500       0.18665250 </v>
   <v>       0.24965000       0.50016500       0.12632000 </v>
   <v>       0.37544000       0.87420500       0.06234500 </v>
   <v>       0.99989000       0.75085000       0.24831000 </v>
   <v>       0.31230000       0.81346000       0.96828500 </v>
   <v>       0.14612500       0.93832500       0.26050750 </v>
   <v>       0.20830000       0.74878000       0.10429000 </v>
   <v>       0.14574500       0.68778500       0.01141250 </v>
   <v>       0.39572500       0.93673000       0.88531750 </v>
   <v>       0.02141500       0.81227500       0.07284750 </v>
   <v>       0.33289000       0.87625500       0.29155500 </v>
   <v>       0.45828500       0.75070500       0.22884250 </v>
   <v>       0.62552000       0.87374500       0.18878000 </v>
   <v>       0.99955500       0.99856000       0.00097750 </v>
   <v>       0.68753000       0.68756000       0.52992000 </v>
   <v>       0.81234000       0.56179500       0.46926500 </v>
   <v>       0.62523500       0.62622500       0.43665250 </v>
   <v>       0.74965000       0.50016500       0.37632000 </v>
   <v>       0.87544000       0.87420500       0.31234500 </v>
   <v>       0.49989000       0.75085000       0.49831000 </v>
   <v>       0.81230000       0.81346000       0.21828500 </v>
   <v>       0.64612500       0.93832500       0.51050750 </v>
   <v>       0.70830000       0.74878000       0.35429000 </v>
   <v>       0.64574500       0.68778500       0.26141250 </v>
   <v>       0.89572500       0.93673000       0.13531750 </v>
   <v>       0.52141500       0.81227500       0.32284750 </v>
   <v>       0.83289000       0.87625500       0.54155500 </v>
   <v>       0.95828500       0.75070500       0.47884250 </v>
   <v>       0.62552000       0.37374500       0.68878000 </v>
   <v>       0.99955500       0.49856000       0.50097750 </v>
   <v>       0.68753000       0.18756000       0.02992000 </v>
   <v>       0.81234000       0.06179500       0.96926500 </v>
   <v>       0.62523500       0.12622500       0.93665250 </v>
   <v>       0.74965000       0.00016500       0.87632000 </v>
   <v>       0.87544000       0.37420500       0.81234500 </v>
   <v>       0.49989000       0.25085000       0.99831000 </v>
   <v>       0.81230000       0.31346000       0.71828500 </v>
   <v>       0.64612500       0.43832500       0.01050750 </v>
   <v>       0.70830000       0.24878000       0.85429000 </v>
   <v>       0.64574500       0.18778500       0.76141250 </v>
   <v>       0.89572500       0.43673000       0.63531750 </v>
   <v>       0.52141500       0.31227500       0.82284750 </v>
   <v>       0.83289000       0.37625500       0.04155500 </v>
   <v>       0.95828500       0.25070500       0.97884250 </v>
   <v>       0.62552000       0.87374500       0.68878000 </v>
   <v>       0.99955500       0.99856000       0.50097750 </v>
   <v>       0.68753000       0.68756000       0.02992000 </v>
   <v>       0.81234000       0.56179500       0.96926500 </v>
   <v>       0.62523500       0.62622500       0.93665250 </v>
   <v>       0.74965000       0.50016500       0.87632000 </v>
   <v>       0.87544000       0.87420500       0.81234500 </v>
   <v>       0.49989000       0.75085000       0.99831000 </v>
   <v>       0.81230000       0.81346000       0.71828500 </v>
   <v>       0.64612500       0.93832500       0.01050750 </v>
   <v>       0.70830000       0.74878000       0.85429000 </v>
   <v>       0.64574500       0.68778500       0.76141250 </v>
   <v>       0.89572500       0.93673000       0.63531750 </v>
   <v>       0.52141500       0.81227500       0.82284750 </v>
   <v>       0.83289000       0.87625500       0.04155500 </v>
   <v>       0.95828500       0.75070500       0.97884250 </v>
  </varray>
 </structure>
</modeling>
