 256 256   0   0
  0.1418917E+02  0.1588033E-08  0.1692661E-08  0.1693229E-08  0.5000000E-15
  1.000000000000000E-004
  CAR 
 Ir_Ru                                   
     14.26851992     -1.29193400  301      9.45691151      1.00000000
     -1.292  0.0000E+00  0.0000E+00
     -1.240  0.0000E+00  0.0000E+00
     -1.188  0.0000E+00  0.0000E+00
     -1.136 -0.2763E-30 -0.1433E-31
     -1.084 -0.1262E-26 -0.6548E-28
     -1.033 -0.3353E-23 -0.1740E-24
     -0.981 -0.5174E-20 -0.2685E-21
     -0.929 -0.4635E-17 -0.2407E-18
     -0.877 -0.2349E-14 -0.1221E-15
     -0.825 -0.6999E-12 -0.3643E-13
     -0.773 -0.1209E-09 -0.6306E-11
     -0.721 -0.1202E-07 -0.6295E-09
     -0.670 -0.6847E-06 -0.3614E-07
     -0.618 -0.2224E-04 -0.1190E-05
     -0.566 -0.4088E-03 -0.2239E-04
     -0.514 -0.4211E-02 -0.2408E-03
     -0.462 -0.2406E-01 -0.1489E-02
     -0.410 -0.7474E-01 -0.5365E-02
     -0.358 -0.1024E+00 -0.1067E-01
     -0.306  0.2001E+00 -0.2967E-03
     -0.255  0.1620E+01  0.8375E-01
     -0.203  0.4373E+01  0.3106E+00
     -0.151  0.6347E+01  0.6398E+00
     -0.099  0.6424E+01  0.9730E+00
     -0.047  0.6948E+01  0.1333E+01
      0.005  0.8836E+01  0.1792E+01
      0.057  0.1115E+02  0.2370E+01
      0.109  0.1359E+02  0.3075E+01
      0.160  0.1435E+02  0.3819E+01
      0.212  0.1174E+02  0.4428E+01
      0.264  0.1005E+02  0.4950E+01
      0.316  0.1418E+02  0.5685E+01
      0.368  0.2028E+02  0.6737E+01
      0.420  0.2251E+02  0.7905E+01
      0.472  0.2270E+02  0.9082E+01
      0.523  0.2351E+02  0.1030E+02
      0.575  0.2256E+02  0.1147E+02
      0.627  0.2045E+02  0.1253E+02
      0.679  0.2098E+02  0.1362E+02
      0.731  0.2045E+02  0.1468E+02
      0.783  0.1472E+02  0.1544E+02
      0.835  0.8930E+01  0.1591E+02
      0.887  0.7984E+01  0.1632E+02
      0.938  0.1159E+02  0.1692E+02
      0.990  0.1873E+02  0.1789E+02
      1.042  0.2771E+02  0.1933E+02
      1.094  0.3332E+02  0.2106E+02
      1.146  0.3311E+02  0.2278E+02
      1.198  0.2893E+02  0.2428E+02
      1.250  0.2298E+02  0.2547E+02
      1.301  0.1951E+02  0.2648E+02
      1.353  0.2157E+02  0.2760E+02
      1.405  0.2704E+02  0.2900E+02
      1.457  0.3033E+02  0.3058E+02
      1.509  0.2987E+02  0.3213E+02
      1.561  0.2933E+02  0.3365E+02
      1.613  0.3038E+02  0.3522E+02
      1.665  0.3110E+02  0.3684E+02
      1.716  0.3196E+02  0.3849E+02
      1.768  0.3490E+02  0.4030E+02
      1.820  0.3897E+02  0.4232E+02
      1.872  0.4526E+02  0.4467E+02
      1.924  0.5440E+02  0.4749E+02
      1.976  0.5934E+02  0.5057E+02
      2.028  0.5498E+02  0.5342E+02
      2.079  0.5047E+02  0.5604E+02
      2.131  0.6092E+02  0.5920E+02
      2.183  0.8599E+02  0.6366E+02
      2.235  0.1082E+03  0.6927E+02
      2.287  0.1194E+03  0.7547E+02
      2.339  0.1256E+03  0.8198E+02
      2.391  0.1314E+03  0.8880E+02
      2.443  0.1373E+03  0.9592E+02
      2.494  0.1466E+03  0.1035E+03
      2.546  0.1636E+03  0.1120E+03
      2.598  0.1822E+03  0.1215E+03
      2.650  0.1944E+03  0.1315E+03
      2.702  0.2060E+03  0.1422E+03
      2.754  0.2230E+03  0.1538E+03
      2.806  0.2309E+03  0.1658E+03
      2.858  0.2249E+03  0.1774E+03
      2.909  0.2273E+03  0.1892E+03
      2.961  0.2445E+03  0.2019E+03
      3.013  0.2577E+03  0.2153E+03
      3.065  0.2600E+03  0.2288E+03
      3.117  0.2605E+03  0.2423E+03
      3.169  0.2638E+03  0.2560E+03
      3.221  0.2725E+03  0.2701E+03
      3.272  0.2873E+03  0.2850E+03
      3.324  0.3065E+03  0.3009E+03
      3.376  0.3238E+03  0.3177E+03
      3.428  0.3307E+03  0.3348E+03
      3.480  0.3281E+03  0.3518E+03
      3.532  0.3216E+03  0.3685E+03
      3.584  0.3182E+03  0.3850E+03
      3.636  0.3166E+03  0.4015E+03
      3.687  0.3112E+03  0.4176E+03
      3.739  0.3054E+03  0.4334E+03
      3.791  0.3013E+03  0.4491E+03
      3.843  0.2970E+03  0.4645E+03
      3.895  0.2933E+03  0.4797E+03
      3.947  0.2890E+03  0.4947E+03
      3.999  0.2770E+03  0.5090E+03
      4.050  0.2666E+03  0.5229E+03
      4.102  0.2747E+03  0.5371E+03
      4.154  0.2933E+03  0.5523E+03
      4.206  0.3025E+03  0.5680E+03
      4.258  0.3048E+03  0.5838E+03
      4.310  0.3115E+03  0.6000E+03
      4.362  0.3184E+03  0.6165E+03
      4.414  0.3212E+03  0.6332E+03
      4.465  0.3237E+03  0.6499E+03
      4.517  0.3214E+03  0.6666E+03
      4.569  0.3103E+03  0.6827E+03
      4.621  0.2977E+03  0.6982E+03
      4.673  0.2935E+03  0.7134E+03
      4.725  0.2979E+03  0.7288E+03
      4.777  0.3054E+03  0.7447E+03
      4.829  0.3170E+03  0.7611E+03
      4.880  0.3308E+03  0.7783E+03
      4.932  0.3376E+03  0.7958E+03
      4.984  0.3445E+03  0.8136E+03
      5.036  0.3574E+03  0.8322E+03
      5.088  0.3654E+03  0.8511E+03
      5.140  0.3645E+03  0.8700E+03
      5.192  0.3558E+03  0.8885E+03
      5.243  0.3360E+03  0.9059E+03
      5.295  0.3045E+03  0.9217E+03
      5.347  0.2640E+03  0.9354E+03
      5.399  0.2207E+03  0.9469E+03
      5.451  0.1859E+03  0.9565E+03
      5.503  0.1725E+03  0.9654E+03
      5.555  0.1875E+03  0.9752E+03
      5.607  0.2248E+03  0.9868E+03
      5.658  0.2728E+03  0.1001E+04
      5.710  0.3230E+03  0.1018E+04
      5.762  0.3657E+03  0.1037E+04
      5.814  0.3940E+03  0.1057E+04
      5.866  0.4098E+03  0.1078E+04
      5.918  0.4190E+03  0.1100E+04
      5.970  0.4255E+03  0.1122E+04
      6.021  0.4283E+03  0.1144E+04
      6.073  0.4175E+03  0.1166E+04
      6.125  0.3934E+03  0.1186E+04
      6.177  0.3728E+03  0.1206E+04
      6.229  0.3618E+03  0.1225E+04
      6.281  0.3558E+03  0.1243E+04
      6.333  0.3561E+03  0.1261E+04
      6.385  0.3681E+03  0.1281E+04
      6.436  0.3814E+03  0.1300E+04
      6.488  0.3842E+03  0.1320E+04
      6.540  0.3906E+03  0.1341E+04
      6.592  0.4086E+03  0.1362E+04
      6.644  0.4235E+03  0.1384E+04
      6.696  0.4282E+03  0.1406E+04
      6.748  0.4255E+03  0.1428E+04
      6.800  0.4141E+03  0.1449E+04
      6.851  0.3935E+03  0.1470E+04
      6.903  0.3743E+03  0.1489E+04
      6.955  0.3668E+03  0.1508E+04
      7.007  0.3639E+03  0.1527E+04
      7.059  0.3671E+03  0.1546E+04
      7.111  0.3891E+03  0.1566E+04
      7.163  0.4136E+03  0.1588E+04
      7.214  0.4221E+03  0.1610E+04
      7.266  0.4225E+03  0.1632E+04
      7.318  0.4146E+03  0.1653E+04
      7.370  0.3902E+03  0.1673E+04
      7.422  0.3607E+03  0.1692E+04
      7.474  0.3412E+03  0.1710E+04
      7.526  0.3329E+03  0.1727E+04
      7.578  0.3293E+03  0.1744E+04
      7.629  0.3186E+03  0.1761E+04
      7.681  0.2975E+03  0.1776E+04
      7.733  0.2785E+03  0.1791E+04
      7.785  0.2691E+03  0.1805E+04
      7.837  0.2641E+03  0.1818E+04
      7.889  0.2582E+03  0.1832E+04
      7.941  0.2492E+03  0.1845E+04
      7.992  0.2430E+03  0.1857E+04
      8.044  0.2432E+03  0.1870E+04
      8.096  0.2399E+03  0.1882E+04
      8.148  0.2319E+03  0.1894E+04
      8.200  0.2288E+03  0.1906E+04
      8.252  0.2329E+03  0.1918E+04
      8.304  0.2375E+03  0.1930E+04
      8.356  0.2391E+03  0.1943E+04
      8.407  0.2374E+03  0.1955E+04
      8.459  0.2297E+03  0.1967E+04
      8.511  0.2192E+03  0.1978E+04
      8.563  0.2125E+03  0.1990E+04
      8.615  0.2077E+03  0.2000E+04
      8.667  0.2006E+03  0.2011E+04
      8.719  0.1922E+03  0.2021E+04
      8.770  0.1838E+03  0.2030E+04
      8.822  0.1794E+03  0.2039E+04
      8.874  0.1867E+03  0.2049E+04
      8.926  0.2105E+03  0.2060E+04
      8.978  0.2342E+03  0.2072E+04
      9.030  0.2371E+03  0.2085E+04
      9.082  0.2249E+03  0.2096E+04
      9.134  0.2082E+03  0.2107E+04
      9.185  0.1887E+03  0.2117E+04
      9.237  0.1786E+03  0.2126E+04
      9.289  0.1946E+03  0.2136E+04
      9.341  0.2259E+03  0.2148E+04
      9.393  0.2426E+03  0.2160E+04
      9.445  0.2429E+03  0.2173E+04
      9.497  0.2446E+03  0.2186E+04
      9.549  0.2447E+03  0.2198E+04
      9.600  0.2453E+03  0.2211E+04
      9.652  0.2705E+03  0.2225E+04
      9.704  0.3139E+03  0.2241E+04
      9.756  0.3354E+03  0.2259E+04
      9.808  0.3277E+03  0.2276E+04
      9.860  0.3171E+03  0.2292E+04
      9.912  0.3151E+03  0.2309E+04
      9.963  0.3206E+03  0.2325E+04
     10.015  0.3401E+03  0.2343E+04
     10.067  0.3760E+03  0.2362E+04
     10.119  0.4105E+03  0.2384E+04
     10.171  0.4276E+03  0.2406E+04
     10.223  0.4353E+03  0.2428E+04
     10.275  0.4470E+03  0.2452E+04
     10.327  0.4648E+03  0.2476E+04
     10.378  0.4831E+03  0.2501E+04
     10.430  0.4939E+03  0.2526E+04
     10.482  0.4880E+03  0.2552E+04
     10.534  0.4541E+03  0.2575E+04
     10.586  0.3967E+03  0.2596E+04
     10.638  0.3309E+03  0.2613E+04
     10.690  0.2517E+03  0.2626E+04
     10.741  0.1534E+03  0.2634E+04
     10.793  0.6088E+02  0.2637E+04
     10.845  0.7711E+01  0.2638E+04
     10.897 -0.5519E+01  0.2637E+04
     10.949 -0.3209E+01  0.2637E+04
     11.001 -0.7904E+00  0.2637E+04
     11.053 -0.1148E+00  0.2637E+04
     11.105 -0.1125E-01  0.2637E+04
     11.156 -0.7830E-03  0.2637E+04
     11.208 -0.3706E-04  0.2637E+04
     11.260 -0.1108E-05  0.2637E+04
     11.312 -0.1987E-07  0.2637E+04
     11.364 -0.2088E-09  0.2637E+04
     11.416 -0.3485E-11  0.2637E+04
     11.468 -0.3644E-09  0.2637E+04
     11.520 -0.3455E-07  0.2637E+04
     11.571 -0.1874E-05  0.2637E+04
     11.623 -0.5770E-04  0.2637E+04
     11.675 -0.9937E-03  0.2637E+04
     11.727 -0.9293E-02  0.2637E+04
     11.779 -0.4366E-01  0.2637E+04
     11.831 -0.7244E-01  0.2637E+04
     11.883  0.1599E+00  0.2637E+04
     11.934  0.9304E+00  0.2637E+04
     11.986  0.1837E+01  0.2637E+04
     12.038  0.1999E+01  0.2637E+04
     12.090  0.1180E+01  0.2637E+04
     12.142  0.3946E+00  0.2637E+04
     12.194  0.9932E+00  0.2637E+04
     12.246  0.2596E+01  0.2638E+04
     12.298  0.3414E+01  0.2638E+04
     12.349  0.3123E+01  0.2638E+04
     12.401  0.2728E+01  0.2638E+04
     12.453  0.2551E+01  0.2638E+04
     12.505  0.2274E+01  0.2638E+04
     12.557  0.2088E+01  0.2638E+04
     12.609  0.2404E+01  0.2639E+04
     12.661  0.3110E+01  0.2639E+04
     12.712  0.3810E+01  0.2639E+04
     12.764  0.3825E+01  0.2639E+04
     12.816  0.3208E+01  0.2639E+04
     12.868  0.2712E+01  0.2639E+04
     12.920  0.2214E+01  0.2640E+04
     12.972  0.1536E+01  0.2640E+04
     13.024  0.1102E+01  0.2640E+04
     13.076  0.8987E+00  0.2640E+04
     13.127  0.7748E+00  0.2640E+04
     13.179  0.9384E+00  0.2640E+04
     13.231  0.1171E+01  0.2640E+04
     13.283  0.1114E+01  0.2640E+04
     13.335  0.6683E+00  0.2640E+04
     13.387  0.1536E+00  0.2640E+04
     13.439 -0.4476E-01  0.2640E+04
     13.490 -0.3278E-01  0.2640E+04
     13.542 -0.7168E-02  0.2640E+04
     13.594 -0.7588E-03  0.2640E+04
     13.646 -0.4289E-04  0.2640E+04
     13.698 -0.1344E-05  0.2640E+04
     13.750 -0.2380E-07  0.2640E+04
     13.802 -0.2406E-09  0.2640E+04
     13.854 -0.1396E-11  0.2640E+04
     13.905 -0.4757E-14  0.2640E+04
     13.957  0.0000E+00  0.2640E+04
     14.009  0.0000E+00  0.2640E+04
     14.061  0.0000E+00  0.2640E+04
     14.113  0.0000E+00  0.2640E+04
     14.165  0.0000E+00  0.2640E+04
     14.217  0.0000E+00  0.2640E+04
     14.269  0.0000E+00  0.2640E+04
