       N       E                     dE             d eps       ncg     rms          rms(c)
RMM:   1     0.136790935102E+05    0.13679E+05   -0.47218E+05 25080   0.725E+02
RMM:   2     0.131340562938E+04   -0.12366E+05   -0.13120E+05 25080   0.260E+02
RMM:   3    -0.104566601892E+04   -0.23591E+04   -0.22855E+04 25080   0.111E+02
RMM:   4    -0.184599120326E+04   -0.80033E+03   -0.57408E+03 25080   0.768E+01
RMM:   5    -0.212911055519E+04   -0.28312E+03   -0.24896E+03 25080   0.451E+01
RMM:   6    -0.227482723246E+04   -0.14572E+03   -0.12952E+03 25080   0.349E+01
RMM:   7    -0.235268966241E+04   -0.77862E+02   -0.73853E+02 25080   0.235E+01
RMM:   8    -0.240018757136E+04   -0.47498E+02   -0.44557E+02 25080   0.195E+01
RMM:   9    -0.247908304856E+04   -0.78895E+02   -0.77975E+02 71867   0.137E+01
RMM:  10    -0.248863954825E+04   -0.95565E+01   -0.11979E+02 79674   0.283E+00
RMM:  11    -0.249087832206E+04   -0.22388E+01   -0.17827E+01 77283   0.686E-01
RMM:  12    -0.249118556089E+04   -0.30724E+00   -0.19906E+00 79552   0.198E-01    0.782E+01
RMM:  13    -0.241364806763E+04    0.77537E+02   -0.68480E+02 57181   0.246E+01    0.583E+01
RMM:  14    -0.236779405238E+04    0.45854E+02   -0.34131E+02 51448   0.174E+01    0.416E+01
RMM:  15    -0.233562972546E+04    0.32164E+02   -0.11851E+02 53319   0.101E+01    0.255E+01
RMM:  16    -0.232131285488E+04    0.14317E+02   -0.25861E+01 56016   0.435E+00    0.434E+00
RMM:  17    -0.232144232544E+04   -0.12947E+00   -0.64230E+00 73475   0.132E+00    0.418E+00
RMM:  18    -0.232110054593E+04    0.34178E+00   -0.11763E+00 64122   0.724E-01    0.338E+00
RMM:  19    -0.232075627567E+04    0.34427E+00   -0.59932E-01 60568   0.678E-01    0.173E+00
RMM:  20    -0.232070516142E+04    0.51114E-01   -0.23805E-01 64235   0.341E-01    0.160E+00
RMM:  21    -0.232065854113E+04    0.46620E-01   -0.11805E-01 62103   0.251E-01    0.118E+00
RMM:  22    -0.232063506422E+04    0.23477E-01   -0.49041E-02 60878   0.164E-01    0.710E-01
RMM:  23    -0.232062991175E+04    0.51525E-02   -0.13270E-02 67330   0.675E-02    0.496E-01
RMM:  24    -0.232062617951E+04    0.37322E-02   -0.10599E-02 62152   0.773E-02    0.244E-01
RMM:  25    -0.232062722887E+04   -0.10494E-02   -0.13438E-02 66284   0.798E-02    0.262E-01
RMM:  26    -0.232062734941E+04   -0.12054E-03   -0.32554E-03 75135   0.283E-02    0.270E-01
RMM:  27    -0.232062640479E+04    0.94462E-03   -0.72249E-04 60034   0.207E-02    0.178E-01
RMM:  28    -0.232062582650E+04    0.57829E-03   -0.11267E-03 63916   0.243E-02    0.736E-02
RMM:  29    -0.232062573345E+04    0.93049E-04   -0.58220E-04 71088   0.150E-02
   1 F= -.23206257E+04 E0= -.23206258E+04  d E =0.713464E-04
