 256 256   0   0
  0.1418917E+02  0.1588033E-08  0.1692661E-08  0.1693229E-08  0.5000000E-15
  1.000000000000000E-004
  CAR 
 Ir_Ru                                   
     14.26822456     -1.29158629  301      9.45695578      1.00000000
     -1.292  0.0000E+00  0.0000E+00
     -1.240  0.0000E+00  0.0000E+00
     -1.188  0.0000E+00  0.0000E+00
     -1.136 -0.2760E-30 -0.1432E-31
     -1.084 -0.1261E-26 -0.6539E-28
     -1.032 -0.3348E-23 -0.1737E-24
     -0.980 -0.5165E-20 -0.2681E-21
     -0.929 -0.4627E-17 -0.2402E-18
     -0.877 -0.2344E-14 -0.1218E-15
     -0.825 -0.6986E-12 -0.3635E-13
     -0.773 -0.1206E-09 -0.6293E-11
     -0.721 -0.1199E-07 -0.6283E-09
     -0.669 -0.6834E-06 -0.3607E-07
     -0.617 -0.2220E-04 -0.1188E-05
     -0.565 -0.4082E-03 -0.2236E-04
     -0.514 -0.4206E-02 -0.2405E-03
     -0.462 -0.2403E-01 -0.1487E-02
     -0.410 -0.7468E-01 -0.5360E-02
     -0.358 -0.1023E+00 -0.1067E-01
     -0.306  0.1995E+00 -0.3208E-03
     -0.254  0.1618E+01  0.8361E-01
     -0.202  0.4370E+01  0.3103E+00
     -0.151  0.6346E+01  0.6394E+00
     -0.099  0.6424E+01  0.9726E+00
     -0.047  0.6945E+01  0.1333E+01
      0.005  0.8830E+01  0.1791E+01
      0.057  0.1115E+02  0.2369E+01
      0.109  0.1358E+02  0.3073E+01
      0.161  0.1436E+02  0.3818E+01
      0.213  0.1175E+02  0.4427E+01
      0.264  0.1004E+02  0.4948E+01
      0.316  0.1416E+02  0.5683E+01
      0.368  0.2026E+02  0.6733E+01
      0.420  0.2251E+02  0.7901E+01
      0.472  0.2269E+02  0.9078E+01
      0.524  0.2350E+02  0.1030E+02
      0.576  0.2256E+02  0.1147E+02
      0.627  0.2045E+02  0.1253E+02
      0.679  0.2096E+02  0.1361E+02
      0.731  0.2044E+02  0.1467E+02
      0.783  0.1475E+02  0.1544E+02
      0.835  0.8964E+01  0.1590E+02
      0.887  0.8008E+01  0.1632E+02
      0.939  0.1161E+02  0.1692E+02
      0.991  0.1875E+02  0.1789E+02
      1.042  0.2769E+02  0.1933E+02
      1.094  0.3330E+02  0.2106E+02
      1.146  0.3313E+02  0.2278E+02
      1.198  0.2894E+02  0.2428E+02
      1.250  0.2297E+02  0.2547E+02
      1.302  0.1950E+02  0.2648E+02
      1.354  0.2155E+02  0.2760E+02
      1.405  0.2703E+02  0.2900E+02
      1.457  0.3033E+02  0.3057E+02
      1.509  0.2988E+02  0.3212E+02
      1.561  0.2932E+02  0.3364E+02
      1.613  0.3036E+02  0.3522E+02
      1.665  0.3110E+02  0.3683E+02
      1.717  0.3196E+02  0.3849E+02
      1.769  0.3489E+02  0.4030E+02
      1.820  0.3894E+02  0.4232E+02
      1.872  0.4520E+02  0.4466E+02
      1.924  0.5435E+02  0.4748E+02
      1.976  0.5934E+02  0.5056E+02
      2.028  0.5501E+02  0.5341E+02
      2.080  0.5046E+02  0.5603E+02
      2.132  0.6082E+02  0.5918E+02
      2.183  0.8584E+02  0.6364E+02
      2.235  0.1081E+03  0.6924E+02
      2.287  0.1194E+03  0.7544E+02
      2.339  0.1256E+03  0.8195E+02
      2.391  0.1313E+03  0.8876E+02
      2.443  0.1372E+03  0.9588E+02
      2.495  0.1466E+03  0.1035E+03
      2.547  0.1635E+03  0.1120E+03
      2.598  0.1822E+03  0.1214E+03
      2.650  0.1945E+03  0.1315E+03
      2.702  0.2062E+03  0.1422E+03
      2.754  0.2230E+03  0.1538E+03
      2.806  0.2308E+03  0.1657E+03
      2.858  0.2247E+03  0.1774E+03
      2.910  0.2271E+03  0.1892E+03
      2.961  0.2444E+03  0.2018E+03
      3.013  0.2578E+03  0.2152E+03
      3.065  0.2602E+03  0.2287E+03
      3.117  0.2606E+03  0.2422E+03
      3.169  0.2638E+03  0.2559E+03
      3.221  0.2724E+03  0.2700E+03
      3.273  0.2873E+03  0.2849E+03
      3.324  0.3066E+03  0.3008E+03
      3.376  0.3240E+03  0.3176E+03
      3.428  0.3310E+03  0.3348E+03
      3.480  0.3282E+03  0.3518E+03
      3.532  0.3217E+03  0.3685E+03
      3.584  0.3184E+03  0.3850E+03
      3.636  0.3169E+03  0.4015E+03
      3.688  0.3114E+03  0.4176E+03
      3.739  0.3053E+03  0.4335E+03
      3.791  0.3013E+03  0.4491E+03
      3.843  0.2971E+03  0.4645E+03
      3.895  0.2934E+03  0.4797E+03
      3.947  0.2888E+03  0.4947E+03
      3.999  0.2768E+03  0.5090E+03
      4.051  0.2664E+03  0.5229E+03
      4.102  0.2746E+03  0.5371E+03
      4.154  0.2933E+03  0.5523E+03
      4.206  0.3026E+03  0.5680E+03
      4.258  0.3050E+03  0.5838E+03
      4.310  0.3117E+03  0.6000E+03
      4.362  0.3185E+03  0.6165E+03
      4.414  0.3213E+03  0.6332E+03
      4.466  0.3238E+03  0.6500E+03
      4.517  0.3215E+03  0.6667E+03
      4.569  0.3102E+03  0.6827E+03
      4.621  0.2976E+03  0.6982E+03
      4.673  0.2934E+03  0.7134E+03
      4.725  0.2979E+03  0.7288E+03
      4.777  0.3055E+03  0.7447E+03
      4.829  0.3171E+03  0.7611E+03
      4.880  0.3309E+03  0.7783E+03
      4.932  0.3376E+03  0.7958E+03
      4.984  0.3448E+03  0.8137E+03
      5.036  0.3578E+03  0.8322E+03
      5.088  0.3656E+03  0.8512E+03
      5.140  0.3646E+03  0.8701E+03
      5.192  0.3559E+03  0.8886E+03
      5.244  0.3361E+03  0.9060E+03
      5.295  0.3043E+03  0.9218E+03
      5.347  0.2636E+03  0.9355E+03
      5.399  0.2203E+03  0.9469E+03
      5.451  0.1857E+03  0.9565E+03
      5.503  0.1723E+03  0.9655E+03
      5.555  0.1873E+03  0.9752E+03
      5.607  0.2246E+03  0.9868E+03
      5.658  0.2727E+03  0.1001E+04
      5.710  0.3230E+03  0.1018E+04
      5.762  0.3658E+03  0.1037E+04
      5.814  0.3940E+03  0.1057E+04
      5.866  0.4097E+03  0.1078E+04
      5.918  0.4188E+03  0.1100E+04
      5.970  0.4255E+03  0.1122E+04
      6.022  0.4284E+03  0.1144E+04
      6.073  0.4176E+03  0.1166E+04
      6.125  0.3935E+03  0.1186E+04
      6.177  0.3727E+03  0.1206E+04
      6.229  0.3617E+03  0.1225E+04
      6.281  0.3557E+03  0.1243E+04
      6.333  0.3560E+03  0.1261E+04
      6.385  0.3680E+03  0.1281E+04
      6.436  0.3814E+03  0.1300E+04
      6.488  0.3844E+03  0.1320E+04
      6.540  0.3909E+03  0.1341E+04
      6.592  0.4086E+03  0.1362E+04
      6.644  0.4233E+03  0.1384E+04
      6.696  0.4281E+03  0.1406E+04
      6.748  0.4257E+03  0.1428E+04
      6.800  0.4143E+03  0.1449E+04
      6.851  0.3935E+03  0.1470E+04
      6.903  0.3744E+03  0.1489E+04
      6.955  0.3669E+03  0.1508E+04
      7.007  0.3640E+03  0.1527E+04
      7.059  0.3671E+03  0.1546E+04
      7.111  0.3891E+03  0.1566E+04
      7.163  0.4136E+03  0.1588E+04
      7.214  0.4220E+03  0.1610E+04
      7.266  0.4226E+03  0.1632E+04
      7.318  0.4148E+03  0.1653E+04
      7.370  0.3903E+03  0.1673E+04
      7.422  0.3607E+03  0.1692E+04
      7.474  0.3413E+03  0.1710E+04
      7.526  0.3331E+03  0.1727E+04
      7.578  0.3293E+03  0.1744E+04
      7.629  0.3184E+03  0.1761E+04
      7.681  0.2974E+03  0.1776E+04
      7.733  0.2784E+03  0.1791E+04
      7.785  0.2690E+03  0.1805E+04
      7.837  0.2639E+03  0.1818E+04
      7.889  0.2581E+03  0.1832E+04
      7.941  0.2491E+03  0.1845E+04
      7.992  0.2431E+03  0.1857E+04
      8.044  0.2433E+03  0.1870E+04
      8.096  0.2399E+03  0.1882E+04
      8.148  0.2319E+03  0.1894E+04
      8.200  0.2289E+03  0.1906E+04
      8.252  0.2328E+03  0.1918E+04
      8.304  0.2373E+03  0.1930E+04
      8.355  0.2390E+03  0.1943E+04
      8.407  0.2374E+03  0.1955E+04
      8.459  0.2297E+03  0.1967E+04
      8.511  0.2192E+03  0.1978E+04
      8.563  0.2124E+03  0.1989E+04
      8.615  0.2077E+03  0.2000E+04
      8.667  0.2006E+03  0.2011E+04
      8.719  0.1922E+03  0.2021E+04
      8.770  0.1838E+03  0.2030E+04
      8.822  0.1794E+03  0.2039E+04
      8.874  0.1866E+03  0.2049E+04
      8.926  0.2103E+03  0.2060E+04
      8.978  0.2341E+03  0.2072E+04
      9.030  0.2371E+03  0.2085E+04
      9.082  0.2250E+03  0.2096E+04
      9.133  0.2083E+03  0.2107E+04
      9.185  0.1888E+03  0.2117E+04
      9.237  0.1786E+03  0.2126E+04
      9.289  0.1945E+03  0.2136E+04
      9.341  0.2256E+03  0.2148E+04
      9.393  0.2425E+03  0.2160E+04
      9.445  0.2430E+03  0.2173E+04
      9.497  0.2447E+03  0.2186E+04
      9.548  0.2447E+03  0.2198E+04
      9.600  0.2452E+03  0.2211E+04
      9.652  0.2704E+03  0.2225E+04
      9.704  0.3138E+03  0.2241E+04
      9.756  0.3354E+03  0.2259E+04
      9.808  0.3277E+03  0.2276E+04
      9.860  0.3171E+03  0.2292E+04
      9.911  0.3151E+03  0.2309E+04
      9.963  0.3206E+03  0.2325E+04
     10.015  0.3399E+03  0.2343E+04
     10.067  0.3757E+03  0.2362E+04
     10.119  0.4103E+03  0.2384E+04
     10.171  0.4275E+03  0.2406E+04
     10.223  0.4352E+03  0.2428E+04
     10.275  0.4470E+03  0.2452E+04
     10.326  0.4652E+03  0.2476E+04
     10.378  0.4844E+03  0.2501E+04
     10.430  0.4966E+03  0.2527E+04
     10.482  0.4917E+03  0.2552E+04
     10.534  0.4574E+03  0.2576E+04
     10.586  0.3981E+03  0.2596E+04
     10.638  0.3295E+03  0.2614E+04
     10.689  0.2480E+03  0.2626E+04
     10.741  0.1487E+03  0.2634E+04
     10.793  0.5719E+02  0.2637E+04
     10.845  0.6127E+01  0.2637E+04
     10.897 -0.5723E+01  0.2637E+04
     10.949 -0.3083E+01  0.2637E+04
     11.001 -0.3964E+00  0.2637E+04
     11.053  0.7244E+00  0.2637E+04
     11.104  0.7964E+00  0.2637E+04
     11.156  0.3044E+00  0.2637E+04
     11.208 -0.1108E-01  0.2637E+04
     11.260 -0.3968E-01  0.2637E+04
     11.312 -0.1123E-01  0.2637E+04
     11.364 -0.1421E-02  0.2637E+04
     11.416 -0.9396E-04  0.2637E+04
     11.467 -0.3416E-05  0.2637E+04
     11.519 -0.7009E-07  0.2637E+04
     11.571 -0.2485E-07  0.2637E+04
     11.623 -0.1483E-05  0.2637E+04
     11.675 -0.5229E-04  0.2637E+04
     11.727 -0.1039E-02  0.2637E+04
     11.779 -0.1135E-01  0.2637E+04
     11.831 -0.6361E-01  0.2637E+04
     11.882 -0.1408E+00  0.2637E+04
     11.934  0.1715E+00  0.2637E+04
     11.986  0.1492E+01  0.2637E+04
     12.038  0.2995E+01  0.2637E+04
     12.090  0.2799E+01  0.2637E+04
     12.142  0.1350E+01  0.2637E+04
     12.194  0.8590E+00  0.2637E+04
     12.245  0.1899E+01  0.2638E+04
     12.297  0.3321E+01  0.2638E+04
     12.349  0.3836E+01  0.2638E+04
     12.401  0.3317E+01  0.2638E+04
     12.453  0.2606E+01  0.2638E+04
     12.505  0.2261E+01  0.2638E+04
     12.557  0.2481E+01  0.2639E+04
     12.609  0.2836E+01  0.2639E+04
     12.660  0.3241E+01  0.2639E+04
     12.712  0.3774E+01  0.2639E+04
     12.764  0.3284E+01  0.2639E+04
     12.816  0.2204E+01  0.2639E+04
     12.868  0.2120E+01  0.2639E+04
     12.920  0.2427E+01  0.2640E+04
     12.972  0.1959E+01  0.2640E+04
     13.023  0.1251E+01  0.2640E+04
     13.075  0.8751E+00  0.2640E+04
     13.127  0.7410E+00  0.2640E+04
     13.179  0.9282E+00  0.2640E+04
     13.231  0.1175E+01  0.2640E+04
     13.283  0.1119E+01  0.2640E+04
     13.335  0.6690E+00  0.2640E+04
     13.387  0.1530E+00  0.2640E+04
     13.438 -0.4497E-01  0.2640E+04
     13.490 -0.3278E-01  0.2640E+04
     13.542 -0.7162E-02  0.2640E+04
     13.594 -0.7578E-03  0.2640E+04
     13.646 -0.4282E-04  0.2640E+04
     13.698 -0.1342E-05  0.2640E+04
     13.750 -0.2376E-07  0.2640E+04
     13.801 -0.2401E-09  0.2640E+04
     13.853 -0.1393E-11  0.2640E+04
     13.905 -0.4757E-14  0.2640E+04
     13.957  0.0000E+00  0.2640E+04
     14.009  0.0000E+00  0.2640E+04
     14.061  0.0000E+00  0.2640E+04
     14.113  0.0000E+00  0.2640E+04
     14.164  0.0000E+00  0.2640E+04
     14.216  0.0000E+00  0.2640E+04
     14.268  0.0000E+00  0.2640E+04
