 256 256   0   0
  0.1418917E+02  0.1588033E-08  0.1692661E-08  0.1693229E-08  0.5000000E-15
  1.000000000000000E-004
  CAR 
 Ir_Ru                                   
     14.28584009     -1.29152491  301      9.45689371      1.00000000
     -1.292  0.0000E+00  0.0000E+00
     -1.240  0.0000E+00  0.0000E+00
     -1.188  0.0000E+00  0.0000E+00
     -1.136 -0.2840E-30 -0.1474E-31
     -1.084 -0.1306E-26 -0.6785E-28
     -1.032 -0.3491E-23 -0.1813E-24
     -0.980 -0.5412E-20 -0.2812E-21
     -0.928 -0.4866E-17 -0.2529E-18
     -0.876 -0.2475E-14 -0.1288E-15
     -0.824 -0.7373E-12 -0.3841E-13
     -0.772 -0.1273E-09 -0.6649E-11
     -0.720 -0.1264E-07 -0.6629E-09
     -0.668 -0.7183E-06 -0.3796E-07
     -0.617 -0.2324E-04 -0.1245E-05
     -0.565 -0.4250E-03 -0.2331E-04
     -0.513 -0.4350E-02 -0.2492E-03
     -0.461 -0.2465E-01 -0.1529E-02
     -0.409 -0.7580E-01 -0.5465E-02
     -0.357 -0.1013E+00 -0.1073E-01
     -0.305  0.2145E+00  0.4101E-03
     -0.253  0.1668E+01  0.8702E-01
     -0.201  0.4436E+01  0.3174E+00
     -0.149  0.6365E+01  0.6479E+00
     -0.097  0.6421E+01  0.9813E+00
     -0.045  0.6982E+01  0.1344E+01
      0.007  0.8892E+01  0.1806E+01
      0.059  0.1122E+02  0.2388E+01
      0.110  0.1364E+02  0.3097E+01
      0.162  0.1433E+02  0.3840E+01
      0.214  0.1164E+02  0.4445E+01
      0.266  0.1009E+02  0.4969E+01
      0.318  0.1438E+02  0.5715E+01
      0.370  0.2042E+02  0.6776E+01
      0.422  0.2254E+02  0.7946E+01
      0.474  0.2275E+02  0.9127E+01
      0.526  0.2353E+02  0.1035E+02
      0.578  0.2246E+02  0.1151E+02
      0.630  0.2043E+02  0.1258E+02
      0.682  0.2104E+02  0.1367E+02
      0.734  0.2029E+02  0.1472E+02
      0.785  0.1440E+02  0.1547E+02
      0.837  0.8762E+01  0.1592E+02
      0.889  0.8036E+01  0.1634E+02
      0.941  0.1183E+02  0.1696E+02
      0.993  0.1916E+02  0.1795E+02
      1.045  0.2806E+02  0.1941E+02
      1.097  0.3334E+02  0.2114E+02
      1.149  0.3295E+02  0.2285E+02
      1.201  0.2868E+02  0.2434E+02
      1.253  0.2269E+02  0.2552E+02
      1.305  0.1945E+02  0.2653E+02
      1.357  0.2182E+02  0.2766E+02
      1.409  0.2731E+02  0.2908E+02
      1.460  0.3035E+02  0.3065E+02
      1.512  0.2979E+02  0.3220E+02
      1.564  0.2938E+02  0.3373E+02
      1.616  0.3047E+02  0.3531E+02
      1.668  0.3115E+02  0.3693E+02
      1.720  0.3215E+02  0.3860E+02
      1.772  0.3521E+02  0.4042E+02
      1.824  0.3927E+02  0.4246E+02
      1.876  0.4574E+02  0.4484E+02
      1.928  0.5494E+02  0.4769E+02
      1.980  0.5936E+02  0.5077E+02
      2.032  0.5453E+02  0.5360E+02
      2.084  0.5058E+02  0.5623E+02
      2.135  0.6235E+02  0.5947E+02
      2.187  0.8786E+02  0.6403E+02
      2.239  0.1093E+03  0.6971E+02
      2.291  0.1200E+03  0.7594E+02
      2.343  0.1260E+03  0.8248E+02
      2.395  0.1318E+03  0.8932E+02
      2.447  0.1379E+03  0.9648E+02
      2.499  0.1478E+03  0.1042E+03
      2.551  0.1653E+03  0.1127E+03
      2.603  0.1835E+03  0.1223E+03
      2.655  0.1953E+03  0.1324E+03
      2.707  0.2074E+03  0.1432E+03
      2.759  0.2243E+03  0.1548E+03
      2.811  0.2306E+03  0.1668E+03
      2.862  0.2243E+03  0.1784E+03
      2.914  0.2283E+03  0.1903E+03
      2.966  0.2461E+03  0.2031E+03
      3.018  0.2582E+03  0.2165E+03
      3.070  0.2600E+03  0.2300E+03
      3.122  0.2606E+03  0.2435E+03
      3.174  0.2643E+03  0.2572E+03
      3.226  0.2737E+03  0.2714E+03
      3.278  0.2893E+03  0.2865E+03
      3.330  0.3088E+03  0.3025E+03
      3.382  0.3253E+03  0.3194E+03
      3.434  0.3311E+03  0.3366E+03
      3.486  0.3277E+03  0.3536E+03
      3.537  0.3213E+03  0.3703E+03
      3.589  0.3183E+03  0.3868E+03
      3.641  0.3164E+03  0.4032E+03
      3.693  0.3107E+03  0.4194E+03
      3.745  0.3049E+03  0.4352E+03
      3.797  0.3009E+03  0.4508E+03
      3.849  0.2966E+03  0.4662E+03
      3.901  0.2931E+03  0.4815E+03
      3.953  0.2879E+03  0.4964E+03
      4.005  0.2750E+03  0.5107E+03
      4.057  0.2661E+03  0.5245E+03
      4.109  0.2767E+03  0.5389E+03
      4.161  0.2952E+03  0.5542E+03
      4.212  0.3031E+03  0.5699E+03
      4.264  0.3056E+03  0.5858E+03
      4.316  0.3127E+03  0.6020E+03
      4.368  0.3190E+03  0.6186E+03
      4.420  0.3216E+03  0.6353E+03
      4.472  0.3239E+03  0.6521E+03
      4.524  0.3205E+03  0.6688E+03
      4.576  0.3084E+03  0.6848E+03
      4.628  0.2966E+03  0.7002E+03
      4.680  0.2938E+03  0.7154E+03
      4.732  0.2988E+03  0.7310E+03
      4.784  0.3065E+03  0.7469E+03
      4.836  0.3190E+03  0.7634E+03
      4.887  0.3324E+03  0.7807E+03
      4.939  0.3383E+03  0.7983E+03
      4.991  0.3463E+03  0.8162E+03
      5.043  0.3595E+03  0.8349E+03
      5.095  0.3661E+03  0.8539E+03
      5.147  0.3638E+03  0.8728E+03
      5.199  0.3536E+03  0.8912E+03
      5.251  0.3320E+03  0.9084E+03
      5.303  0.2987E+03  0.9239E+03
      5.355  0.2571E+03  0.9373E+03
      5.407  0.2144E+03  0.9484E+03
      5.459  0.1823E+03  0.9579E+03
      5.511  0.1730E+03  0.9669E+03
      5.563  0.1920E+03  0.9768E+03
      5.614  0.2315E+03  0.9888E+03
      5.666  0.2807E+03  0.1003E+04
      5.718  0.3308E+03  0.1021E+04
      5.770  0.3714E+03  0.1040E+04
      5.822  0.3971E+03  0.1060E+04
      5.874  0.4110E+03  0.1082E+04
      5.926  0.4194E+03  0.1104E+04
      5.978  0.4259E+03  0.1126E+04
      6.030  0.4276E+03  0.1148E+04
      6.082  0.4142E+03  0.1169E+04
      6.134  0.3896E+03  0.1190E+04
      6.186  0.3706E+03  0.1209E+04
      6.238  0.3605E+03  0.1228E+04
      6.289  0.3551E+03  0.1246E+04
      6.341  0.3571E+03  0.1265E+04
      6.393  0.3708E+03  0.1284E+04
      6.445  0.3827E+03  0.1304E+04
      6.497  0.3847E+03  0.1324E+04
      6.549  0.3932E+03  0.1344E+04
      6.601  0.4118E+03  0.1366E+04
      6.653  0.4249E+03  0.1388E+04
      6.705  0.4281E+03  0.1410E+04
      6.757  0.4243E+03  0.1432E+04
      6.809  0.4112E+03  0.1453E+04
      6.861  0.3897E+03  0.1473E+04
      6.913  0.3722E+03  0.1493E+04
      6.964  0.3662E+03  0.1512E+04
      7.016  0.3635E+03  0.1531E+04
      7.068  0.3698E+03  0.1550E+04
      7.120  0.3944E+03  0.1570E+04
      7.172  0.4163E+03  0.1592E+04
      7.224  0.4223E+03  0.1614E+04
      7.276  0.4220E+03  0.1636E+04
      7.328  0.4114E+03  0.1657E+04
      7.380  0.3846E+03  0.1677E+04
      7.432  0.3560E+03  0.1696E+04
      7.484  0.3389E+03  0.1713E+04
      7.536  0.3324E+03  0.1730E+04
      7.588  0.3282E+03  0.1747E+04
      7.639  0.3150E+03  0.1764E+04
      7.691  0.2931E+03  0.1779E+04
      7.743  0.2759E+03  0.1793E+04
      7.795  0.2680E+03  0.1807E+04
      7.847  0.2631E+03  0.1821E+04
      7.899  0.2565E+03  0.1834E+04
      7.951  0.2472E+03  0.1847E+04
      8.003  0.2426E+03  0.1860E+04
      8.055  0.2432E+03  0.1872E+04
      8.107  0.2383E+03  0.1885E+04
      8.159  0.2307E+03  0.1897E+04
      8.211  0.2294E+03  0.1909E+04
      8.263  0.2341E+03  0.1921E+04
      8.315  0.2380E+03  0.1933E+04
      8.366  0.2390E+03  0.1946E+04
      8.418  0.2362E+03  0.1958E+04
      8.470  0.2273E+03  0.1970E+04
      8.522  0.2173E+03  0.1981E+04
      8.574  0.2115E+03  0.1992E+04
      8.626  0.2064E+03  0.2003E+04
      8.678  0.1988E+03  0.2013E+04
      8.730  0.1902E+03  0.2023E+04
      8.782  0.1823E+03  0.2032E+04
      8.834  0.1798E+03  0.2042E+04
      8.886  0.1907E+03  0.2051E+04
      8.938  0.2167E+03  0.2063E+04
      8.990  0.2368E+03  0.2075E+04
      9.041  0.2350E+03  0.2087E+04
      9.093  0.2214E+03  0.2099E+04
      9.145  0.2039E+03  0.2109E+04
      9.197  0.1849E+03  0.2119E+04
      9.249  0.1798E+03  0.2128E+04
      9.301  0.2015E+03  0.2139E+04
      9.353  0.2316E+03  0.2151E+04
      9.405  0.2433E+03  0.2163E+04
      9.457  0.2429E+03  0.2176E+04
      9.509  0.2453E+03  0.2189E+04
      9.561  0.2441E+03  0.2201E+04
      9.613  0.2484E+03  0.2214E+04
      9.665  0.2807E+03  0.2229E+04
      9.716  0.3223E+03  0.2246E+04
      9.768  0.3353E+03  0.2263E+04
      9.820  0.3244E+03  0.2280E+04
      9.872  0.3158E+03  0.2296E+04
      9.924  0.3156E+03  0.2313E+04
      9.976  0.3235E+03  0.2329E+04
     10.028  0.3477E+03  0.2348E+04
     10.080  0.3856E+03  0.2368E+04
     10.132  0.4163E+03  0.2389E+04
     10.184  0.4296E+03  0.2411E+04
     10.236  0.4375E+03  0.2434E+04
     10.288  0.4510E+03  0.2458E+04
     10.340  0.4696E+03  0.2482E+04
     10.391  0.4867E+03  0.2507E+04
     10.443  0.4945E+03  0.2533E+04
     10.495  0.4824E+03  0.2558E+04
     10.547  0.4412E+03  0.2581E+04
     10.599  0.3806E+03  0.2601E+04
     10.651  0.3126E+03  0.2617E+04
     10.703  0.2278E+03  0.2629E+04
     10.755  0.1268E+03  0.2635E+04
     10.807  0.4214E+02  0.2637E+04
     10.859  0.1335E+01  0.2638E+04
     10.911 -0.5386E+01  0.2637E+04
     10.963 -0.2375E+01  0.2637E+04
     11.015 -0.5053E+00  0.2637E+04
     11.067 -0.6337E-01  0.2637E+04
     11.118 -0.5046E-02  0.2637E+04
     11.170 -0.2625E-03  0.2637E+04
     11.222 -0.8840E-05  0.2637E+04
     11.274 -0.1870E-06  0.2637E+04
     11.326 -0.2410E-08  0.2637E+04
     11.378 -0.1851E-10  0.2637E+04
     11.430 -0.5153E-11  0.2637E+04
     11.482 -0.8010E-09  0.2637E+04
     11.534 -0.7317E-07  0.2637E+04
     11.586 -0.3848E-05  0.2637E+04
     11.638 -0.1156E-03  0.2637E+04
     11.690 -0.1952E-02  0.2637E+04
     11.742 -0.1789E-01  0.2637E+04
     11.793 -0.8042E-01  0.2637E+04
     11.845 -0.1040E+00  0.2637E+04
     11.897  0.4337E+00  0.2637E+04
     11.949  0.1799E+01  0.2637E+04
     12.001  0.2565E+01  0.2637E+04
     12.053  0.1693E+01  0.2637E+04
     12.105  0.7462E+00  0.2637E+04
     12.157  0.6052E+00  0.2638E+04
     12.209  0.7593E+00  0.2638E+04
     12.261  0.1890E+01  0.2638E+04
     12.313  0.3672E+01  0.2638E+04
     12.365  0.3893E+01  0.2638E+04
     12.417  0.2711E+01  0.2638E+04
     12.468  0.2017E+01  0.2638E+04
     12.520  0.2024E+01  0.2638E+04
     12.572  0.2191E+01  0.2639E+04
     12.624  0.2502E+01  0.2639E+04
     12.676  0.3366E+01  0.2639E+04
     12.728  0.4210E+01  0.2639E+04
     12.780  0.3755E+01  0.2639E+04
     12.832  0.2668E+01  0.2639E+04
     12.884  0.2225E+01  0.2639E+04
     12.936  0.2091E+01  0.2640E+04
     12.988  0.1845E+01  0.2640E+04
     13.040  0.1317E+01  0.2640E+04
     13.092  0.5882E+00  0.2640E+04
     13.143  0.4038E+00  0.2640E+04
     13.195  0.8386E+00  0.2640E+04
     13.247  0.1167E+01  0.2640E+04
     13.299  0.1111E+01  0.2640E+04
     13.351  0.6775E+00  0.2640E+04
     13.403  0.1629E+00  0.2640E+04
     13.455 -0.4296E-01  0.2640E+04
     13.507 -0.3324E-01  0.2640E+04
     13.559 -0.7378E-02  0.2640E+04
     13.611 -0.7878E-03  0.2640E+04
     13.663 -0.4480E-04  0.2640E+04
     13.715 -0.1410E-05  0.2640E+04
     13.767 -0.2504E-07  0.2640E+04
     13.819 -0.2534E-09  0.2640E+04
     13.870 -0.1470E-11  0.2640E+04
     13.922 -0.5227E-14  0.2640E+04
     13.974  0.0000E+00  0.2640E+04
     14.026  0.0000E+00  0.2640E+04
     14.078  0.0000E+00  0.2640E+04
     14.130  0.0000E+00  0.2640E+04
     14.182  0.0000E+00  0.2640E+04
     14.234  0.0000E+00  0.2640E+04
     14.286  0.0000E+00  0.2640E+04
