 256 256   0   0
  0.1418917E+02  0.1588033E-08  0.1692661E-08  0.1693229E-08  0.5000000E-15
  1.000000000000000E-004
  CAR 
 Ir_Ru                                   
     14.26544912     -1.29176030  301      9.45685370      1.00000000
     -1.292  0.0000E+00  0.0000E+00
     -1.240  0.0000E+00  0.0000E+00
     -1.188  0.0000E+00  0.0000E+00
     -1.136 -0.2749E-30 -0.1425E-31
     -1.084 -0.1254E-26 -0.6504E-28
     -1.032 -0.3327E-23 -0.1726E-24
     -0.981 -0.5130E-20 -0.2662E-21
     -0.929 -0.4592E-17 -0.2384E-18
     -0.877 -0.2326E-14 -0.1208E-15
     -0.825 -0.6930E-12 -0.3606E-13
     -0.773 -0.1197E-09 -0.6242E-11
     -0.721 -0.1190E-07 -0.6233E-09
     -0.669 -0.6784E-06 -0.3580E-07
     -0.618 -0.2205E-04 -0.1179E-05
     -0.566 -0.4057E-03 -0.2222E-04
     -0.514 -0.4185E-02 -0.2392E-03
     -0.462 -0.2394E-01 -0.1481E-02
     -0.410 -0.7453E-01 -0.5346E-02
     -0.358 -0.1026E+00 -0.1066E-01
     -0.306  0.1974E+00 -0.4306E-03
     -0.255  0.1612E+01  0.8314E-01
     -0.203  0.4362E+01  0.3093E+00
     -0.151  0.6343E+01  0.6382E+00
     -0.099  0.6424E+01  0.9714E+00
     -0.047  0.6943E+01  0.1331E+01
      0.005  0.8827E+01  0.1789E+01
      0.057  0.1114E+02  0.2367E+01
      0.108  0.1357E+02  0.3071E+01
      0.160  0.1436E+02  0.3815E+01
      0.212  0.1175E+02  0.4425E+01
      0.264  0.1005E+02  0.4946E+01
      0.316  0.1417E+02  0.5681E+01
      0.368  0.2027E+02  0.6733E+01
      0.420  0.2249E+02  0.7899E+01
      0.471  0.2265E+02  0.9074E+01
      0.523  0.2349E+02  0.1029E+02
      0.575  0.2259E+02  0.1146E+02
      0.627  0.2047E+02  0.1252E+02
      0.679  0.2097E+02  0.1361E+02
      0.731  0.2049E+02  0.1467E+02
      0.783  0.1479E+02  0.1544E+02
      0.834  0.8948E+01  0.1591E+02
      0.886  0.7957E+01  0.1632E+02
      0.938  0.1150E+02  0.1691E+02
      0.990  0.1855E+02  0.1788E+02
      1.042  0.2755E+02  0.1930E+02
      1.094  0.3334E+02  0.2103E+02
      1.146  0.3323E+02  0.2276E+02
      1.197  0.2900E+02  0.2426E+02
      1.249  0.2301E+02  0.2545E+02
      1.301  0.1953E+02  0.2647E+02
      1.353  0.2154E+02  0.2758E+02
      1.405  0.2696E+02  0.2898E+02
      1.457  0.3025E+02  0.3055E+02
      1.509  0.2985E+02  0.3210E+02
      1.560  0.2934E+02  0.3362E+02
      1.612  0.3038E+02  0.3520E+02
      1.664  0.3110E+02  0.3681E+02
      1.716  0.3193E+02  0.3846E+02
      1.768  0.3482E+02  0.4027E+02
      1.820  0.3887E+02  0.4229E+02
      1.872  0.4512E+02  0.4463E+02
      1.923  0.5421E+02  0.4744E+02
      1.975  0.5928E+02  0.5051E+02
      2.027  0.5512E+02  0.5337E+02
      2.079  0.5060E+02  0.5599E+02
      2.131  0.6089E+02  0.5915E+02
      2.183  0.8588E+02  0.6360E+02
      2.235  0.1081E+03  0.6921E+02
      2.286  0.1194E+03  0.7540E+02
      2.338  0.1254E+03  0.8190E+02
      2.390  0.1310E+03  0.8870E+02
      2.442  0.1370E+03  0.9580E+02
      2.494  0.1463E+03  0.1034E+03
      2.546  0.1632E+03  0.1118E+03
      2.598  0.1819E+03  0.1213E+03
      2.649  0.1943E+03  0.1314E+03
      2.701  0.2059E+03  0.1420E+03
      2.753  0.2228E+03  0.1536E+03
      2.805  0.2309E+03  0.1656E+03
      2.857  0.2250E+03  0.1772E+03
      2.909  0.2271E+03  0.1890E+03
      2.961  0.2442E+03  0.2017E+03
      3.012  0.2576E+03  0.2150E+03
      3.064  0.2601E+03  0.2285E+03
      3.116  0.2605E+03  0.2420E+03
      3.168  0.2638E+03  0.2557E+03
      3.220  0.2723E+03  0.2698E+03
      3.272  0.2870E+03  0.2847E+03
      3.324  0.3061E+03  0.3006E+03
      3.375  0.3235E+03  0.3174E+03
      3.427  0.3307E+03  0.3345E+03
      3.479  0.3284E+03  0.3515E+03
      3.531  0.3219E+03  0.3682E+03
      3.583  0.3182E+03  0.3847E+03
      3.635  0.3167E+03  0.4012E+03
      3.687  0.3114E+03  0.4173E+03
      3.738  0.3054E+03  0.4331E+03
      3.790  0.3014E+03  0.4488E+03
      3.842  0.2973E+03  0.4642E+03
      3.894  0.2936E+03  0.4794E+03
      3.946  0.2891E+03  0.4944E+03
      3.998  0.2771E+03  0.5088E+03
      4.050  0.2665E+03  0.5226E+03
      4.101  0.2744E+03  0.5368E+03
      4.153  0.2931E+03  0.5520E+03
      4.205  0.3027E+03  0.5677E+03
      4.257  0.3050E+03  0.5835E+03
      4.309  0.3116E+03  0.5997E+03
      4.361  0.3185E+03  0.6162E+03
      4.413  0.3212E+03  0.6329E+03
      4.464  0.3235E+03  0.6496E+03
      4.516  0.3214E+03  0.6663E+03
      4.568  0.3105E+03  0.6824E+03
      4.620  0.2981E+03  0.6979E+03
      4.672  0.2936E+03  0.7131E+03
      4.724  0.2978E+03  0.7285E+03
      4.776  0.3053E+03  0.7444E+03
      4.827  0.3168E+03  0.7608E+03
      4.879  0.3306E+03  0.7779E+03
      4.931  0.3376E+03  0.7954E+03
      4.983  0.3444E+03  0.8133E+03
      5.035  0.3573E+03  0.8318E+03
      5.087  0.3653E+03  0.8508E+03
      5.139  0.3645E+03  0.8697E+03
      5.190  0.3561E+03  0.8881E+03
      5.242  0.3366E+03  0.9056E+03
      5.294  0.3051E+03  0.9214E+03
      5.346  0.2647E+03  0.9351E+03
      5.398  0.2216E+03  0.9466E+03
      5.450  0.1866E+03  0.9563E+03
      5.502  0.1726E+03  0.9653E+03
      5.553  0.1869E+03  0.9749E+03
      5.605  0.2237E+03  0.9865E+03
      5.657  0.2714E+03  0.1001E+04
      5.709  0.3216E+03  0.1017E+04
      5.761  0.3647E+03  0.1036E+04
      5.813  0.3935E+03  0.1057E+04
      5.865  0.4095E+03  0.1078E+04
      5.916  0.4186E+03  0.1100E+04
      5.968  0.4252E+03  0.1122E+04
      6.020  0.4281E+03  0.1144E+04
      6.072  0.4179E+03  0.1165E+04
      6.124  0.3941E+03  0.1186E+04
      6.176  0.3733E+03  0.1205E+04
      6.228  0.3619E+03  0.1224E+04
      6.279  0.3557E+03  0.1242E+04
      6.331  0.3558E+03  0.1261E+04
      6.383  0.3677E+03  0.1280E+04
      6.435  0.3812E+03  0.1300E+04
      6.487  0.3841E+03  0.1320E+04
      6.539  0.3902E+03  0.1340E+04
      6.591  0.4080E+03  0.1361E+04
      6.642  0.4232E+03  0.1383E+04
      6.694  0.4283E+03  0.1405E+04
      6.746  0.4261E+03  0.1427E+04
      6.798  0.4151E+03  0.1449E+04
      6.850  0.3944E+03  0.1469E+04
      6.902  0.3746E+03  0.1489E+04
      6.954  0.3667E+03  0.1508E+04
      7.005  0.3640E+03  0.1527E+04
      7.057  0.3669E+03  0.1546E+04
      7.109  0.3883E+03  0.1566E+04
      7.161  0.4131E+03  0.1587E+04
      7.213  0.4220E+03  0.1609E+04
      7.265  0.4225E+03  0.1631E+04
      7.317  0.4152E+03  0.1653E+04
      7.368  0.3914E+03  0.1673E+04
      7.420  0.3617E+03  0.1692E+04
      7.472  0.3415E+03  0.1709E+04
      7.524  0.3329E+03  0.1727E+04
      7.576  0.3292E+03  0.1744E+04
      7.628  0.3190E+03  0.1760E+04
      7.680  0.2983E+03  0.1776E+04
      7.731  0.2790E+03  0.1790E+04
      7.783  0.2693E+03  0.1804E+04
      7.835  0.2641E+03  0.1818E+04
      7.887  0.2584E+03  0.1831E+04
      7.939  0.2495E+03  0.1844E+04
      7.991  0.2430E+03  0.1857E+04
      8.043  0.2431E+03  0.1869E+04
      8.094  0.2401E+03  0.1882E+04
      8.146  0.2322E+03  0.1894E+04
      8.198  0.2290E+03  0.1906E+04
      8.250  0.2328E+03  0.1918E+04
      8.302  0.2374E+03  0.1930E+04
      8.354  0.2390E+03  0.1942E+04
      8.406  0.2375E+03  0.1955E+04
      8.457  0.2300E+03  0.1967E+04
      8.509  0.2195E+03  0.1978E+04
      8.561  0.2126E+03  0.1989E+04
      8.613  0.2078E+03  0.2000E+04
      8.665  0.2009E+03  0.2010E+04
      8.717  0.1925E+03  0.2020E+04
      8.769  0.1840E+03  0.2030E+04
      8.820  0.1795E+03  0.2039E+04
      8.872  0.1862E+03  0.2049E+04
      8.924  0.2094E+03  0.2060E+04
      8.976  0.2336E+03  0.2072E+04
      9.028  0.2373E+03  0.2084E+04
      9.080  0.2255E+03  0.2096E+04
      9.132  0.2089E+03  0.2107E+04
      9.183  0.1895E+03  0.2116E+04
      9.235  0.1786E+03  0.2126E+04
      9.287  0.1935E+03  0.2136E+04
      9.339  0.2246E+03  0.2147E+04
      9.391  0.2423E+03  0.2160E+04
      9.443  0.2430E+03  0.2173E+04
      9.495  0.2445E+03  0.2185E+04
      9.546  0.2447E+03  0.2198E+04
      9.598  0.2449E+03  0.2211E+04
      9.650  0.2689E+03  0.2225E+04
      9.702  0.3124E+03  0.2241E+04
      9.754  0.3353E+03  0.2258E+04
      9.806  0.3282E+03  0.2275E+04
      9.858  0.3174E+03  0.2292E+04
      9.909  0.3150E+03  0.2308E+04
      9.961  0.3200E+03  0.2325E+04
     10.013  0.3388E+03  0.2342E+04
     10.065  0.3743E+03  0.2362E+04
     10.117  0.4094E+03  0.2383E+04
     10.169  0.4272E+03  0.2405E+04
     10.221  0.4349E+03  0.2427E+04
     10.272  0.4464E+03  0.2451E+04
     10.324  0.4640E+03  0.2475E+04
     10.376  0.4824E+03  0.2500E+04
     10.428  0.4937E+03  0.2525E+04
     10.480  0.4889E+03  0.2551E+04
     10.532  0.4563E+03  0.2574E+04
     10.584  0.3995E+03  0.2595E+04
     10.635  0.3338E+03  0.2612E+04
     10.687  0.2554E+03  0.2626E+04
     10.739  0.1576E+03  0.2634E+04
     10.791  0.6443E+02  0.2637E+04
     10.843  0.9572E+01  0.2638E+04
     10.895 -0.5158E+01  0.2637E+04
     10.947 -0.3348E+01  0.2637E+04
     10.998 -0.8829E+00  0.2637E+04
     11.050 -0.1353E+00  0.2637E+04
     11.102 -0.1351E-01  0.2637E+04
     11.154 -0.9173E-03  0.2637E+04
     11.206 -0.4151E-04  0.2637E+04
     11.258 -0.1190E-05  0.2637E+04
     11.310 -0.2076E-07  0.2637E+04
     11.361 -0.5284E-08  0.2637E+04
     11.413 -0.3485E-06  0.2637E+04
     11.465 -0.1359E-04  0.2637E+04
     11.517 -0.2960E-03  0.2637E+04
     11.569 -0.3493E-02  0.2637E+04
     11.621 -0.2074E-01  0.2637E+04
     11.673 -0.4679E-01  0.2637E+04
     11.724  0.6206E-01  0.2637E+04
     11.776  0.4789E+00  0.2637E+04
     11.828  0.8329E+00  0.2637E+04
     11.880  0.7667E+00  0.2637E+04
     11.932  0.9372E+00  0.2637E+04
     11.984  0.1468E+01  0.2637E+04
     12.036  0.1363E+01  0.2637E+04
     12.087  0.5312E+00  0.2637E+04
     12.139 -0.2808E-01  0.2637E+04
     12.191  0.3678E+00  0.2637E+04
     12.243  0.1598E+01  0.2638E+04
     12.295  0.3018E+01  0.2638E+04
     12.347  0.3918E+01  0.2638E+04
     12.399  0.3667E+01  0.2638E+04
     12.450  0.2751E+01  0.2638E+04
     12.502  0.2129E+01  0.2638E+04
     12.554  0.2013E+01  0.2638E+04
     12.606  0.2389E+01  0.2639E+04
     12.658  0.3133E+01  0.2639E+04
     12.710  0.3913E+01  0.2639E+04
     12.762  0.3845E+01  0.2639E+04
     12.813  0.2884E+01  0.2639E+04
     12.865  0.2405E+01  0.2639E+04
     12.917  0.2467E+01  0.2640E+04
     12.969  0.2019E+01  0.2640E+04
     13.021  0.1322E+01  0.2640E+04
     13.073  0.8656E+00  0.2640E+04
     13.125  0.6678E+00  0.2640E+04
     13.176  0.8907E+00  0.2640E+04
     13.228  0.1209E+01  0.2640E+04
     13.280  0.1159E+01  0.2640E+04
     13.332  0.6767E+00  0.2640E+04
     13.384  0.1494E+00  0.2640E+04
     13.436 -0.4654E-01  0.2640E+04
     13.488 -0.3293E-01  0.2640E+04
     13.539 -0.7148E-02  0.2640E+04
     13.591 -0.7541E-03  0.2640E+04
     13.643 -0.4255E-04  0.2640E+04
     13.695 -0.1332E-05  0.2640E+04
     13.747 -0.2358E-07  0.2640E+04
     13.799 -0.2382E-09  0.2640E+04
     13.851 -0.1382E-11  0.2640E+04
     13.902 -0.4758E-14  0.2640E+04
     13.954  0.0000E+00  0.2640E+04
     14.006  0.0000E+00  0.2640E+04
     14.058  0.0000E+00  0.2640E+04
     14.110  0.0000E+00  0.2640E+04
     14.162  0.0000E+00  0.2640E+04
     14.214  0.0000E+00  0.2640E+04
     14.265  0.0000E+00  0.2640E+04
