 256 256   0   0
  0.1419206E+02  0.1537080E-08  0.1537218E-08  0.1537636E-08  0.5000000E-15
  1.000000000000000E-004
  CAR 
 Ir_Ru                                   
     12.68380085     -1.29514519  301      9.24211300      1.00000000
     -1.295  0.0000E+00  0.0000E+00
     -1.249  0.0000E+00  0.0000E+00
     -1.202  0.0000E+00  0.0000E+00
     -1.155  0.0000E+00  0.0000E+00
     -1.109 -0.2744E-28 -0.1279E-29
     -1.062 -0.4092E-25 -0.1908E-26
     -1.016 -0.3937E-22 -0.1836E-23
     -0.969 -0.2444E-19 -0.1141E-20
     -0.922 -0.9792E-17 -0.4574E-18
     -0.876 -0.2456E-14 -0.1149E-15
     -0.829 -0.4073E-12 -0.1909E-13
     -0.783 -0.4350E-10 -0.2046E-11
     -0.736 -0.2993E-08 -0.1415E-09
     -0.689 -0.1328E-06 -0.6331E-08
     -0.643 -0.3807E-05 -0.1837E-06
     -0.596 -0.7065E-04 -0.3476E-05
     -0.550 -0.8514E-03 -0.4315E-04
     -0.503 -0.6666E-02 -0.3538E-03
     -0.456 -0.3350E-01 -0.1915E-02
     -0.410 -0.1019E+00 -0.6665E-02
     -0.363 -0.1379E+00 -0.1309E-01
     -0.317  0.2228E+00 -0.2707E-02
     -0.270  0.1507E+01  0.6750E-01
     -0.223  0.3536E+01  0.2323E+00
     -0.177  0.5070E+01  0.4685E+00
     -0.130  0.5733E+01  0.7356E+00
     -0.084  0.7325E+01  0.1077E+01
     -0.037  0.1019E+02  0.1552E+01
      0.010  0.1102E+02  0.2066E+01
      0.056  0.9156E+01  0.2492E+01
      0.103  0.9384E+01  0.2930E+01
      0.149  0.1315E+02  0.3542E+01
      0.196  0.1592E+02  0.4284E+01
      0.243  0.1606E+02  0.5032E+01
      0.289  0.1674E+02  0.5812E+01
      0.336  0.1850E+02  0.6674E+01
      0.382  0.1835E+02  0.7529E+01
      0.429  0.1746E+02  0.8342E+01
      0.476  0.1983E+02  0.9266E+01
      0.522  0.2338E+02  0.1036E+02
      0.569  0.2406E+02  0.1148E+02
      0.615  0.2229E+02  0.1252E+02
      0.662  0.1873E+02  0.1339E+02
      0.709  0.1408E+02  0.1404E+02
      0.755  0.1115E+02  0.1456E+02
      0.802  0.1072E+02  0.1506E+02
      0.848  0.1110E+02  0.1558E+02
      0.895  0.1206E+02  0.1614E+02
      0.941  0.1452E+02  0.1682E+02
      0.988  0.1821E+02  0.1767E+02
      1.035  0.2278E+02  0.1873E+02
      1.081  0.2801E+02  0.2003E+02
      1.128  0.3124E+02  0.2149E+02
      1.174  0.2977E+02  0.2288E+02
      1.221  0.2594E+02  0.2409E+02
      1.268  0.2310E+02  0.2516E+02
      1.314  0.2101E+02  0.2614E+02
      1.361  0.2005E+02  0.2708E+02
      1.407  0.2160E+02  0.2808E+02
      1.454  0.2406E+02  0.2920E+02
      1.501  0.2570E+02  0.3040E+02
      1.547  0.2899E+02  0.3175E+02
      1.594  0.3508E+02  0.3339E+02
      1.640  0.3872E+02  0.3519E+02
      1.687  0.3784E+02  0.3695E+02
      1.734  0.3918E+02  0.3878E+02
      1.780  0.4543E+02  0.4090E+02
      1.827  0.4935E+02  0.4320E+02
      1.873  0.4788E+02  0.4543E+02
      1.920  0.4728E+02  0.4763E+02
      1.967  0.5087E+02  0.5000E+02
      2.013  0.5414E+02  0.5252E+02
      2.060  0.5550E+02  0.5511E+02
      2.106  0.6126E+02  0.5796E+02
      2.153  0.7435E+02  0.6143E+02
      2.200  0.8922E+02  0.6558E+02
      2.246  0.1030E+03  0.7038E+02
      2.293  0.1177E+03  0.7587E+02
      2.339  0.1310E+03  0.8197E+02
      2.386  0.1382E+03  0.8841E+02
      2.433  0.1431E+03  0.9508E+02
      2.479  0.1520E+03  0.1022E+03
      2.526  0.1607E+03  0.1097E+03
      2.572  0.1616E+03  0.1172E+03
      2.619  0.1613E+03  0.1247E+03
      2.666  0.1689E+03  0.1326E+03
      2.712  0.1785E+03  0.1409E+03
      2.759  0.1848E+03  0.1495E+03
      2.805  0.1976E+03  0.1587E+03
      2.852  0.2226E+03  0.1691E+03
      2.899  0.2473E+03  0.1806E+03
      2.945  0.2563E+03  0.1925E+03
      2.992  0.2499E+03  0.2042E+03
      3.038  0.2468E+03  0.2157E+03
      3.085  0.2618E+03  0.2279E+03
      3.132  0.2860E+03  0.2412E+03
      3.178  0.3007E+03  0.2552E+03
      3.225  0.3035E+03  0.2694E+03
      3.271  0.3048E+03  0.2836E+03
      3.318  0.3083E+03  0.2979E+03
      3.365  0.3111E+03  0.3124E+03
      3.411  0.3144E+03  0.3271E+03
      3.458  0.3216E+03  0.3421E+03
      3.504  0.3332E+03  0.3576E+03
      3.551  0.3439E+03  0.3736E+03
      3.597  0.3469E+03  0.3898E+03
      3.644  0.3450E+03  0.4059E+03
      3.691  0.3488E+03  0.4221E+03
      3.737  0.3577E+03  0.4388E+03
      3.784  0.3594E+03  0.4555E+03
      3.830  0.3524E+03  0.4720E+03
      3.877  0.3479E+03  0.4882E+03
      3.924  0.3496E+03  0.5044E+03
      3.970  0.3506E+03  0.5208E+03
      4.017  0.3417E+03  0.5367E+03
      4.063  0.3231E+03  0.5518E+03
      4.110  0.3069E+03  0.5661E+03
      4.157  0.2977E+03  0.5799E+03
      4.203  0.2877E+03  0.5933E+03
      4.250  0.2716E+03  0.6060E+03
      4.296  0.2539E+03  0.6178E+03
      4.343  0.2428E+03  0.6291E+03
      4.390  0.2451E+03  0.6406E+03
      4.436  0.2576E+03  0.6526E+03
      4.483  0.2618E+03  0.6648E+03
      4.529  0.2508E+03  0.6765E+03
      4.576  0.2475E+03  0.6880E+03
      4.623  0.2668E+03  0.7004E+03
      4.669  0.2917E+03  0.7140E+03
      4.716  0.3067E+03  0.7283E+03
      4.762  0.3137E+03  0.7429E+03
      4.809  0.3136E+03  0.7575E+03
      4.856  0.3051E+03  0.7717E+03
      4.902  0.2903E+03  0.7853E+03
      4.949  0.2785E+03  0.7983E+03
      4.995  0.2810E+03  0.8113E+03
      5.042  0.2949E+03  0.8251E+03
      5.089  0.3076E+03  0.8394E+03
      5.135  0.3093E+03  0.8538E+03
      5.182  0.2979E+03  0.8677E+03
      5.228  0.2857E+03  0.8810E+03
      5.275  0.2843E+03  0.8943E+03
      5.322  0.2902E+03  0.9078E+03
      5.368  0.2972E+03  0.9216E+03
      5.415  0.3018E+03  0.9357E+03
      5.461  0.2988E+03  0.9496E+03
      5.508  0.2890E+03  0.9631E+03
      5.555  0.2867E+03  0.9765E+03
      5.601  0.3023E+03  0.9905E+03
      5.648  0.3213E+03  0.1006E+04
      5.694  0.3253E+03  0.1021E+04
      5.741  0.3203E+03  0.1036E+04
      5.788  0.3200E+03  0.1051E+04
      5.834  0.3262E+03  0.1066E+04
      5.881  0.3366E+03  0.1081E+04
      5.927  0.3498E+03  0.1098E+04
      5.974  0.3650E+03  0.1115E+04
      6.021  0.3787E+03  0.1132E+04
      6.067  0.3854E+03  0.1150E+04
      6.114  0.3875E+03  0.1168E+04
      6.160  0.3916E+03  0.1187E+04
      6.207  0.3985E+03  0.1205E+04
      6.253  0.4092E+03  0.1224E+04
      6.300  0.4268E+03  0.1244E+04
      6.347  0.4462E+03  0.1265E+04
      6.393  0.4573E+03  0.1286E+04
      6.440  0.4573E+03  0.1308E+04
      6.486  0.4533E+03  0.1329E+04
      6.533  0.4501E+03  0.1350E+04
      6.580  0.4456E+03  0.1370E+04
      6.626  0.4393E+03  0.1391E+04
      6.673  0.4320E+03  0.1411E+04
      6.719  0.4249E+03  0.1431E+04
      6.766  0.4171E+03  0.1450E+04
      6.813  0.4018E+03  0.1469E+04
      6.859  0.3771E+03  0.1487E+04
      6.906  0.3546E+03  0.1503E+04
      6.952  0.3443E+03  0.1519E+04
      6.999  0.3393E+03  0.1535E+04
      7.046  0.3280E+03  0.1550E+04
      7.092  0.3150E+03  0.1565E+04
      7.139  0.3134E+03  0.1579E+04
      7.185  0.3193E+03  0.1594E+04
      7.232  0.3137E+03  0.1609E+04
      7.279  0.2882E+03  0.1622E+04
      7.325  0.2565E+03  0.1634E+04
      7.372  0.2403E+03  0.1646E+04
      7.418  0.2483E+03  0.1657E+04
      7.465  0.2707E+03  0.1670E+04
      7.512  0.2845E+03  0.1683E+04
      7.558  0.2768E+03  0.1696E+04
      7.605  0.2588E+03  0.1708E+04
      7.651  0.2483E+03  0.1720E+04
      7.698  0.2567E+03  0.1731E+04
      7.745  0.2822E+03  0.1745E+04
      7.791  0.3051E+03  0.1759E+04
      7.838  0.3120E+03  0.1773E+04
      7.884  0.3089E+03  0.1788E+04
      7.931  0.3032E+03  0.1802E+04
      7.978  0.2962E+03  0.1816E+04
      8.024  0.2911E+03  0.1829E+04
      8.071  0.2956E+03  0.1843E+04
      8.117  0.3090E+03  0.1857E+04
      8.164  0.3170E+03  0.1872E+04
      8.211  0.3176E+03  0.1887E+04
      8.257  0.3293E+03  0.1902E+04
      8.304  0.3531E+03  0.1919E+04
      8.350  0.3625E+03  0.1936E+04
      8.397  0.3407E+03  0.1952E+04
      8.444  0.3010E+03  0.1966E+04
      8.490  0.2675E+03  0.1978E+04
      8.537  0.2556E+03  0.1990E+04
      8.583  0.2703E+03  0.2003E+04
      8.630  0.2951E+03  0.2016E+04
      8.677  0.3005E+03  0.2030E+04
      8.723  0.2845E+03  0.2044E+04
      8.770  0.2678E+03  0.2056E+04
      8.816  0.2571E+03  0.2068E+04
      8.863  0.2492E+03  0.2080E+04
      8.909  0.2452E+03  0.2091E+04
      8.956  0.2453E+03  0.2102E+04
      9.003  0.2530E+03  0.2114E+04
      9.049  0.2729E+03  0.2127E+04
      9.096  0.2841E+03  0.2140E+04
      9.142  0.2668E+03  0.2153E+04
      9.189  0.2413E+03  0.2164E+04
      9.236  0.2284E+03  0.2175E+04
      9.282  0.2201E+03  0.2185E+04
      9.329  0.2139E+03  0.2195E+04
      9.375  0.2215E+03  0.2205E+04
      9.422  0.2419E+03  0.2216E+04
      9.469  0.2619E+03  0.2229E+04
      9.515  0.2734E+03  0.2241E+04
      9.562  0.2772E+03  0.2254E+04
      9.608  0.2763E+03  0.2267E+04
      9.655  0.2712E+03  0.2280E+04
      9.702  0.2613E+03  0.2292E+04
      9.748  0.2444E+03  0.2303E+04
      9.795  0.2247E+03  0.2314E+04
      9.841  0.2193E+03  0.2324E+04
      9.888  0.2359E+03  0.2335E+04
      9.935  0.2634E+03  0.2347E+04
      9.981  0.2943E+03  0.2361E+04
     10.028  0.3266E+03  0.2376E+04
     10.074  0.3489E+03  0.2392E+04
     10.121  0.3468E+03  0.2409E+04
     10.168  0.3246E+03  0.2424E+04
     10.214  0.3102E+03  0.2438E+04
     10.261  0.3281E+03  0.2453E+04
     10.307  0.3852E+03  0.2471E+04
     10.354  0.4644E+03  0.2493E+04
     10.401  0.5180E+03  0.2517E+04
     10.447  0.5102E+03  0.2541E+04
     10.494  0.4523E+03  0.2562E+04
     10.540  0.3758E+03  0.2580E+04
     10.587  0.3038E+03  0.2594E+04
     10.634  0.2494E+03  0.2605E+04
     10.680  0.2132E+03  0.2615E+04
     10.727  0.1815E+03  0.2624E+04
     10.773  0.1429E+03  0.2630E+04
     10.820  0.9857E+02  0.2635E+04
     10.867  0.5777E+02  0.2638E+04
     10.913  0.2799E+02  0.2639E+04
     10.960  0.1054E+02  0.2639E+04
     11.006  0.2972E+01  0.2640E+04
     11.053  0.1540E+01  0.2640E+04
     11.100  0.2098E+01  0.2640E+04
     11.146  0.1859E+01  0.2640E+04
     11.193  0.7639E+00  0.2640E+04
     11.239  0.5602E-02  0.2640E+04
     11.286 -0.1276E+00  0.2640E+04
     11.333 -0.5560E-01  0.2640E+04
     11.379 -0.1199E-01  0.2640E+04
     11.426 -0.3563E-02  0.2640E+04
     11.472 -0.1321E-01  0.2640E+04
     11.519 -0.4245E-01  0.2640E+04
     11.565 -0.3560E-01  0.2640E+04
     11.612  0.2009E+00  0.2640E+04
     11.659  0.7173E+00  0.2640E+04
     11.705  0.1026E+01  0.2640E+04
     11.752  0.7211E+00  0.2640E+04
     11.798  0.2038E+00  0.2640E+04
     11.845 -0.3500E-01  0.2640E+04
     11.892 -0.4267E-01  0.2640E+04
     11.938 -0.1324E-01  0.2640E+04
     11.985 -0.2144E-02  0.2640E+04
     12.031 -0.2037E-03  0.2640E+04
     12.078 -0.1186E-04  0.2640E+04
     12.125 -0.4315E-06  0.2640E+04
     12.171 -0.9927E-08  0.2640E+04
     12.218 -0.1454E-09  0.2640E+04
     12.264 -0.1361E-11  0.2640E+04
     12.311 -0.8339E-14  0.2640E+04
     12.358  0.0000E+00  0.2640E+04
     12.404  0.0000E+00  0.2640E+04
     12.451  0.0000E+00  0.2640E+04
     12.497  0.0000E+00  0.2640E+04
     12.544  0.0000E+00  0.2640E+04
     12.591  0.0000E+00  0.2640E+04
     12.637  0.0000E+00  0.2640E+04
     12.684  0.0000E+00  0.2640E+04
