 256 256   0   0
  0.1418917E+02  0.1588033E-08  0.1692661E-08  0.1693229E-08  0.5000000E-15
  1.000000000000000E-004
  CAR 
 Ir_Ru                                   
     14.28559455     -1.29211014  301      9.45692626      1.00000000
     -1.292  0.0000E+00  0.0000E+00
     -1.240  0.0000E+00  0.0000E+00
     -1.188  0.0000E+00  0.0000E+00
     -1.136 -0.2841E-30 -0.1475E-31
     -1.084 -0.1307E-26 -0.6789E-28
     -1.032 -0.3494E-23 -0.1815E-24
     -0.981 -0.5417E-20 -0.2815E-21
     -0.929 -0.4871E-17 -0.2532E-18
     -0.877 -0.2478E-14 -0.1289E-15
     -0.825 -0.7381E-12 -0.3845E-13
     -0.773 -0.1275E-09 -0.6656E-11
     -0.721 -0.1265E-07 -0.6636E-09
     -0.669 -0.7190E-06 -0.3800E-07
     -0.617 -0.2327E-04 -0.1246E-05
     -0.565 -0.4254E-03 -0.2333E-04
     -0.513 -0.4353E-02 -0.2493E-03
     -0.461 -0.2467E-01 -0.1530E-02
     -0.409 -0.7585E-01 -0.5469E-02
     -0.357 -0.1014E+00 -0.1073E-01
     -0.306  0.2148E+00  0.4217E-03
     -0.254  0.1670E+01  0.8712E-01
     -0.202  0.4438E+01  0.3176E+00
     -0.150  0.6366E+01  0.6481E+00
     -0.098  0.6421E+01  0.9815E+00
     -0.046  0.6986E+01  0.1344E+01
      0.006  0.8898E+01  0.1806E+01
      0.058  0.1123E+02  0.2389E+01
      0.110  0.1365E+02  0.3098E+01
      0.162  0.1432E+02  0.3842E+01
      0.214  0.1163E+02  0.4446E+01
      0.266  0.1010E+02  0.4970E+01
      0.318  0.1442E+02  0.5719E+01
      0.370  0.2045E+02  0.6781E+01
      0.421  0.2253E+02  0.7950E+01
      0.473  0.2272E+02  0.9130E+01
      0.525  0.2352E+02  0.1035E+02
      0.577  0.2247E+02  0.1152E+02
      0.629  0.2043E+02  0.1258E+02
      0.681  0.2105E+02  0.1367E+02
      0.733  0.2028E+02  0.1473E+02
      0.785  0.1438E+02  0.1547E+02
      0.837  0.8750E+01  0.1593E+02
      0.889  0.8047E+01  0.1634E+02
      0.941  0.1183E+02  0.1696E+02
      0.993  0.1914E+02  0.1795E+02
      1.045  0.2808E+02  0.1941E+02
      1.096  0.3343E+02  0.2115E+02
      1.148  0.3300E+02  0.2286E+02
      1.200  0.2865E+02  0.2435E+02
      1.252  0.2267E+02  0.2552E+02
      1.304  0.1946E+02  0.2654E+02
      1.356  0.2183E+02  0.2767E+02
      1.408  0.2733E+02  0.2909E+02
      1.460  0.3036E+02  0.3066E+02
      1.512  0.2978E+02  0.3221E+02
      1.564  0.2936E+02  0.3374E+02
      1.616  0.3047E+02  0.3532E+02
      1.668  0.3114E+02  0.3693E+02
      1.720  0.3209E+02  0.3860E+02
      1.772  0.3513E+02  0.4043E+02
      1.823  0.3926E+02  0.4246E+02
      1.875  0.4580E+02  0.4484E+02
      1.927  0.5497E+02  0.4770E+02
      1.979  0.5932E+02  0.5078E+02
      2.031  0.5449E+02  0.5361E+02
      2.083  0.5060E+02  0.5623E+02
      2.135  0.6242E+02  0.5947E+02
      2.187  0.8795E+02  0.6404E+02
      2.239  0.1094E+03  0.6972E+02
      2.291  0.1200E+03  0.7595E+02
      2.343  0.1260E+03  0.8249E+02
      2.395  0.1318E+03  0.8933E+02
      2.447  0.1379E+03  0.9649E+02
      2.498  0.1478E+03  0.1042E+03
      2.550  0.1653E+03  0.1127E+03
      2.602  0.1836E+03  0.1223E+03
      2.654  0.1952E+03  0.1324E+03
      2.706  0.2073E+03  0.1432E+03
      2.758  0.2243E+03  0.1548E+03
      2.810  0.2307E+03  0.1668E+03
      2.862  0.2244E+03  0.1785E+03
      2.914  0.2283E+03  0.1903E+03
      2.966  0.2460E+03  0.2031E+03
      3.018  0.2581E+03  0.2165E+03
      3.070  0.2598E+03  0.2300E+03
      3.122  0.2605E+03  0.2435E+03
      3.173  0.2643E+03  0.2572E+03
      3.225  0.2737E+03  0.2715E+03
      3.277  0.2890E+03  0.2865E+03
      3.329  0.3083E+03  0.3025E+03
      3.381  0.3248E+03  0.3193E+03
      3.433  0.3306E+03  0.3365E+03
      3.485  0.3275E+03  0.3535E+03
      3.537  0.3211E+03  0.3702E+03
      3.589  0.3180E+03  0.3867E+03
      3.641  0.3161E+03  0.4031E+03
      3.693  0.3105E+03  0.4192E+03
      3.745  0.3048E+03  0.4351E+03
      3.797  0.3008E+03  0.4507E+03
      3.849  0.2965E+03  0.4661E+03
      3.900  0.2931E+03  0.4813E+03
      3.952  0.2881E+03  0.4963E+03
      4.004  0.2754E+03  0.5106E+03
      4.056  0.2665E+03  0.5244E+03
      4.108  0.2768E+03  0.5388E+03
      4.160  0.2951E+03  0.5541E+03
      4.212  0.3030E+03  0.5698E+03
      4.264  0.3054E+03  0.5857E+03
      4.316  0.3126E+03  0.6019E+03
      4.368  0.3190E+03  0.6185E+03
      4.420  0.3213E+03  0.6352E+03
      4.472  0.3235E+03  0.6520E+03
      4.524  0.3205E+03  0.6686E+03
      4.575  0.3088E+03  0.6846E+03
      4.627  0.2968E+03  0.7000E+03
      4.679  0.2936E+03  0.7153E+03
      4.731  0.2986E+03  0.7308E+03
      4.783  0.3064E+03  0.7467E+03
      4.835  0.3188E+03  0.7633E+03
      4.887  0.3321E+03  0.7805E+03
      4.939  0.3379E+03  0.7981E+03
      4.991  0.3458E+03  0.8160E+03
      5.043  0.3590E+03  0.8346E+03
      5.095  0.3658E+03  0.8536E+03
      5.147  0.3638E+03  0.8725E+03
      5.199  0.3538E+03  0.8909E+03
      5.251  0.3325E+03  0.9082E+03
      5.302  0.2995E+03  0.9237E+03
      5.354  0.2581E+03  0.9371E+03
      5.406  0.2152E+03  0.9483E+03
      5.458  0.1826E+03  0.9578E+03
      5.510  0.1731E+03  0.9668E+03
      5.562  0.1920E+03  0.9767E+03
      5.614  0.2314E+03  0.9887E+03
      5.666  0.2802E+03  0.1003E+04
      5.718  0.3298E+03  0.1020E+04
      5.770  0.3706E+03  0.1040E+04
      5.822  0.3968E+03  0.1060E+04
      5.874  0.4113E+03  0.1082E+04
      5.926  0.4198E+03  0.1103E+04
      5.977  0.4261E+03  0.1126E+04
      6.029  0.4277E+03  0.1148E+04
      6.081  0.4143E+03  0.1169E+04
      6.133  0.3898E+03  0.1190E+04
      6.185  0.3706E+03  0.1209E+04
      6.237  0.3605E+03  0.1227E+04
      6.289  0.3551E+03  0.1246E+04
      6.341  0.3572E+03  0.1264E+04
      6.393  0.3708E+03  0.1284E+04
      6.445  0.3825E+03  0.1304E+04
      6.497  0.3842E+03  0.1324E+04
      6.549  0.3928E+03  0.1344E+04
      6.601  0.4116E+03  0.1365E+04
      6.653  0.4248E+03  0.1387E+04
      6.704  0.4281E+03  0.1410E+04
      6.756  0.4245E+03  0.1432E+04
      6.808  0.4115E+03  0.1453E+04
      6.860  0.3899E+03  0.1473E+04
      6.912  0.3722E+03  0.1493E+04
      6.964  0.3661E+03  0.1512E+04
      7.016  0.3635E+03  0.1530E+04
      7.068  0.3696E+03  0.1550E+04
      7.120  0.3941E+03  0.1570E+04
      7.172  0.4162E+03  0.1592E+04
      7.224  0.4224E+03  0.1614E+04
      7.276  0.4219E+03  0.1636E+04
      7.328  0.4114E+03  0.1657E+04
      7.379  0.3849E+03  0.1677E+04
      7.431  0.3563E+03  0.1695E+04
      7.483  0.3388E+03  0.1713E+04
      7.535  0.3320E+03  0.1730E+04
      7.587  0.3279E+03  0.1747E+04
      7.639  0.3150E+03  0.1764E+04
      7.691  0.2934E+03  0.1779E+04
      7.743  0.2762E+03  0.1793E+04
      7.795  0.2682E+03  0.1807E+04
      7.847  0.2632E+03  0.1821E+04
      7.899  0.2567E+03  0.1834E+04
      7.951  0.2474E+03  0.1847E+04
      8.003  0.2426E+03  0.1860E+04
      8.055  0.2431E+03  0.1872E+04
      8.106  0.2384E+03  0.1885E+04
      8.158  0.2307E+03  0.1897E+04
      8.210  0.2292E+03  0.1908E+04
      8.262  0.2341E+03  0.1921E+04
      8.314  0.2383E+03  0.1933E+04
      8.366  0.2391E+03  0.1945E+04
      8.418  0.2362E+03  0.1958E+04
      8.470  0.2275E+03  0.1969E+04
      8.522  0.2176E+03  0.1981E+04
      8.574  0.2116E+03  0.1992E+04
      8.626  0.2063E+03  0.2002E+04
      8.678  0.1988E+03  0.2013E+04
      8.730  0.1903E+03  0.2023E+04
      8.781  0.1823E+03  0.2032E+04
      8.833  0.1797E+03  0.2041E+04
      8.885  0.1906E+03  0.2051E+04
      8.937  0.2166E+03  0.2063E+04
      8.989  0.2368E+03  0.2075E+04
      9.041  0.2352E+03  0.2087E+04
      9.093  0.2215E+03  0.2099E+04
      9.145  0.2040E+03  0.2109E+04
      9.197  0.1849E+03  0.2119E+04
      9.249  0.1797E+03  0.2128E+04
      9.301  0.2014E+03  0.2139E+04
      9.353  0.2316E+03  0.2151E+04
      9.405  0.2434E+03  0.2163E+04
      9.457  0.2429E+03  0.2176E+04
      9.508  0.2452E+03  0.2189E+04
      9.560  0.2440E+03  0.2201E+04
      9.612  0.2482E+03  0.2214E+04
      9.664  0.2802E+03  0.2229E+04
      9.716  0.3220E+03  0.2245E+04
      9.768  0.3353E+03  0.2263E+04
      9.820  0.3246E+03  0.2280E+04
      9.872  0.3159E+03  0.2296E+04
      9.924  0.3156E+03  0.2313E+04
      9.976  0.3236E+03  0.2329E+04
     10.028  0.3476E+03  0.2347E+04
     10.080  0.3853E+03  0.2367E+04
     10.132  0.4161E+03  0.2389E+04
     10.183  0.4296E+03  0.2411E+04
     10.235  0.4376E+03  0.2434E+04
     10.287  0.4510E+03  0.2457E+04
     10.339  0.4694E+03  0.2482E+04
     10.391  0.4867E+03  0.2507E+04
     10.443  0.4946E+03  0.2533E+04
     10.495  0.4826E+03  0.2558E+04
     10.547  0.4413E+03  0.2581E+04
     10.599  0.3806E+03  0.2601E+04
     10.651  0.3126E+03  0.2617E+04
     10.703  0.2279E+03  0.2629E+04
     10.755  0.1270E+03  0.2635E+04
     10.807  0.4227E+02  0.2637E+04
     10.858  0.1288E+01  0.2637E+04
     10.910 -0.5382E+01  0.2637E+04
     10.962 -0.2332E+01  0.2637E+04
     11.014 -0.4957E+00  0.2637E+04
     11.066 -0.6684E-01  0.2637E+04
     11.118 -0.6521E-02  0.2637E+04
     11.170 -0.4617E-03  0.2637E+04
     11.222 -0.2164E-04  0.2637E+04
     11.274 -0.6356E-06  0.2637E+04
     11.326 -0.9886E-06  0.2637E+04
     11.378 -0.3286E-04  0.2637E+04
     11.430 -0.6117E-03  0.2637E+04
     11.482 -0.6077E-02  0.2637E+04
     11.534 -0.2911E-01  0.2637E+04
     11.585 -0.4005E-01  0.2637E+04
     11.637  0.1588E+00  0.2637E+04
     11.689  0.6570E+00  0.2637E+04
     11.741  0.8800E+00  0.2637E+04
     11.793  0.4247E+00  0.2637E+04
     11.845 -0.3490E-01  0.2637E+04
     11.897  0.3957E+00  0.2637E+04
     11.949  0.1752E+01  0.2637E+04
     12.001  0.2510E+01  0.2637E+04
     12.053  0.1724E+01  0.2637E+04
     12.105  0.8611E+00  0.2637E+04
     12.157  0.6508E+00  0.2638E+04
     12.209  0.4697E+00  0.2638E+04
     12.260  0.1143E+01  0.2638E+04
     12.312  0.3119E+01  0.2638E+04
     12.364  0.4212E+01  0.2638E+04
     12.416  0.3440E+01  0.2638E+04
     12.468  0.2409E+01  0.2638E+04
     12.520  0.1820E+01  0.2638E+04
     12.572  0.1777E+01  0.2638E+04
     12.624  0.2430E+01  0.2639E+04
     12.676  0.3407E+01  0.2639E+04
     12.728  0.4048E+01  0.2639E+04
     12.780  0.3692E+01  0.2639E+04
     12.832  0.2999E+01  0.2639E+04
     12.884  0.2744E+01  0.2639E+04
     12.936  0.2253E+01  0.2640E+04
     12.987  0.1433E+01  0.2640E+04
     13.039  0.1016E+01  0.2640E+04
     13.091  0.8459E+00  0.2640E+04
     13.143  0.7372E+00  0.2640E+04
     13.195  0.9195E+00  0.2640E+04
     13.247  0.1126E+01  0.2640E+04
     13.299  0.1079E+01  0.2640E+04
     13.351  0.6720E+00  0.2640E+04
     13.403  0.1644E+00  0.2640E+04
     13.455 -0.4222E-01  0.2640E+04
     13.507 -0.3314E-01  0.2640E+04
     13.559 -0.7375E-02  0.2640E+04
     13.611 -0.7881E-03  0.2640E+04
     13.662 -0.4483E-04  0.2640E+04
     13.714 -0.1411E-05  0.2640E+04
     13.766 -0.2506E-07  0.2640E+04
     13.818 -0.2536E-09  0.2640E+04
     13.870 -0.1472E-11  0.2640E+04
     13.922 -0.5226E-14  0.2640E+04
     13.974  0.0000E+00  0.2640E+04
     14.026  0.0000E+00  0.2640E+04
     14.078  0.0000E+00  0.2640E+04
     14.130  0.0000E+00  0.2640E+04
     14.182  0.0000E+00  0.2640E+04
     14.234  0.0000E+00  0.2640E+04
     14.286  0.0000E+00  0.2640E+04
