  32  32   0   0
  0.1419208E+02  0.9416161E-09  0.9413396E-09  0.9415201E-09  0.5000000E-15
  1.000000000000000E-004
  CAR 
 Ir_Ru                                   
     17.46224160     -1.29277813  301      9.24290829      1.00000000
     -1.293  0.0000E+00  0.0000E+00
     -1.230  0.0000E+00  0.0000E+00
     -1.168  0.0000E+00  0.0000E+00
     -1.105  0.0000E+00  0.0000E+00
     -1.043  0.0000E+00  0.0000E+00
     -0.980  0.0000E+00  0.0000E+00
     -0.918  0.0000E+00  0.0000E+00
     -0.855  0.0000E+00  0.0000E+00
     -0.793  0.0000E+00  0.0000E+00
     -0.730  0.0000E+00  0.0000E+00
     -0.668  0.0000E+00  0.0000E+00
     -0.605  0.0000E+00  0.0000E+00
     -0.543  0.0000E+00  0.0000E+00
     -0.480  0.0000E+00  0.0000E+00
     -0.418  0.0000E+00  0.0000E+00
     -0.355  0.0000E+00  0.0000E+00
     -0.293  0.6363E-05  0.5679E-09
     -0.230  0.3500E+00  0.7324E-02
     -0.167  0.6689E+00  0.4279E-01
     -0.105  0.8651E+00  0.9026E-01
     -0.042  0.1072E+01  0.1505E+00
      0.020  0.1275E+01  0.2246E+00
      0.083  0.1424E+01  0.3082E+00
      0.145  0.1621E+01  0.4032E+00
      0.208  0.1907E+01  0.5127E+00
      0.270  0.2184E+01  0.6416E+00
      0.333  0.2340E+01  0.7842E+00
      0.395  0.2770E+01  0.9425E+00
      0.458  0.3172E+01  0.1130E+01
      0.520  0.3123E+01  0.1330E+01
      0.583  0.2819E+01  0.1518E+01
      0.645  0.2081E+01  0.1672E+01
      0.708  0.1622E+01  0.1787E+01
      0.770  0.1413E+01  0.1881E+01
      0.833  0.8901E+00  0.1957E+01
      0.895  0.4940E+00  0.1997E+01
      0.958  0.1653E+01  0.2059E+01
      1.020  0.3106E+01  0.2207E+01
      1.083  0.4106E+01  0.2438E+01
      1.145  0.4052E+01  0.2698E+01
      1.208  0.3992E+01  0.2949E+01
      1.270  0.3276E+01  0.3176E+01
      1.333  0.2412E+01  0.3351E+01
      1.395  0.1978E+01  0.3489E+01
      1.458  0.2458E+01  0.3619E+01
      1.520  0.3832E+01  0.3814E+01
      1.583  0.4753E+01  0.4096E+01
      1.646  0.4442E+01  0.4376E+01
      1.708  0.4559E+01  0.4655E+01
      1.771  0.6457E+01  0.5040E+01
      1.833  0.6929E+01  0.5462E+01
      1.896  0.6067E+01  0.5870E+01
      1.958  0.4930E+01  0.6215E+01
      2.021  0.7378E+01  0.6573E+01
      2.083  0.7121E+01  0.7037E+01
      2.146  0.1126E+02  0.7569E+01
      2.208  0.1098E+02  0.8265E+01
      2.271  0.1601E+02  0.9129E+01
      2.333  0.1678E+02  0.1018E+02
      2.396  0.1467E+02  0.1125E+02
      2.458  0.1709E+02  0.1223E+02
      2.521  0.2086E+02  0.1352E+02
      2.583  0.1961E+02  0.1479E+02
      2.646  0.2138E+02  0.1604E+02
      2.708  0.2406E+02  0.1756E+02
      2.771  0.2275E+02  0.1899E+02
      2.833  0.2869E+02  0.2058E+02
      2.896  0.3257E+02  0.2249E+02
      2.958  0.3003E+02  0.2452E+02
      3.021  0.2767E+02  0.2641E+02
      3.083  0.3372E+02  0.2839E+02
      3.146  0.3846E+02  0.3078E+02
      3.208  0.3525E+02  0.3300E+02
      3.271  0.3968E+02  0.3539E+02
      3.333  0.4054E+02  0.3776E+02
      3.396  0.4118E+02  0.4019E+02
      3.458  0.3831E+02  0.4265E+02
      3.521  0.4054E+02  0.4528E+02
      3.584  0.4507E+02  0.4791E+02
      3.646  0.4571E+02  0.5071E+02
      3.709  0.4786E+02  0.5356E+02
      3.771  0.4546E+02  0.5637E+02
      3.834  0.4010E+02  0.5911E+02
      3.896  0.4328E+02  0.6181E+02
      3.959  0.4425E+02  0.6454E+02
      4.021  0.4420E+02  0.6726E+02
      4.084  0.3863E+02  0.6986E+02
      4.146  0.3637E+02  0.7225E+02
      4.209  0.3387E+02  0.7442E+02
      4.271  0.3269E+02  0.7647E+02
      4.334  0.2885E+02  0.7840E+02
      4.396  0.3511E+02  0.8035E+02
      4.459  0.3054E+02  0.8238E+02
      4.521  0.2748E+02  0.8450E+02
      4.584  0.3063E+02  0.8625E+02
      4.646  0.3628E+02  0.8839E+02
      4.709  0.3793E+02  0.9060E+02
      4.771  0.3936E+02  0.9311E+02
      4.834  0.3598E+02  0.9555E+02
      4.896  0.4072E+02  0.9795E+02
      4.959  0.3470E+02  0.1002E+03
      5.021  0.3692E+02  0.1025E+03
      5.084  0.3874E+02  0.1048E+03
      5.146  0.3871E+02  0.1072E+03
      5.209  0.3313E+02  0.1095E+03
      5.271  0.3421E+02  0.1116E+03
      5.334  0.3643E+02  0.1138E+03
      5.397  0.3905E+02  0.1161E+03
      5.459  0.3841E+02  0.1187E+03
      5.522  0.3692E+02  0.1210E+03
      5.584  0.3417E+02  0.1233E+03
      5.647  0.3742E+02  0.1256E+03
      5.709  0.4019E+02  0.1280E+03
      5.772  0.4180E+02  0.1305E+03
      5.834  0.4655E+02  0.1331E+03
      5.897  0.4394E+02  0.1358E+03
      5.959  0.4553E+02  0.1387E+03
      6.022  0.4736E+02  0.1416E+03
      6.084  0.4668E+02  0.1445E+03
      6.147  0.5161E+02  0.1476E+03
      6.209  0.5394E+02  0.1509E+03
      6.272  0.5185E+02  0.1542E+03
      6.334  0.5239E+02  0.1575E+03
      6.397  0.5857E+02  0.1609E+03
      6.459  0.5896E+02  0.1645E+03
      6.522  0.5811E+02  0.1681E+03
      6.584  0.5670E+02  0.1717E+03
      6.647  0.5127E+02  0.1752E+03
      6.709  0.5598E+02  0.1786E+03
      6.772  0.4910E+02  0.1819E+03
      6.834  0.4464E+02  0.1849E+03
      6.897  0.4388E+02  0.1876E+03
      6.959  0.4223E+02  0.1902E+03
      7.022  0.3853E+02  0.1927E+03
      7.084  0.3878E+02  0.1951E+03
      7.147  0.4182E+02  0.1975E+03
      7.209  0.3774E+02  0.2000E+03
      7.272  0.3104E+02  0.2021E+03
      7.335  0.3251E+02  0.2041E+03
      7.397  0.3657E+02  0.2062E+03
      7.460  0.3634E+02  0.2086E+03
      7.522  0.3573E+02  0.2108E+03
      7.585  0.3389E+02  0.2130E+03
      7.647  0.3336E+02  0.2151E+03
      7.710  0.3438E+02  0.2172E+03
      7.772  0.3665E+02  0.2194E+03
      7.835  0.3949E+02  0.2218E+03
      7.897  0.3866E+02  0.2242E+03
      7.960  0.3606E+02  0.2266E+03
      8.022  0.3458E+02  0.2288E+03
      8.085  0.3521E+02  0.2309E+03
      8.147  0.3844E+02  0.2333E+03
      8.210  0.4597E+02  0.2359E+03
      8.272  0.4373E+02  0.2385E+03
      8.335  0.4390E+02  0.2413E+03
      8.397  0.4044E+02  0.2439E+03
      8.460  0.3850E+02  0.2464E+03
      8.522  0.3462E+02  0.2486E+03
      8.585  0.3255E+02  0.2507E+03
      8.647  0.3028E+02  0.2525E+03
      8.710  0.3603E+02  0.2546E+03
      8.772  0.3548E+02  0.2569E+03
      8.835  0.3266E+02  0.2591E+03
      8.897  0.3210E+02  0.2612E+03
      8.960  0.3154E+02  0.2632E+03
      9.022  0.3045E+02  0.2651E+03
      9.085  0.2716E+02  0.2670E+03
      9.148  0.3056E+02  0.2688E+03
      9.210  0.3461E+02  0.2709E+03
      9.273  0.3230E+02  0.2730E+03
      9.335  0.2934E+02  0.2749E+03
      9.398  0.2885E+02  0.2767E+03
      9.460  0.3010E+02  0.2785E+03
      9.523  0.2809E+02  0.2804E+03
      9.585  0.3236E+02  0.2823E+03
      9.648  0.3414E+02  0.2844E+03
      9.710  0.3355E+02  0.2865E+03
      9.773  0.3604E+02  0.2888E+03
      9.835  0.3176E+02  0.2909E+03
      9.898  0.3101E+02  0.2929E+03
      9.960  0.3016E+02  0.2948E+03
     10.023  0.3137E+02  0.2967E+03
     10.085  0.4018E+02  0.2989E+03
     10.148  0.4341E+02  0.3015E+03
     10.210  0.4829E+02  0.3044E+03
     10.273  0.5664E+02  0.3077E+03
     10.335  0.5781E+02  0.3113E+03
     10.398  0.5428E+02  0.3148E+03
     10.460  0.5638E+02  0.3183E+03
     10.523  0.4877E+02  0.3215E+03
     10.585  0.4997E+02  0.3245E+03
     10.648  0.4644E+02  0.3277E+03
     10.710  0.4185E+02  0.3303E+03
     10.773  0.2755E+02  0.3327E+03
     10.835  0.2428E+02  0.3343E+03
     10.898  0.2637E+02  0.3358E+03
     10.961  0.2219E+02  0.3374E+03
     11.023  0.1263E+02  0.3385E+03
     11.086  0.1043E+02  0.3393E+03
     11.148  0.9871E+01  0.3399E+03
     11.211  0.9215E+01  0.3405E+03
     11.273  0.9289E+01  0.3411E+03
     11.336  0.8940E+01  0.3416E+03
     11.398  0.8536E+01  0.3422E+03
     11.461  0.8093E+01  0.3427E+03
     11.523  0.7891E+01  0.3432E+03
     11.586  0.8185E+01  0.3437E+03
     11.648  0.8051E+01  0.3442E+03
     11.711  0.7963E+01  0.3447E+03
     11.773  0.8135E+01  0.3452E+03
     11.836  0.7701E+01  0.3457E+03
     11.898  0.7555E+01  0.3462E+03
     11.961  0.7773E+01  0.3467E+03
     12.023  0.7917E+01  0.3471E+03
     12.086  0.9009E+01  0.3477E+03
     12.148  0.8836E+01  0.3482E+03
     12.211  0.8437E+01  0.3488E+03
     12.273  0.8160E+01  0.3493E+03
     12.336  0.8116E+01  0.3498E+03
     12.398  0.8481E+01  0.3503E+03
     12.461  0.7536E+01  0.3508E+03
     12.523  0.7097E+01  0.3513E+03
     12.586  0.6684E+01  0.3517E+03
     12.648  0.6473E+01  0.3521E+03
     12.711  0.6949E+01  0.3526E+03
     12.773  0.7527E+01  0.3530E+03
     12.836  0.7978E+01  0.3535E+03
     12.899  0.8431E+01  0.3540E+03
     12.961  0.8177E+01  0.3545E+03
     13.024  0.6705E+01  0.3550E+03
     13.086  0.5506E+01  0.3554E+03
     13.149  0.4838E+01  0.3557E+03
     13.211  0.4515E+01  0.3560E+03
     13.274  0.4734E+01  0.3563E+03
     13.336  0.4577E+01  0.3566E+03
     13.399  0.3935E+01  0.3568E+03
     13.461  0.3638E+01  0.3571E+03
     13.524  0.3384E+01  0.3573E+03
     13.586  0.3350E+01  0.3575E+03
     13.649  0.3455E+01  0.3577E+03
     13.711  0.3552E+01  0.3579E+03
     13.774  0.3111E+01  0.3581E+03
     13.836  0.3087E+01  0.3583E+03
     13.899  0.2777E+01  0.3585E+03
     13.961  0.2513E+01  0.3587E+03
     14.024  0.2220E+01  0.3588E+03
     14.086  0.2035E+01  0.3590E+03
     14.149  0.1890E+01  0.3591E+03
     14.211  0.1726E+01  0.3592E+03
     14.274  0.1568E+01  0.3593E+03
     14.336  0.1419E+01  0.3594E+03
     14.399  0.1284E+01  0.3595E+03
     14.461  0.1158E+01  0.3596E+03
     14.524  0.1041E+01  0.3596E+03
     14.586  0.9169E+00  0.3597E+03
     14.649  0.7908E+00  0.3597E+03
     14.712  0.6957E+00  0.3598E+03
     14.774  0.6142E+00  0.3598E+03
     14.837  0.5173E+00  0.3599E+03
     14.899  0.4085E+00  0.3599E+03
     14.962  0.3313E+00  0.3599E+03
     15.024  0.2717E+00  0.3599E+03
     15.087  0.2236E+00  0.3599E+03
     15.149  0.1821E+00  0.3600E+03
     15.212  0.1473E+00  0.3600E+03
     15.274  0.1070E+00  0.3600E+03
     15.337  0.8234E-01  0.3600E+03
     15.399  0.6010E-01  0.3600E+03
     15.462  0.3979E-01  0.3600E+03
     15.524  0.2521E-01  0.3600E+03
     15.587  0.1676E-01  0.3600E+03
     15.649  0.1175E-01  0.3600E+03
     15.712  0.8413E-02  0.3600E+03
     15.774  0.6011E-02  0.3600E+03
     15.837  0.4233E-02  0.3600E+03
     15.899  0.2998E-02  0.3600E+03
     15.962  0.2282E-02  0.3600E+03
     16.024  0.1748E-02  0.3600E+03
     16.087  0.1284E-02  0.3600E+03
     16.149  0.8921E-03  0.3600E+03
     16.212  0.5712E-03  0.3600E+03
     16.274  0.3215E-03  0.3600E+03
     16.337  0.1431E-03  0.3600E+03
     16.399  0.3593E-04  0.3600E+03
     16.462  0.6533E-09  0.3600E+03
     16.524  0.0000E+00  0.3600E+03
     16.587  0.0000E+00  0.3600E+03
     16.650  0.0000E+00  0.3600E+03
     16.712  0.0000E+00  0.3600E+03
     16.775  0.0000E+00  0.3600E+03
     16.837  0.0000E+00  0.3600E+03
     16.900  0.0000E+00  0.3600E+03
     16.962  0.0000E+00  0.3600E+03
     17.025  0.0000E+00  0.3600E+03
     17.087  0.0000E+00  0.3600E+03
     17.150  0.0000E+00  0.3600E+03
     17.212  0.0000E+00  0.3600E+03
     17.275  0.0000E+00  0.3600E+03
     17.337  0.0000E+00  0.3600E+03
     17.400  0.0000E+00  0.3600E+03
     17.462  0.0000E+00  0.3600E+03
