<?xml version="1.0" encoding="ISO-8859-1"?>
<modeling>
 <generator>
  <i name="program" type="string">vasp </i>
  <i name="version" type="string">5.4.1  </i>
  <i name="subversion" type="string">24Jun15 (build Feb 03 2017 16:24:58) complex                          parallel </i>
  <i name="platform" type="string">IFC91_ompi </i>
  <i name="date" type="string">2018 06 22 </i>
  <i name="time" type="string">18:02:15 </i>
 </generator>
 <incar>
  <i type="string" name="SYSTEM"> Ir_Ru</i>
  <i type="int" name="ISTART">     0</i>
  <i type="string" name="PREC">accurate</i>
  <i type="string" name="ALGO"> Very_Fast</i>
  <i type="int" name="ICHARG">     2</i>
  <i type="int" name="NELMIN">     5</i>
  <i type="int" name="IBRION">    -1</i>
  <i name="EDIFFG">      0.00001000</i>
  <i type="int" name="ISIF">     2</i>
  <i type="int" name="ISMEAR">    -5</i>
  <i name="SIGMA">      0.10000000</i>
  <v type="int" name="KPOINT_BSE">    -1     0     0     0</v>
 </incar>
 <kpoints>
  <generation param="Gamma">
   <v type="int" name="divisions">       7        7        7 </v>
   <v name="usershift">      0.00000000       0.00000000       0.00000000 </v>
   <v name="genvec1">      0.14285714      -0.00000000       0.00000000 </v>
   <v name="genvec2">      0.00000000       0.14285714      -0.00000000 </v>
   <v name="genvec3">      0.00000000      -0.00000000       0.14285714 </v>
   <v name="shift">      0.00000000       0.00000000       0.00000000 </v>
  </generation>
  <varray name="kpointlist" >
   <v>       0.00000000       0.00000000       0.00000000 </v>
   <v>       0.14285714      -0.00000000       0.00000000 </v>
   <v>       0.28571429       0.00000000       0.00000000 </v>
   <v>       0.42857143      -0.00000000       0.00000000 </v>
   <v>       0.00000000       0.14285714       0.00000000 </v>
   <v>       0.14285714       0.14285714       0.00000000 </v>
   <v>       0.28571429       0.14285714       0.00000000 </v>
   <v>       0.42857143       0.14285714       0.00000000 </v>
   <v>      -0.42857143       0.14285714      -0.00000000 </v>
   <v>      -0.28571429       0.14285714       0.00000000 </v>
   <v>      -0.14285714       0.14285714      -0.00000000 </v>
   <v>      -0.00000000       0.28571429       0.00000000 </v>
   <v>       0.14285714       0.28571429       0.00000000 </v>
   <v>       0.28571429       0.28571429       0.00000000 </v>
   <v>       0.42857143       0.28571429       0.00000000 </v>
   <v>      -0.42857143       0.28571429      -0.00000000 </v>
   <v>      -0.28571429       0.28571429       0.00000000 </v>
   <v>      -0.14285714       0.28571429       0.00000000 </v>
   <v>      -0.00000000       0.42857143       0.00000000 </v>
   <v>       0.14285714       0.42857143       0.00000000 </v>
   <v>       0.28571429       0.42857143       0.00000000 </v>
   <v>       0.42857143       0.42857143       0.00000000 </v>
   <v>      -0.42857143       0.42857143      -0.00000000 </v>
   <v>      -0.28571429       0.42857143       0.00000000 </v>
   <v>      -0.14285714       0.42857143       0.00000000 </v>
   <v>      -0.00000000       0.00000000       0.14285714 </v>
   <v>       0.14285714       0.00000000       0.14285714 </v>
   <v>       0.28571429       0.00000000       0.14285714 </v>
   <v>       0.42857143       0.00000000       0.14285714 </v>
   <v>      -0.42857143       0.00000000       0.14285714 </v>
   <v>      -0.28571429      -0.00000000       0.14285714 </v>
   <v>      -0.14285714       0.00000000       0.14285714 </v>
   <v>       0.00000000       0.14285714       0.14285714 </v>
   <v>       0.14285714       0.14285714       0.14285714 </v>
   <v>       0.28571429       0.14285714       0.14285714 </v>
   <v>       0.42857143       0.14285714       0.14285714 </v>
   <v>      -0.42857143       0.14285714       0.14285714 </v>
   <v>      -0.28571429       0.14285714       0.14285714 </v>
   <v>      -0.14285714       0.14285714       0.14285714 </v>
   <v>      -0.00000000       0.28571429       0.14285714 </v>
   <v>       0.14285714       0.28571429       0.14285714 </v>
   <v>       0.28571429       0.28571429       0.14285714 </v>
   <v>       0.42857143       0.28571429       0.14285714 </v>
   <v>      -0.42857143       0.28571429       0.14285714 </v>
   <v>      -0.28571429       0.28571429       0.14285714 </v>
   <v>      -0.14285714       0.28571429       0.14285714 </v>
   <v>      -0.00000000       0.42857143       0.14285714 </v>
   <v>       0.14285714       0.42857143       0.14285714 </v>
   <v>       0.28571429       0.42857143       0.14285714 </v>
   <v>       0.42857143       0.42857143       0.14285714 </v>
   <v>      -0.42857143       0.42857143       0.14285714 </v>
   <v>      -0.28571429       0.42857143       0.14285714 </v>
   <v>      -0.14285714       0.42857143       0.14285714 </v>
   <v>       0.00000000      -0.42857143       0.14285714 </v>
   <v>       0.14285714      -0.42857143       0.14285714 </v>
   <v>       0.28571429      -0.42857143       0.14285714 </v>
   <v>       0.42857143      -0.42857143       0.14285714 </v>
   <v>      -0.42857143      -0.42857143       0.14285714 </v>
   <v>      -0.28571429      -0.42857143       0.14285714 </v>
   <v>      -0.14285714      -0.42857143       0.14285714 </v>
   <v>       0.00000000      -0.28571429       0.14285714 </v>
   <v>       0.14285714      -0.28571429       0.14285714 </v>
   <v>       0.28571429      -0.28571429       0.14285714 </v>
   <v>       0.42857143      -0.28571429       0.14285714 </v>
   <v>      -0.42857143      -0.28571429       0.14285714 </v>
   <v>      -0.28571429      -0.28571429       0.14285714 </v>
   <v>      -0.14285714      -0.28571429       0.14285714 </v>
   <v>      -0.00000000      -0.14285714       0.14285714 </v>
   <v>       0.14285714      -0.14285714       0.14285714 </v>
   <v>       0.28571429      -0.14285714       0.14285714 </v>
   <v>       0.42857143      -0.14285714       0.14285714 </v>
   <v>      -0.42857143      -0.14285714       0.14285714 </v>
   <v>      -0.28571429      -0.14285714       0.14285714 </v>
   <v>      -0.14285714      -0.14285714       0.14285714 </v>
   <v>      -0.00000000      -0.00000000       0.28571429 </v>
   <v>       0.14285714       0.00000000       0.28571429 </v>
   <v>       0.28571429       0.00000000       0.28571429 </v>
   <v>       0.42857143       0.00000000       0.28571429 </v>
   <v>      -0.42857143       0.00000000       0.28571429 </v>
   <v>      -0.28571429      -0.00000000       0.28571429 </v>
   <v>      -0.14285714      -0.00000000       0.28571429 </v>
   <v>       0.00000000       0.14285714       0.28571429 </v>
   <v>       0.14285714       0.14285714       0.28571429 </v>
   <v>       0.28571429       0.14285714       0.28571429 </v>
   <v>       0.42857143       0.14285714       0.28571429 </v>
   <v>      -0.42857143       0.14285714       0.28571429 </v>
   <v>      -0.28571429       0.14285714       0.28571429 </v>
   <v>      -0.14285714       0.14285714       0.28571429 </v>
   <v>      -0.00000000       0.28571429       0.28571429 </v>
   <v>       0.14285714       0.28571429       0.28571429 </v>
   <v>       0.28571429       0.28571429       0.28571429 </v>
   <v>       0.42857143       0.28571429       0.28571429 </v>
   <v>      -0.42857143       0.28571429       0.28571429 </v>
   <v>      -0.28571429       0.28571429       0.28571429 </v>
   <v>      -0.14285714       0.28571429       0.28571429 </v>
   <v>      -0.00000000       0.42857143       0.28571429 </v>
   <v>       0.14285714       0.42857143       0.28571429 </v>
   <v>       0.28571429       0.42857143       0.28571429 </v>
   <v>       0.42857143       0.42857143       0.28571429 </v>
   <v>      -0.42857143       0.42857143       0.28571429 </v>
   <v>      -0.28571429       0.42857143       0.28571429 </v>
   <v>      -0.14285714       0.42857143       0.28571429 </v>
   <v>      -0.00000000      -0.42857143       0.28571429 </v>
   <v>       0.14285714      -0.42857143       0.28571429 </v>
   <v>       0.28571429      -0.42857143       0.28571429 </v>
   <v>       0.42857143      -0.42857143       0.28571429 </v>
   <v>      -0.42857143      -0.42857143       0.28571429 </v>
   <v>      -0.28571429      -0.42857143       0.28571429 </v>
   <v>      -0.14285714      -0.42857143       0.28571429 </v>
   <v>       0.00000000      -0.28571429       0.28571429 </v>
   <v>       0.14285714      -0.28571429       0.28571429 </v>
   <v>       0.28571429      -0.28571429       0.28571429 </v>
   <v>       0.42857143      -0.28571429       0.28571429 </v>
   <v>      -0.42857143      -0.28571429       0.28571429 </v>
   <v>      -0.28571429      -0.28571429       0.28571429 </v>
   <v>      -0.14285714      -0.28571429       0.28571429 </v>
   <v>      -0.00000000      -0.14285714       0.28571429 </v>
   <v>       0.14285714      -0.14285714       0.28571429 </v>
   <v>       0.28571429      -0.14285714       0.28571429 </v>
   <v>       0.42857143      -0.14285714       0.28571429 </v>
   <v>      -0.42857143      -0.14285714       0.28571429 </v>
   <v>      -0.28571429      -0.14285714       0.28571429 </v>
   <v>      -0.14285714      -0.14285714       0.28571429 </v>
   <v>      -0.00000000      -0.00000000       0.42857143 </v>
   <v>       0.14285714       0.00000000       0.42857143 </v>
   <v>       0.28571429       0.00000000       0.42857143 </v>
   <v>       0.42857143      -0.00000000       0.42857143 </v>
   <v>      -0.42857143      -0.00000000       0.42857143 </v>
   <v>      -0.28571429      -0.00000000       0.42857143 </v>
   <v>      -0.14285714       0.00000000       0.42857143 </v>
   <v>      -0.00000000       0.14285714       0.42857143 </v>
   <v>       0.14285714       0.14285714       0.42857143 </v>
   <v>       0.28571429       0.14285714       0.42857143 </v>
   <v>       0.42857143       0.14285714       0.42857143 </v>
   <v>      -0.42857143       0.14285714       0.42857143 </v>
   <v>      -0.28571429       0.14285714       0.42857143 </v>
   <v>      -0.14285714       0.14285714       0.42857143 </v>
   <v>      -0.00000000       0.28571429       0.42857143 </v>
   <v>       0.14285714       0.28571429       0.42857143 </v>
   <v>       0.28571429       0.28571429       0.42857143 </v>
   <v>       0.42857143       0.28571429       0.42857143 </v>
   <v>      -0.42857143       0.28571429       0.42857143 </v>
   <v>      -0.28571429       0.28571429       0.42857143 </v>
   <v>      -0.14285714       0.28571429       0.42857143 </v>
   <v>       0.00000000       0.42857143       0.42857143 </v>
   <v>       0.14285714       0.42857143       0.42857143 </v>
   <v>       0.28571429       0.42857143       0.42857143 </v>
   <v>       0.42857143       0.42857143       0.42857143 </v>
   <v>      -0.42857143       0.42857143       0.42857143 </v>
   <v>      -0.28571429       0.42857143       0.42857143 </v>
   <v>      -0.14285714       0.42857143       0.42857143 </v>
   <v>       0.00000000      -0.42857143       0.42857143 </v>
   <v>       0.14285714      -0.42857143       0.42857143 </v>
   <v>       0.28571429      -0.42857143       0.42857143 </v>
   <v>       0.42857143      -0.42857143       0.42857143 </v>
   <v>      -0.42857143      -0.42857143       0.42857143 </v>
   <v>      -0.28571429      -0.42857143       0.42857143 </v>
   <v>      -0.14285714      -0.42857143       0.42857143 </v>
   <v>       0.00000000      -0.28571429       0.42857143 </v>
   <v>       0.14285714      -0.28571429       0.42857143 </v>
   <v>       0.28571429      -0.28571429       0.42857143 </v>
   <v>       0.42857143      -0.28571429       0.42857143 </v>
   <v>      -0.42857143      -0.28571429       0.42857143 </v>
   <v>      -0.28571429      -0.28571429       0.42857143 </v>
   <v>      -0.14285714      -0.28571429       0.42857143 </v>
   <v>       0.00000000      -0.14285714       0.42857143 </v>
   <v>       0.14285714      -0.14285714       0.42857143 </v>
   <v>       0.28571429      -0.14285714       0.42857143 </v>
   <v>       0.42857143      -0.14285714       0.42857143 </v>
   <v>      -0.42857143      -0.14285714       0.42857143 </v>
   <v>      -0.28571429      -0.14285714       0.42857143 </v>
   <v>      -0.14285714      -0.14285714       0.42857143 </v>
  </varray>
  <varray name="weights" >
   <v>       0.00291545 </v>
   <v>       0.00583090 </v>
   <v>       0.00583090 </v>
   <v>       0.00583090 </v>
   <v>       0.00583090 </v>
   <v>       0.00583090 </v>
   <v>       0.00583090 </v>
   <v>       0.00583090 </v>
   <v>       0.00583090 </v>
   <v>       0.00583090 </v>
   <v>       0.00583090 </v>
   <v>       0.00583090 </v>
   <v>       0.00583090 </v>
   <v>       0.00583090 </v>
   <v>       0.00583090 </v>
   <v>       0.00583090 </v>
   <v>       0.00583090 </v>
   <v>       0.00583090 </v>
   <v>       0.00583090 </v>
   <v>       0.00583090 </v>
   <v>       0.00583090 </v>
   <v>       0.00583090 </v>
   <v>       0.00583090 </v>
   <v>       0.00583090 </v>
   <v>       0.00583090 </v>
   <v>       0.00583090 </v>
   <v>       0.00583090 </v>
   <v>       0.00583090 </v>
   <v>       0.00583090 </v>
   <v>       0.00583090 </v>
   <v>       0.00583090 </v>
   <v>       0.00583090 </v>
   <v>       0.00583090 </v>
   <v>       0.00583090 </v>
   <v>       0.00583090 </v>
   <v>       0.00583090 </v>
   <v>       0.00583090 </v>
   <v>       0.00583090 </v>
   <v>       0.00583090 </v>
   <v>       0.00583090 </v>
   <v>       0.00583090 </v>
   <v>       0.00583090 </v>
   <v>       0.00583090 </v>
   <v>       0.00583090 </v>
   <v>       0.00583090 </v>
   <v>       0.00583090 </v>
   <v>       0.00583090 </v>
   <v>       0.00583090 </v>
   <v>       0.00583090 </v>
   <v>       0.00583090 </v>
   <v>       0.00583090 </v>
   <v>       0.00583090 </v>
   <v>       0.00583090 </v>
   <v>       0.00583090 </v>
   <v>       0.00583090 </v>
   <v>       0.00583090 </v>
   <v>       0.00583090 </v>
   <v>       0.00583090 </v>
   <v>       0.00583090 </v>
   <v>       0.00583090 </v>
   <v>       0.00583090 </v>
   <v>       0.00583090 </v>
   <v>       0.00583090 </v>
   <v>       0.00583090 </v>
   <v>       0.00583090 </v>
   <v>       0.00583090 </v>
   <v>       0.00583090 </v>
   <v>       0.00583090 </v>
   <v>       0.00583090 </v>
   <v>       0.00583090 </v>
   <v>       0.00583090 </v>
   <v>       0.00583090 </v>
   <v>       0.00583090 </v>
   <v>       0.00583090 </v>
   <v>       0.00583090 </v>
   <v>       0.00583090 </v>
   <v>       0.00583090 </v>
   <v>       0.00583090 </v>
   <v>       0.00583090 </v>
   <v>       0.00583090 </v>
   <v>       0.00583090 </v>
   <v>       0.00583090 </v>
   <v>       0.00583090 </v>
   <v>       0.00583090 </v>
   <v>       0.00583090 </v>
   <v>       0.00583090 </v>
   <v>       0.00583090 </v>
   <v>       0.00583090 </v>
   <v>       0.00583090 </v>
   <v>       0.00583090 </v>
   <v>       0.00583090 </v>
   <v>       0.00583090 </v>
   <v>       0.00583090 </v>
   <v>       0.00583090 </v>
   <v>       0.00583090 </v>
   <v>       0.00583090 </v>
   <v>       0.00583090 </v>
   <v>       0.00583090 </v>
   <v>       0.00583090 </v>
   <v>       0.00583090 </v>
   <v>       0.00583090 </v>
   <v>       0.00583090 </v>
   <v>       0.00583090 </v>
   <v>       0.00583090 </v>
   <v>       0.00583090 </v>
   <v>       0.00583090 </v>
   <v>       0.00583090 </v>
   <v>       0.00583090 </v>
   <v>       0.00583090 </v>
   <v>       0.00583090 </v>
   <v>       0.00583090 </v>
   <v>       0.00583090 </v>
   <v>       0.00583090 </v>
   <v>       0.00583090 </v>
   <v>       0.00583090 </v>
   <v>       0.00583090 </v>
   <v>       0.00583090 </v>
   <v>       0.00583090 </v>
   <v>       0.00583090 </v>
   <v>       0.00583090 </v>
   <v>       0.00583090 </v>
   <v>       0.00583090 </v>
   <v>       0.00583090 </v>
   <v>       0.00583090 </v>
   <v>       0.00583090 </v>
   <v>       0.00583090 </v>
   <v>       0.00583090 </v>
   <v>       0.00583090 </v>
   <v>       0.00583090 </v>
   <v>       0.00583090 </v>
   <v>       0.00583090 </v>
   <v>       0.00583090 </v>
   <v>       0.00583090 </v>
   <v>       0.00583090 </v>
   <v>       0.00583090 </v>
   <v>       0.00583090 </v>
   <v>       0.00583090 </v>
   <v>       0.00583090 </v>
   <v>       0.00583090 </v>
   <v>       0.00583090 </v>
   <v>       0.00583090 </v>
   <v>       0.00583090 </v>
   <v>       0.00583090 </v>
   <v>       0.00583090 </v>
   <v>       0.00583090 </v>
   <v>       0.00583090 </v>
   <v>       0.00583090 </v>
   <v>       0.00583090 </v>
   <v>       0.00583090 </v>
   <v>       0.00583090 </v>
   <v>       0.00583090 </v>
   <v>       0.00583090 </v>
   <v>       0.00583090 </v>
   <v>       0.00583090 </v>
   <v>       0.00583090 </v>
   <v>       0.00583090 </v>
   <v>       0.00583090 </v>
   <v>       0.00583090 </v>
   <v>       0.00583090 </v>
   <v>       0.00583090 </v>
   <v>       0.00583090 </v>
   <v>       0.00583090 </v>
   <v>       0.00583090 </v>
   <v>       0.00583090 </v>
   <v>       0.00583090 </v>
   <v>       0.00583090 </v>
   <v>       0.00583090 </v>
   <v>       0.00583090 </v>
   <v>       0.00583090 </v>
   <v>       0.00583090 </v>
   <v>       0.00583090 </v>
   <v>       0.00583090 </v>
  </varray>
  <varray name="tetrahedronlist"  type="int" >
   <v type="int" >        2        1        2        6       26 </v>
   <v type="int" >        2        1        5        6       26 </v>
   <v type="int" >        2        5        6       26       33 </v>
   <v type="int" >        2        2        6       26       27 </v>
   <v type="int" >        2        6       26       27       34 </v>
   <v type="int" >        2        6       26       33       34 </v>
   <v type="int" >        2        2        3        7       27 </v>
   <v type="int" >        2        2        6        7       27 </v>
   <v type="int" >        2        6        7       27       34 </v>
   <v type="int" >        2        3        7       27       28 </v>
   <v type="int" >        2        7       27       28       35 </v>
   <v type="int" >        2        7       27       34       35 </v>
   <v type="int" >        2        3        4        8       28 </v>
   <v type="int" >        2        3        7        8       28 </v>
   <v type="int" >        2        7        8       28       35 </v>
   <v type="int" >        2        4        8       28       29 </v>
   <v type="int" >        2        8       28       29       36 </v>
   <v type="int" >        2        8       28       35       36 </v>
   <v type="int" >        2        4        4        9       29 </v>
   <v type="int" >        2        4        8        9       29 </v>
   <v type="int" >        2        8        9       29       36 </v>
   <v type="int" >        2        4        9       29       30 </v>
   <v type="int" >        2        9       29       30       37 </v>
   <v type="int" >        2        9       29       36       37 </v>
   <v type="int" >        2        3        4       10       30 </v>
   <v type="int" >        2        4        9       10       30 </v>
   <v type="int" >        2        9       10       30       37 </v>
   <v type="int" >        2        3       10       30       31 </v>
   <v type="int" >        2       10       30       31       38 </v>
   <v type="int" >        2       10       30       37       38 </v>
   <v type="int" >        2        2        3       11       31 </v>
   <v type="int" >        2        3       10       11       31 </v>
   <v type="int" >        2       10       11       31       38 </v>
   <v type="int" >        2        2       11       31       32 </v>
   <v type="int" >        2       11       31       32       39 </v>
   <v type="int" >        2       11       31       38       39 </v>
   <v type="int" >        2        1        2        5       32 </v>
   <v type="int" >        2        2        5       11       32 </v>
   <v type="int" >        2        5       11       32       39 </v>
   <v type="int" >        2        1        5       26       32 </v>
   <v type="int" >        2        5       26       32       33 </v>
   <v type="int" >        2        5       32       33       39 </v>
   <v type="int" >        2        5        6       13       33 </v>
   <v type="int" >        2        5       12       13       33 </v>
   <v type="int" >        2       12       13       33       40 </v>
   <v type="int" >        2        6       13       33       34 </v>
   <v type="int" >        2       13       33       34       41 </v>
   <v type="int" >        2       13       33       40       41 </v>
   <v type="int" >        2        6        7       14       34 </v>
   <v type="int" >        2        6       13       14       34 </v>
   <v type="int" >        2       13       14       34       41 </v>
   <v type="int" >        2        7       14       34       35 </v>
   <v type="int" >        2       14       34       35       42 </v>
   <v type="int" >        2       14       34       41       42 </v>
   <v type="int" >        2        7        8       15       35 </v>
   <v type="int" >        2        7       14       15       35 </v>
   <v type="int" >        2       14       15       35       42 </v>
   <v type="int" >        2        8       15       35       36 </v>
   <v type="int" >        2       15       35       36       43 </v>
   <v type="int" >        2       15       35       42       43 </v>
   <v type="int" >        2        8        9       16       36 </v>
   <v type="int" >        2        8       15       16       36 </v>
   <v type="int" >        2       15       16       36       43 </v>
   <v type="int" >        2        9       16       36       37 </v>
   <v type="int" >        2       16       36       37       44 </v>
   <v type="int" >        2       16       36       43       44 </v>
   <v type="int" >        2        9       10       17       37 </v>
   <v type="int" >        2        9       16       17       37 </v>
   <v type="int" >        2       16       17       37       44 </v>
   <v type="int" >        2       10       17       37       38 </v>
   <v type="int" >        2       17       37       38       45 </v>
   <v type="int" >        2       17       37       44       45 </v>
   <v type="int" >        2       10       11       18       38 </v>
   <v type="int" >        2       10       17       18       38 </v>
   <v type="int" >        2       17       18       38       45 </v>
   <v type="int" >        2       11       18       38       39 </v>
   <v type="int" >        2       18       38       39       46 </v>
   <v type="int" >        2       18       38       45       46 </v>
   <v type="int" >        2        5       11       12       39 </v>
   <v type="int" >        2       11       12       18       39 </v>
   <v type="int" >        2       12       18       39       46 </v>
   <v type="int" >        2        5       12       33       39 </v>
   <v type="int" >        2       12       33       39       40 </v>
   <v type="int" >        2       12       39       40       46 </v>
   <v type="int" >        2       12       13       20       40 </v>
   <v type="int" >        2       12       19       20       40 </v>
   <v type="int" >        2       19       20       40       47 </v>
   <v type="int" >        2       13       20       40       41 </v>
   <v type="int" >        2       20       40       41       48 </v>
   <v type="int" >        2       20       40       47       48 </v>
   <v type="int" >        2       13       14       21       41 </v>
   <v type="int" >        2       13       20       21       41 </v>
   <v type="int" >        2       20       21       41       48 </v>
   <v type="int" >        2       14       21       41       42 </v>
   <v type="int" >        2       21       41       42       49 </v>
   <v type="int" >        2       21       41       48       49 </v>
   <v type="int" >        2       14       15       22       42 </v>
   <v type="int" >        2       14       21       22       42 </v>
   <v type="int" >        2       21       22       42       49 </v>
   <v type="int" >        2       15       22       42       43 </v>
   <v type="int" >        2       22       42       43       50 </v>
   <v type="int" >        2       22       42       49       50 </v>
   <v type="int" >        2       15       16       23       43 </v>
   <v type="int" >        2       15       22       23       43 </v>
   <v type="int" >        2       22       23       43       50 </v>
   <v type="int" >        2       16       23       43       44 </v>
   <v type="int" >        2       23       43       44       51 </v>
   <v type="int" >        2       23       43       50       51 </v>
   <v type="int" >        2       16       17       24       44 </v>
   <v type="int" >        2       16       23       24       44 </v>
   <v type="int" >        2       23       24       44       51 </v>
   <v type="int" >        2       17       24       44       45 </v>
   <v type="int" >        2       24       44       45       52 </v>
   <v type="int" >        2       24       44       51       52 </v>
   <v type="int" >        2       17       18       25       45 </v>
   <v type="int" >        2       17       24       25       45 </v>
   <v type="int" >        2       24       25       45       52 </v>
   <v type="int" >        2       18       25       45       46 </v>
   <v type="int" >        2       25       45       46       53 </v>
   <v type="int" >        2       25       45       52       53 </v>
   <v type="int" >        2       12       18       19       46 </v>
   <v type="int" >        2       18       19       25       46 </v>
   <v type="int" >        2       19       25       46       53 </v>
   <v type="int" >        2       12       19       40       46 </v>
   <v type="int" >        2       19       40       46       47 </v>
   <v type="int" >        2       19       46       47       53 </v>
   <v type="int" >        2       19       20       25       47 </v>
   <v type="int" >        2       19       19       25       47 </v>
   <v type="int" >        2       19       25       47       54 </v>
   <v type="int" >        2       20       25       47       48 </v>
   <v type="int" >        2       25       47       48       55 </v>
   <v type="int" >        2       25       47       54       55 </v>
   <v type="int" >        2       20       21       24       48 </v>
   <v type="int" >        2       20       24       25       48 </v>
   <v type="int" >        2       24       25       48       55 </v>
   <v type="int" >        2       21       24       48       49 </v>
   <v type="int" >        2       24       48       49       56 </v>
   <v type="int" >        2       24       48       55       56 </v>
   <v type="int" >        2       21       22       23       49 </v>
   <v type="int" >        2       21       23       24       49 </v>
   <v type="int" >        2       23       24       49       56 </v>
   <v type="int" >        2       22       23       49       50 </v>
   <v type="int" >        2       23       49       50       57 </v>
   <v type="int" >        2       23       49       56       57 </v>
   <v type="int" >        4       22       22       23       50 </v>
   <v type="int" >        2       22       23       50       57 </v>
   <v type="int" >        2       22       23       50       51 </v>
   <v type="int" >        2       22       50       51       58 </v>
   <v type="int" >        2       22       50       57       58 </v>
   <v type="int" >        2       21       23       24       51 </v>
   <v type="int" >        2       21       22       23       51 </v>
   <v type="int" >        2       21       22       51       58 </v>
   <v type="int" >        2       21       24       51       52 </v>
   <v type="int" >        2       21       51       52       59 </v>
   <v type="int" >        2       21       51       58       59 </v>
   <v type="int" >        2       20       24       25       52 </v>
   <v type="int" >        2       20       21       24       52 </v>
   <v type="int" >        2       20       21       52       59 </v>
   <v type="int" >        2       20       25       52       53 </v>
   <v type="int" >        2       20       52       53       60 </v>
   <v type="int" >        2       20       52       59       60 </v>
   <v type="int" >        2       19       19       25       53 </v>
   <v type="int" >        2       19       20       25       53 </v>
   <v type="int" >        2       19       20       53       60 </v>
   <v type="int" >        2       19       19       47       53 </v>
   <v type="int" >        2       19       47       53       54 </v>
   <v type="int" >        2       19       53       54       60 </v>
   <v type="int" >        2       18       19       25       54 </v>
   <v type="int" >        2       12       18       19       54 </v>
   <v type="int" >        2       12       18       54       61 </v>
   <v type="int" >        2       18       25       54       55 </v>
   <v type="int" >        2       18       54       55       62 </v>
   <v type="int" >        2       18       54       61       62 </v>
   <v type="int" >        2       17       24       25       55 </v>
   <v type="int" >        2       17       18       25       55 </v>
   <v type="int" >        2       17       18       55       62 </v>
   <v type="int" >        2       17       24       55       56 </v>
   <v type="int" >        2       17       55       56       63 </v>
   <v type="int" >        2       17       55       62       63 </v>
   <v type="int" >        2       16       23       24       56 </v>
   <v type="int" >        2       16       17       24       56 </v>
   <v type="int" >        2       16       17       56       63 </v>
   <v type="int" >        2       16       23       56       57 </v>
   <v type="int" >        2       16       56       57       64 </v>
   <v type="int" >        2       16       56       63       64 </v>
   <v type="int" >        2       15       22       23       57 </v>
   <v type="int" >        2       15       16       23       57 </v>
   <v type="int" >        2       15       16       57       64 </v>
   <v type="int" >        2       15       22       57       58 </v>
   <v type="int" >        2       15       57       58       65 </v>
   <v type="int" >        2       15       57       64       65 </v>
   <v type="int" >        2       14       21       22       58 </v>
   <v type="int" >        2       14       15       22       58 </v>
   <v type="int" >        2       14       15       58       65 </v>
   <v type="int" >        2       14       21       58       59 </v>
   <v type="int" >        2       14       58       59       66 </v>
   <v type="int" >        2       14       58       65       66 </v>
   <v type="int" >        2       13       20       21       59 </v>
   <v type="int" >        2       13       14       21       59 </v>
   <v type="int" >        2       13       14       59       66 </v>
   <v type="int" >        2       13       20       59       60 </v>
   <v type="int" >        2       13       59       60       67 </v>
   <v type="int" >        2       13       59       66       67 </v>
   <v type="int" >        2       12       19       20       60 </v>
   <v type="int" >        2       12       13       20       60 </v>
   <v type="int" >        2       12       13       60       67 </v>
   <v type="int" >        2       12       19       54       60 </v>
   <v type="int" >        2       12       54       60       61 </v>
   <v type="int" >        2       12       60       61       67 </v>
   <v type="int" >        2       11       12       18       61 </v>
   <v type="int" >        2        5       11       12       61 </v>
   <v type="int" >        2        5       11       61       68 </v>
   <v type="int" >        2       11       18       61       62 </v>
   <v type="int" >        2       11       61       62       69 </v>
   <v type="int" >        2       11       61       68       69 </v>
   <v type="int" >        2       10       17       18       62 </v>
   <v type="int" >        2       10       11       18       62 </v>
   <v type="int" >        2       10       11       62       69 </v>
   <v type="int" >        2       10       17       62       63 </v>
   <v type="int" >        2       10       62       63       70 </v>
   <v type="int" >        2       10       62       69       70 </v>
   <v type="int" >        2        9       16       17       63 </v>
   <v type="int" >        2        9       10       17       63 </v>
   <v type="int" >        2        9       10       63       70 </v>
   <v type="int" >        2        9       16       63       64 </v>
   <v type="int" >        2        9       63       64       71 </v>
   <v type="int" >        2        9       63       70       71 </v>
   <v type="int" >        2        8       15       16       64 </v>
   <v type="int" >        2        8        9       16       64 </v>
   <v type="int" >        2        8        9       64       71 </v>
   <v type="int" >        2        8       15       64       65 </v>
   <v type="int" >        2        8       64       65       72 </v>
   <v type="int" >        2        8       64       71       72 </v>
   <v type="int" >        2        7       14       15       65 </v>
   <v type="int" >        2        7        8       15       65 </v>
   <v type="int" >        2        7        8       65       72 </v>
   <v type="int" >        2        7       14       65       66 </v>
   <v type="int" >        2        7       65       66       73 </v>
   <v type="int" >        2        7       65       72       73 </v>
   <v type="int" >        2        6       13       14       66 </v>
   <v type="int" >        2        6        7       14       66 </v>
   <v type="int" >        2        6        7       66       73 </v>
   <v type="int" >        2        6       13       66       67 </v>
   <v type="int" >        2        6       66       67       74 </v>
   <v type="int" >        2        6       66       73       74 </v>
   <v type="int" >        2        5       12       13       67 </v>
   <v type="int" >        2        5        6       13       67 </v>
   <v type="int" >        2        5        6       67       74 </v>
   <v type="int" >        2        5       12       61       67 </v>
   <v type="int" >        2        5       61       67       68 </v>
   <v type="int" >        2        5       67       68       74 </v>
   <v type="int" >        2        2        5       11       68 </v>
   <v type="int" >        2        1        2        5       68 </v>
   <v type="int" >        2        1        2       26       68 </v>
   <v type="int" >        2        2       11       68       69 </v>
   <v type="int" >        2        2       27       68       69 </v>
   <v type="int" >        2        2       26       27       68 </v>
   <v type="int" >        2        3       10       11       69 </v>
   <v type="int" >        2        2        3       11       69 </v>
   <v type="int" >        2        2        3       27       69 </v>
   <v type="int" >        2        3       10       69       70 </v>
   <v type="int" >        2        3       28       69       70 </v>
   <v type="int" >        2        3       27       28       69 </v>
   <v type="int" >        2        4        9       10       70 </v>
   <v type="int" >        2        3        4       10       70 </v>
   <v type="int" >        2        3        4       28       70 </v>
   <v type="int" >        2        4        9       70       71 </v>
   <v type="int" >        2        4       29       70       71 </v>
   <v type="int" >        2        4       28       29       70 </v>
   <v type="int" >        2        4        8        9       71 </v>
   <v type="int" >        2        4        4        9       71 </v>
   <v type="int" >        2        4        4       29       71 </v>
   <v type="int" >        2        4        8       71       72 </v>
   <v type="int" >        2        4       30       71       72 </v>
   <v type="int" >        2        4       29       30       71 </v>
   <v type="int" >        2        3        7        8       72 </v>
   <v type="int" >        2        3        4        8       72 </v>
   <v type="int" >        2        3        4       30       72 </v>
   <v type="int" >        2        3        7       72       73 </v>
   <v type="int" >        2        3       31       72       73 </v>
   <v type="int" >        2        3       30       31       72 </v>
   <v type="int" >        2        2        6        7       73 </v>
   <v type="int" >        2        2        3        7       73 </v>
   <v type="int" >        2        2        3       31       73 </v>
   <v type="int" >        2        2        6       73       74 </v>
   <v type="int" >        2        2       32       73       74 </v>
   <v type="int" >        2        2       31       32       73 </v>
   <v type="int" >        2        1        5        6       74 </v>
   <v type="int" >        2        1        2        6       74 </v>
   <v type="int" >        2        1        2       32       74 </v>
   <v type="int" >        2        1        5       68       74 </v>
   <v type="int" >        2        1       26       68       74 </v>
   <v type="int" >        2        1       26       32       74 </v>
   <v type="int" >        2       26       27       34       75 </v>
   <v type="int" >        2       26       33       34       75 </v>
   <v type="int" >        2       33       34       75       82 </v>
   <v type="int" >        2       27       34       75       76 </v>
   <v type="int" >        2       34       75       76       83 </v>
   <v type="int" >        2       34       75       82       83 </v>
   <v type="int" >        2       27       28       35       76 </v>
   <v type="int" >        2       27       34       35       76 </v>
   <v type="int" >        2       34       35       76       83 </v>
   <v type="int" >        2       28       35       76       77 </v>
   <v type="int" >        2       35       76       77       84 </v>
   <v type="int" >        2       35       76       83       84 </v>
   <v type="int" >        2       28       29       36       77 </v>
   <v type="int" >        2       28       35       36       77 </v>
   <v type="int" >        2       35       36       77       84 </v>
   <v type="int" >        2       29       36       77       78 </v>
   <v type="int" >        2       36       77       78       85 </v>
   <v type="int" >        2       36       77       84       85 </v>
   <v type="int" >        2       29       30       37       78 </v>
   <v type="int" >        2       29       36       37       78 </v>
   <v type="int" >        2       36       37       78       85 </v>
   <v type="int" >        2       30       37       78       79 </v>
   <v type="int" >        2       37       78       79       86 </v>
   <v type="int" >        2       37       78       85       86 </v>
   <v type="int" >        2       30       31       38       79 </v>
   <v type="int" >        2       30       37       38       79 </v>
   <v type="int" >        2       37       38       79       86 </v>
   <v type="int" >        2       31       38       79       80 </v>
   <v type="int" >        2       38       79       80       87 </v>
   <v type="int" >        2       38       79       86       87 </v>
   <v type="int" >        2       31       32       39       80 </v>
   <v type="int" >        2       31       38       39       80 </v>
   <v type="int" >        2       38       39       80       87 </v>
   <v type="int" >        2       32       39       80       81 </v>
   <v type="int" >        2       39       80       81       88 </v>
   <v type="int" >        2       39       80       87       88 </v>
   <v type="int" >        2       26       32       33       81 </v>
   <v type="int" >        2       32       33       39       81 </v>
   <v type="int" >        2       33       39       81       88 </v>
   <v type="int" >        2       26       33       75       81 </v>
   <v type="int" >        2       33       75       81       82 </v>
   <v type="int" >        2       33       81       82       88 </v>
   <v type="int" >        2       33       34       41       82 </v>
   <v type="int" >        2       33       40       41       82 </v>
   <v type="int" >        2       40       41       82       89 </v>
   <v type="int" >        2       34       41       82       83 </v>
   <v type="int" >        2       41       82       83       90 </v>
   <v type="int" >        2       41       82       89       90 </v>
   <v type="int" >        2       34       35       42       83 </v>
   <v type="int" >        2       34       41       42       83 </v>
   <v type="int" >        2       41       42       83       90 </v>
   <v type="int" >        2       35       42       83       84 </v>
   <v type="int" >        2       42       83       84       91 </v>
   <v type="int" >        2       42       83       90       91 </v>
   <v type="int" >        2       35       36       43       84 </v>
   <v type="int" >        2       35       42       43       84 </v>
   <v type="int" >        2       42       43       84       91 </v>
   <v type="int" >        2       36       43       84       85 </v>
   <v type="int" >        2       43       84       85       92 </v>
   <v type="int" >        2       43       84       91       92 </v>
   <v type="int" >        2       36       37       44       85 </v>
   <v type="int" >        2       36       43       44       85 </v>
   <v type="int" >        2       43       44       85       92 </v>
   <v type="int" >        2       37       44       85       86 </v>
   <v type="int" >        2       44       85       86       93 </v>
   <v type="int" >        2       44       85       92       93 </v>
   <v type="int" >        2       37       38       45       86 </v>
   <v type="int" >        2       37       44       45       86 </v>
   <v type="int" >        2       44       45       86       93 </v>
   <v type="int" >        2       38       45       86       87 </v>
   <v type="int" >        2       45       86       87       94 </v>
   <v type="int" >        2       45       86       93       94 </v>
   <v type="int" >        2       38       39       46       87 </v>
   <v type="int" >        2       38       45       46       87 </v>
   <v type="int" >        2       45       46       87       94 </v>
   <v type="int" >        2       39       46       87       88 </v>
   <v type="int" >        2       46       87       88       95 </v>
   <v type="int" >        2       46       87       94       95 </v>
   <v type="int" >        2       33       39       40       88 </v>
   <v type="int" >        2       39       40       46       88 </v>
   <v type="int" >        2       40       46       88       95 </v>
   <v type="int" >        2       33       40       82       88 </v>
   <v type="int" >        2       40       82       88       89 </v>
   <v type="int" >        2       40       88       89       95 </v>
   <v type="int" >        2       40       41       48       89 </v>
   <v type="int" >        2       40       47       48       89 </v>
   <v type="int" >        2       47       48       89       96 </v>
   <v type="int" >        2       41       48       89       90 </v>
   <v type="int" >        2       48       89       90       97 </v>
   <v type="int" >        2       48       89       96       97 </v>
   <v type="int" >        2       41       42       49       90 </v>
   <v type="int" >        2       41       48       49       90 </v>
   <v type="int" >        2       48       49       90       97 </v>
   <v type="int" >        2       42       49       90       91 </v>
   <v type="int" >        2       49       90       91       98 </v>
   <v type="int" >        2       49       90       97       98 </v>
   <v type="int" >        2       42       43       50       91 </v>
   <v type="int" >        2       42       49       50       91 </v>
   <v type="int" >        2       49       50       91       98 </v>
   <v type="int" >        2       43       50       91       92 </v>
   <v type="int" >        2       50       91       92       99 </v>
   <v type="int" >        2       50       91       98       99 </v>
   <v type="int" >        2       43       44       51       92 </v>
   <v type="int" >        2       43       50       51       92 </v>
   <v type="int" >        2       50       51       92       99 </v>
   <v type="int" >        2       44       51       92       93 </v>
   <v type="int" >        2       51       92       93      100 </v>
   <v type="int" >        2       51       92       99      100 </v>
   <v type="int" >        2       44       45       52       93 </v>
   <v type="int" >        2       44       51       52       93 </v>
   <v type="int" >        2       51       52       93      100 </v>
   <v type="int" >        2       45       52       93       94 </v>
   <v type="int" >        2       52       93       94      101 </v>
   <v type="int" >        2       52       93      100      101 </v>
   <v type="int" >        2       45       46       53       94 </v>
   <v type="int" >        2       45       52       53       94 </v>
   <v type="int" >        2       52       53       94      101 </v>
   <v type="int" >        2       46       53       94       95 </v>
   <v type="int" >        2       53       94       95      102 </v>
   <v type="int" >        2       53       94      101      102 </v>
   <v type="int" >        2       40       46       47       95 </v>
   <v type="int" >        2       46       47       53       95 </v>
   <v type="int" >        2       47       53       95      102 </v>
   <v type="int" >        2       40       47       89       95 </v>
   <v type="int" >        2       47       89       95       96 </v>
   <v type="int" >        2       47       95       96      102 </v>
   <v type="int" >        2       47       48       55       96 </v>
   <v type="int" >        2       47       54       55       96 </v>
   <v type="int" >        2       54       55       96      103 </v>
   <v type="int" >        2       48       55       96       97 </v>
   <v type="int" >        2       55       96       97      104 </v>
   <v type="int" >        2       55       96      103      104 </v>
   <v type="int" >        2       48       49       56       97 </v>
   <v type="int" >        2       48       55       56       97 </v>
   <v type="int" >        2       55       56       97      104 </v>
   <v type="int" >        2       49       56       97       98 </v>
   <v type="int" >        2       56       97       98      105 </v>
   <v type="int" >        2       56       97      104      105 </v>
   <v type="int" >        2       49       50       57       98 </v>
   <v type="int" >        2       49       56       57       98 </v>
   <v type="int" >        2       56       57       98      105 </v>
   <v type="int" >        2       50       57       98       99 </v>
   <v type="int" >        2       57       98       99      106 </v>
   <v type="int" >        2       57       98      105      106 </v>
   <v type="int" >        2       50       51       58       99 </v>
   <v type="int" >        2       50       57       58       99 </v>
   <v type="int" >        2       57       58       99      106 </v>
   <v type="int" >        2       51       58       99      100 </v>
   <v type="int" >        2       58       99      100      107 </v>
   <v type="int" >        2       58       99      106      107 </v>
   <v type="int" >        2       51       52       59      100 </v>
   <v type="int" >        2       51       58       59      100 </v>
   <v type="int" >        2       58       59      100      107 </v>
   <v type="int" >        2       52       59      100      101 </v>
   <v type="int" >        2       59      100      101      108 </v>
   <v type="int" >        2       59      100      107      108 </v>
   <v type="int" >        2       52       53       60      101 </v>
   <v type="int" >        2       52       59       60      101 </v>
   <v type="int" >        2       59       60      101      108 </v>
   <v type="int" >        2       53       60      101      102 </v>
   <v type="int" >        2       60      101      102      109 </v>
   <v type="int" >        2       60      101      108      109 </v>
   <v type="int" >        2       47       53       54      102 </v>
   <v type="int" >        2       53       54       60      102 </v>
   <v type="int" >        2       54       60      102      109 </v>
   <v type="int" >        2       47       54       96      102 </v>
   <v type="int" >        2       54       96      102      103 </v>
   <v type="int" >        2       54      102      103      109 </v>
   <v type="int" >        2       54       55       62      103 </v>
   <v type="int" >        2       54       61       62      103 </v>
   <v type="int" >        2       61       62      103      110 </v>
   <v type="int" >        2       55       62      103      104 </v>
   <v type="int" >        2       62      103      104      111 </v>
   <v type="int" >        2       62      103      110      111 </v>
   <v type="int" >        2       55       56       63      104 </v>
   <v type="int" >        2       55       62       63      104 </v>
   <v type="int" >        2       62       63      104      111 </v>
   <v type="int" >        2       56       63      104      105 </v>
   <v type="int" >        2       63      104      105      112 </v>
   <v type="int" >        2       63      104      111      112 </v>
   <v type="int" >        2       56       57       64      105 </v>
   <v type="int" >        2       56       63       64      105 </v>
   <v type="int" >        2       63       64      105      112 </v>
   <v type="int" >        2       57       64      105      106 </v>
   <v type="int" >        2       64      105      106      113 </v>
   <v type="int" >        2       64      105      112      113 </v>
   <v type="int" >        2       57       58       65      106 </v>
   <v type="int" >        2       57       64       65      106 </v>
   <v type="int" >        2       64       65      106      113 </v>
   <v type="int" >        2       58       65      106      107 </v>
   <v type="int" >        2       65      106      107      114 </v>
   <v type="int" >        2       65      106      113      114 </v>
   <v type="int" >        2       58       59       66      107 </v>
   <v type="int" >        2       58       65       66      107 </v>
   <v type="int" >        2       65       66      107      114 </v>
   <v type="int" >        2       59       66      107      108 </v>
   <v type="int" >        2       66      107      108      115 </v>
   <v type="int" >        2       66      107      114      115 </v>
   <v type="int" >        2       59       60       67      108 </v>
   <v type="int" >        2       59       66       67      108 </v>
   <v type="int" >        2       66       67      108      115 </v>
   <v type="int" >        2       60       67      108      109 </v>
   <v type="int" >        2       67      108      109      116 </v>
   <v type="int" >        2       67      108      115      116 </v>
   <v type="int" >        2       54       60       61      109 </v>
   <v type="int" >        2       60       61       67      109 </v>
   <v type="int" >        2       61       67      109      116 </v>
   <v type="int" >        2       54       61      103      109 </v>
   <v type="int" >        2       61      103      109      110 </v>
   <v type="int" >        2       61      109      110      116 </v>
   <v type="int" >        2       61       62       69      110 </v>
   <v type="int" >        2       61       68       69      110 </v>
   <v type="int" >        2       68       69      110      117 </v>
   <v type="int" >        2       62       69      110      111 </v>
   <v type="int" >        2       69      110      111      118 </v>
   <v type="int" >        2       69      110      117      118 </v>
   <v type="int" >        2       62       63       70      111 </v>
   <v type="int" >        2       62       69       70      111 </v>
   <v type="int" >        2       69       70      111      118 </v>
   <v type="int" >        2       63       70      111      112 </v>
   <v type="int" >        2       70      111      112      119 </v>
   <v type="int" >        2       70      111      118      119 </v>
   <v type="int" >        2       63       64       71      112 </v>
   <v type="int" >        2       63       70       71      112 </v>
   <v type="int" >        2       70       71      112      119 </v>
   <v type="int" >        2       64       71      112      113 </v>
   <v type="int" >        2       71      112      113      120 </v>
   <v type="int" >        2       71      112      119      120 </v>
   <v type="int" >        2       64       65       72      113 </v>
   <v type="int" >        2       64       71       72      113 </v>
   <v type="int" >        2       71       72      113      120 </v>
   <v type="int" >        2       65       72      113      114 </v>
   <v type="int" >        2       72      113      114      121 </v>
   <v type="int" >        2       72      113      120      121 </v>
   <v type="int" >        2       65       66       73      114 </v>
   <v type="int" >        2       65       72       73      114 </v>
   <v type="int" >        2       72       73      114      121 </v>
   <v type="int" >        2       66       73      114      115 </v>
   <v type="int" >        2       73      114      115      122 </v>
   <v type="int" >        2       73      114      121      122 </v>
   <v type="int" >        2       66       67       74      115 </v>
   <v type="int" >        2       66       73       74      115 </v>
   <v type="int" >        2       73       74      115      122 </v>
   <v type="int" >        2       67       74      115      116 </v>
   <v type="int" >        2       74      115      116      123 </v>
   <v type="int" >        2       74      115      122      123 </v>
   <v type="int" >        2       61       67       68      116 </v>
   <v type="int" >        2       67       68       74      116 </v>
   <v type="int" >        2       68       74      116      123 </v>
   <v type="int" >        2       61       68      110      116 </v>
   <v type="int" >        2       68      110      116      117 </v>
   <v type="int" >        2       68      116      117      123 </v>
   <v type="int" >        2       27       68       69      117 </v>
   <v type="int" >        2       26       27       68      117 </v>
   <v type="int" >        2       26       27       75      117 </v>
   <v type="int" >        2       27       69      117      118 </v>
   <v type="int" >        2       27       76      117      118 </v>
   <v type="int" >        2       27       75       76      117 </v>
   <v type="int" >        2       28       69       70      118 </v>
   <v type="int" >        2       27       28       69      118 </v>
   <v type="int" >        2       27       28       76      118 </v>
   <v type="int" >        2       28       70      118      119 </v>
   <v type="int" >        2       28       77      118      119 </v>
   <v type="int" >        2       28       76       77      118 </v>
   <v type="int" >        2       29       70       71      119 </v>
   <v type="int" >        2       28       29       70      119 </v>
   <v type="int" >        2       28       29       77      119 </v>
   <v type="int" >        2       29       71      119      120 </v>
   <v type="int" >        2       29       78      119      120 </v>
   <v type="int" >        2       29       77       78      119 </v>
   <v type="int" >        2       30       71       72      120 </v>
   <v type="int" >        2       29       30       71      120 </v>
   <v type="int" >        2       29       30       78      120 </v>
   <v type="int" >        2       30       72      120      121 </v>
   <v type="int" >        2       30       79      120      121 </v>
   <v type="int" >        2       30       78       79      120 </v>
   <v type="int" >        2       31       72       73      121 </v>
   <v type="int" >        2       30       31       72      121 </v>
   <v type="int" >        2       30       31       79      121 </v>
   <v type="int" >        2       31       73      121      122 </v>
   <v type="int" >        2       31       80      121      122 </v>
   <v type="int" >        2       31       79       80      121 </v>
   <v type="int" >        2       32       73       74      122 </v>
   <v type="int" >        2       31       32       73      122 </v>
   <v type="int" >        2       31       32       80      122 </v>
   <v type="int" >        2       32       74      122      123 </v>
   <v type="int" >        2       32       81      122      123 </v>
   <v type="int" >        2       32       80       81      122 </v>
   <v type="int" >        2       26       68       74      123 </v>
   <v type="int" >        2       26       32       74      123 </v>
   <v type="int" >        2       26       32       81      123 </v>
   <v type="int" >        2       26       68      117      123 </v>
   <v type="int" >        2       26       75      117      123 </v>
   <v type="int" >        2       26       75       81      123 </v>
   <v type="int" >        2       75       76       83      124 </v>
   <v type="int" >        2       75       82       83      124 </v>
   <v type="int" >        2       82       83      124      131 </v>
   <v type="int" >        2       76       83      124      125 </v>
   <v type="int" >        2       83      124      125      132 </v>
   <v type="int" >        2       83      124      131      132 </v>
   <v type="int" >        2       76       77       84      125 </v>
   <v type="int" >        2       76       83       84      125 </v>
   <v type="int" >        2       83       84      125      132 </v>
   <v type="int" >        2       77       84      125      126 </v>
   <v type="int" >        2       84      125      126      133 </v>
   <v type="int" >        2       84      125      132      133 </v>
   <v type="int" >        2       77       78       85      126 </v>
   <v type="int" >        2       77       84       85      126 </v>
   <v type="int" >        2       84       85      126      133 </v>
   <v type="int" >        2       78       85      126      127 </v>
   <v type="int" >        2       85      126      127      134 </v>
   <v type="int" >        2       85      126      133      134 </v>
   <v type="int" >        2       78       79       86      127 </v>
   <v type="int" >        2       78       85       86      127 </v>
   <v type="int" >        2       85       86      127      134 </v>
   <v type="int" >        2       79       86      127      128 </v>
   <v type="int" >        2       86      127      128      135 </v>
   <v type="int" >        2       86      127      134      135 </v>
   <v type="int" >        2       79       80       87      128 </v>
   <v type="int" >        2       79       86       87      128 </v>
   <v type="int" >        2       86       87      128      135 </v>
   <v type="int" >        2       80       87      128      129 </v>
   <v type="int" >        2       87      128      129      136 </v>
   <v type="int" >        2       87      128      135      136 </v>
   <v type="int" >        2       80       81       88      129 </v>
   <v type="int" >        2       80       87       88      129 </v>
   <v type="int" >        2       87       88      129      136 </v>
   <v type="int" >        2       81       88      129      130 </v>
   <v type="int" >        2       88      129      130      137 </v>
   <v type="int" >        2       88      129      136      137 </v>
   <v type="int" >        2       75       81       82      130 </v>
   <v type="int" >        2       81       82       88      130 </v>
   <v type="int" >        2       82       88      130      137 </v>
   <v type="int" >        2       75       82      124      130 </v>
   <v type="int" >        2       82      124      130      131 </v>
   <v type="int" >        2       82      130      131      137 </v>
   <v type="int" >        2       82       83       90      131 </v>
   <v type="int" >        2       82       89       90      131 </v>
   <v type="int" >        2       89       90      131      138 </v>
   <v type="int" >        2       83       90      131      132 </v>
   <v type="int" >        2       90      131      132      139 </v>
   <v type="int" >        2       90      131      138      139 </v>
   <v type="int" >        2       83       84       91      132 </v>
   <v type="int" >        2       83       90       91      132 </v>
   <v type="int" >        2       90       91      132      139 </v>
   <v type="int" >        2       84       91      132      133 </v>
   <v type="int" >        2       91      132      133      140 </v>
   <v type="int" >        2       91      132      139      140 </v>
   <v type="int" >        2       84       85       92      133 </v>
   <v type="int" >        2       84       91       92      133 </v>
   <v type="int" >        2       91       92      133      140 </v>
   <v type="int" >        2       85       92      133      134 </v>
   <v type="int" >        2       92      133      134      141 </v>
   <v type="int" >        2       92      133      140      141 </v>
   <v type="int" >        2       85       86       93      134 </v>
   <v type="int" >        2       85       92       93      134 </v>
   <v type="int" >        2       92       93      134      141 </v>
   <v type="int" >        2       86       93      134      135 </v>
   <v type="int" >        2       93      134      135      142 </v>
   <v type="int" >        2       93      134      141      142 </v>
   <v type="int" >        2       86       87       94      135 </v>
   <v type="int" >        2       86       93       94      135 </v>
   <v type="int" >        2       93       94      135      142 </v>
   <v type="int" >        2       87       94      135      136 </v>
   <v type="int" >        2       94      135      136      143 </v>
   <v type="int" >        2       94      135      142      143 </v>
   <v type="int" >        2       87       88       95      136 </v>
   <v type="int" >        2       87       94       95      136 </v>
   <v type="int" >        2       94       95      136      143 </v>
   <v type="int" >        2       88       95      136      137 </v>
   <v type="int" >        2       95      136      137      144 </v>
   <v type="int" >        2       95      136      143      144 </v>
   <v type="int" >        2       82       88       89      137 </v>
   <v type="int" >        2       88       89       95      137 </v>
   <v type="int" >        2       89       95      137      144 </v>
   <v type="int" >        2       82       89      131      137 </v>
   <v type="int" >        2       89      131      137      138 </v>
   <v type="int" >        2       89      137      138      144 </v>
   <v type="int" >        2       89       90       97      138 </v>
   <v type="int" >        2       89       96       97      138 </v>
   <v type="int" >        2       96       97      138      145 </v>
   <v type="int" >        2       90       97      138      139 </v>
   <v type="int" >        2       97      138      139      146 </v>
   <v type="int" >        2       97      138      145      146 </v>
   <v type="int" >        2       90       91       98      139 </v>
   <v type="int" >        2       90       97       98      139 </v>
   <v type="int" >        2       97       98      139      146 </v>
   <v type="int" >        2       91       98      139      140 </v>
   <v type="int" >        2       98      139      140      147 </v>
   <v type="int" >        2       98      139      146      147 </v>
   <v type="int" >        2       91       92       99      140 </v>
   <v type="int" >        2       91       98       99      140 </v>
   <v type="int" >        2       98       99      140      147 </v>
   <v type="int" >        2       92       99      140      141 </v>
   <v type="int" >        2       99      140      141      148 </v>
   <v type="int" >        2       99      140      147      148 </v>
   <v type="int" >        2       92       93      100      141 </v>
   <v type="int" >        2       92       99      100      141 </v>
   <v type="int" >        2       99      100      141      148 </v>
   <v type="int" >        2       93      100      141      142 </v>
   <v type="int" >        2      100      141      142      149 </v>
   <v type="int" >        2      100      141      148      149 </v>
   <v type="int" >        2       93       94      101      142 </v>
   <v type="int" >        2       93      100      101      142 </v>
   <v type="int" >        2      100      101      142      149 </v>
   <v type="int" >        2       94      101      142      143 </v>
   <v type="int" >        2      101      142      143      150 </v>
   <v type="int" >        2      101      142      149      150 </v>
   <v type="int" >        2       94       95      102      143 </v>
   <v type="int" >        2       94      101      102      143 </v>
   <v type="int" >        2      101      102      143      150 </v>
   <v type="int" >        2       95      102      143      144 </v>
   <v type="int" >        2      102      143      144      151 </v>
   <v type="int" >        2      102      143      150      151 </v>
   <v type="int" >        2       89       95       96      144 </v>
   <v type="int" >        2       95       96      102      144 </v>
   <v type="int" >        2       96      102      144      151 </v>
   <v type="int" >        2       89       96      138      144 </v>
   <v type="int" >        2       96      138      144      145 </v>
   <v type="int" >        2       96      144      145      151 </v>
   <v type="int" >        2       96       97      104      145 </v>
   <v type="int" >        2       96      103      104      145 </v>
   <v type="int" >        2      103      104      145      152 </v>
   <v type="int" >        2       97      104      145      146 </v>
   <v type="int" >        2      104      145      146      153 </v>
   <v type="int" >        2      104      145      152      153 </v>
   <v type="int" >        2       97       98      105      146 </v>
   <v type="int" >        2       97      104      105      146 </v>
   <v type="int" >        2      104      105      146      153 </v>
   <v type="int" >        2       98      105      146      147 </v>
   <v type="int" >        2      105      146      147      154 </v>
   <v type="int" >        2      105      146      153      154 </v>
   <v type="int" >        2       98       99      106      147 </v>
   <v type="int" >        2       98      105      106      147 </v>
   <v type="int" >        2      105      106      147      154 </v>
   <v type="int" >        2       99      106      147      148 </v>
   <v type="int" >        2      106      147      148      155 </v>
   <v type="int" >        2      106      147      154      155 </v>
   <v type="int" >        2       99      100      107      148 </v>
   <v type="int" >        2       99      106      107      148 </v>
   <v type="int" >        2      106      107      148      155 </v>
   <v type="int" >        2      100      107      148      149 </v>
   <v type="int" >        2      107      148      149      156 </v>
   <v type="int" >        2      107      148      155      156 </v>
   <v type="int" >        2      100      101      108      149 </v>
   <v type="int" >        2      100      107      108      149 </v>
   <v type="int" >        2      107      108      149      156 </v>
   <v type="int" >        2      101      108      149      150 </v>
   <v type="int" >        2      108      149      150      157 </v>
   <v type="int" >        2      108      149      156      157 </v>
   <v type="int" >        2      101      102      109      150 </v>
   <v type="int" >        2      101      108      109      150 </v>
   <v type="int" >        2      108      109      150      157 </v>
   <v type="int" >        2      102      109      150      151 </v>
   <v type="int" >        2      109      150      151      158 </v>
   <v type="int" >        2      109      150      157      158 </v>
   <v type="int" >        2       96      102      103      151 </v>
   <v type="int" >        2      102      103      109      151 </v>
   <v type="int" >        2      103      109      151      158 </v>
   <v type="int" >        2       96      103      145      151 </v>
   <v type="int" >        2      103      145      151      152 </v>
   <v type="int" >        2      103      151      152      158 </v>
   <v type="int" >        2      103      104      111      152 </v>
   <v type="int" >        2      103      110      111      152 </v>
   <v type="int" >        2      110      111      152      159 </v>
   <v type="int" >        2      104      111      152      153 </v>
   <v type="int" >        2      111      152      153      160 </v>
   <v type="int" >        2      111      152      159      160 </v>
   <v type="int" >        2      104      105      112      153 </v>
   <v type="int" >        2      104      111      112      153 </v>
   <v type="int" >        2      111      112      153      160 </v>
   <v type="int" >        2      105      112      153      154 </v>
   <v type="int" >        2      112      153      154      161 </v>
   <v type="int" >        2      112      153      160      161 </v>
   <v type="int" >        2      105      106      113      154 </v>
   <v type="int" >        2      105      112      113      154 </v>
   <v type="int" >        2      112      113      154      161 </v>
   <v type="int" >        2      106      113      154      155 </v>
   <v type="int" >        2      113      154      155      162 </v>
   <v type="int" >        2      113      154      161      162 </v>
   <v type="int" >        2      106      107      114      155 </v>
   <v type="int" >        2      106      113      114      155 </v>
   <v type="int" >        2      113      114      155      162 </v>
   <v type="int" >        2      107      114      155      156 </v>
   <v type="int" >        2      114      155      156      163 </v>
   <v type="int" >        2      114      155      162      163 </v>
   <v type="int" >        2      107      108      115      156 </v>
   <v type="int" >        2      107      114      115      156 </v>
   <v type="int" >        2      114      115      156      163 </v>
   <v type="int" >        2      108      115      156      157 </v>
   <v type="int" >        2      115      156      157      164 </v>
   <v type="int" >        2      115      156      163      164 </v>
   <v type="int" >        2      108      109      116      157 </v>
   <v type="int" >        2      108      115      116      157 </v>
   <v type="int" >        2      115      116      157      164 </v>
   <v type="int" >        2      109      116      157      158 </v>
   <v type="int" >        2      116      157      158      165 </v>
   <v type="int" >        2      116      157      164      165 </v>
   <v type="int" >        2      103      109      110      158 </v>
   <v type="int" >        2      109      110      116      158 </v>
   <v type="int" >        2      110      116      158      165 </v>
   <v type="int" >        2      103      110      152      158 </v>
   <v type="int" >        2      110      152      158      159 </v>
   <v type="int" >        2      110      158      159      165 </v>
   <v type="int" >        2      110      111      118      159 </v>
   <v type="int" >        2      110      117      118      159 </v>
   <v type="int" >        2      117      118      159      166 </v>
   <v type="int" >        2      111      118      159      160 </v>
   <v type="int" >        2      118      159      160      167 </v>
   <v type="int" >        2      118      159      166      167 </v>
   <v type="int" >        2      111      112      119      160 </v>
   <v type="int" >        2      111      118      119      160 </v>
   <v type="int" >        2      118      119      160      167 </v>
   <v type="int" >        2      112      119      160      161 </v>
   <v type="int" >        2      119      160      161      168 </v>
   <v type="int" >        2      119      160      167      168 </v>
   <v type="int" >        2      112      113      120      161 </v>
   <v type="int" >        2      112      119      120      161 </v>
   <v type="int" >        2      119      120      161      168 </v>
   <v type="int" >        2      113      120      161      162 </v>
   <v type="int" >        2      120      161      162      169 </v>
   <v type="int" >        2      120      161      168      169 </v>
   <v type="int" >        2      113      114      121      162 </v>
   <v type="int" >        2      113      120      121      162 </v>
   <v type="int" >        2      120      121      162      169 </v>
   <v type="int" >        2      114      121      162      163 </v>
   <v type="int" >        2      121      162      163      170 </v>
   <v type="int" >        2      121      162      169      170 </v>
   <v type="int" >        2      114      115      122      163 </v>
   <v type="int" >        2      114      121      122      163 </v>
   <v type="int" >        2      121      122      163      170 </v>
   <v type="int" >        2      115      122      163      164 </v>
   <v type="int" >        2      122      163      164      171 </v>
   <v type="int" >        2      122      163      170      171 </v>
   <v type="int" >        2      115      116      123      164 </v>
   <v type="int" >        2      115      122      123      164 </v>
   <v type="int" >        2      122      123      164      171 </v>
   <v type="int" >        2      116      123      164      165 </v>
   <v type="int" >        2      123      164      165      172 </v>
   <v type="int" >        2      123      164      171      172 </v>
   <v type="int" >        2      110      116      117      165 </v>
   <v type="int" >        2      116      117      123      165 </v>
   <v type="int" >        2      117      123      165      172 </v>
   <v type="int" >        2      110      117      159      165 </v>
   <v type="int" >        2      117      159      165      166 </v>
   <v type="int" >        2      117      165      166      172 </v>
   <v type="int" >        2       76      117      118      166 </v>
   <v type="int" >        2       75       76      117      166 </v>
   <v type="int" >        2       75       76      124      166 </v>
   <v type="int" >        2       76      118      166      167 </v>
   <v type="int" >        2       76      125      166      167 </v>
   <v type="int" >        2       76      124      125      166 </v>
   <v type="int" >        2       77      118      119      167 </v>
   <v type="int" >        2       76       77      118      167 </v>
   <v type="int" >        2       76       77      125      167 </v>
   <v type="int" >        2       77      119      167      168 </v>
   <v type="int" >        2       77      126      167      168 </v>
   <v type="int" >        2       77      125      126      167 </v>
   <v type="int" >        2       78      119      120      168 </v>
   <v type="int" >        2       77       78      119      168 </v>
   <v type="int" >        2       77       78      126      168 </v>
   <v type="int" >        2       78      120      168      169 </v>
   <v type="int" >        2       78      127      168      169 </v>
   <v type="int" >        2       78      126      127      168 </v>
   <v type="int" >        2       79      120      121      169 </v>
   <v type="int" >        2       78       79      120      169 </v>
   <v type="int" >        2       78       79      127      169 </v>
   <v type="int" >        2       79      121      169      170 </v>
   <v type="int" >        2       79      128      169      170 </v>
   <v type="int" >        2       79      127      128      169 </v>
   <v type="int" >        2       80      121      122      170 </v>
   <v type="int" >        2       79       80      121      170 </v>
   <v type="int" >        2       79       80      128      170 </v>
   <v type="int" >        2       80      122      170      171 </v>
   <v type="int" >        2       80      129      170      171 </v>
   <v type="int" >        2       80      128      129      170 </v>
   <v type="int" >        2       81      122      123      171 </v>
   <v type="int" >        2       80       81      122      171 </v>
   <v type="int" >        2       80       81      129      171 </v>
   <v type="int" >        2       81      123      171      172 </v>
   <v type="int" >        2       81      130      171      172 </v>
   <v type="int" >        2       81      129      130      171 </v>
   <v type="int" >        2       75      117      123      172 </v>
   <v type="int" >        2       75       81      123      172 </v>
   <v type="int" >        2       75       81      130      172 </v>
   <v type="int" >        2       75      117      166      172 </v>
   <v type="int" >        2       75      124      166      172 </v>
   <v type="int" >        2       75      124      130      172 </v>
   <v type="int" >        2      124      124      125      132 </v>
   <v type="int" >        2      124      124      131      132 </v>
   <v type="int" >        2      124      131      132      166 </v>
   <v type="int" >        2      124      125      130      132 </v>
   <v type="int" >        2      124      130      132      172 </v>
   <v type="int" >        2      124      132      166      172 </v>
   <v type="int" >        2      125      126      130      133 </v>
   <v type="int" >        2      125      130      132      133 </v>
   <v type="int" >        2      130      132      133      172 </v>
   <v type="int" >        2      126      129      130      133 </v>
   <v type="int" >        2      129      130      133      171 </v>
   <v type="int" >        2      130      133      171      172 </v>
   <v type="int" >        2      126      127      129      134 </v>
   <v type="int" >        2      126      129      133      134 </v>
   <v type="int" >        2      129      133      134      171 </v>
   <v type="int" >        2      127      128      129      134 </v>
   <v type="int" >        2      128      129      134      170 </v>
   <v type="int" >        2      129      134      170      171 </v>
   <v type="int" >        4      127      128      128      135 </v>
   <v type="int" >        2      127      128      134      135 </v>
   <v type="int" >        2      128      134      135      170 </v>
   <v type="int" >        2      127      128      135      169 </v>
   <v type="int" >        2      128      135      169      170 </v>
   <v type="int" >        2      127      128      129      136 </v>
   <v type="int" >        2      127      128      135      136 </v>
[...]
       <r>    8.4672    1.0000 </r>
       <r>    8.4809    1.0000 </r>
       <r>    8.5109    1.0000 </r>
       <r>    8.5339    1.0000 </r>
       <r>    8.5399    1.0000 </r>
       <r>    8.6708    1.0000 </r>
       <r>    8.6916    1.0000 </r>
       <r>    8.7231    1.0000 </r>
       <r>    8.7476    1.0000 </r>
       <r>    9.2440    0.9999 </r>
       <r>    9.2528    0.7147 </r>
       <r>    9.4036   -0.1304 </r>
       <r>    9.4226   -0.0122 </r>
       <r>    9.5026   -0.0054 </r>
       <r>    9.6750   -0.0006 </r>
       <r>    9.7652    0.0000 </r>
       <r>    9.7758    0.0000 </r>
       <r>    9.8173    0.0000 </r>
       <r>    9.8383    0.0000 </r>
       <r>    9.9139    0.0000 </r>
       <r>    9.9339    0.0000 </r>
       <r>    9.9495    0.0000 </r>
       <r>    9.9761    0.0000 </r>
       <r>   10.0228    0.0000 </r>
       <r>   10.0557    0.0000 </r>
       <r>   10.0604    0.0000 </r>
       <r>   10.0886    0.0000 </r>
       <r>   10.1008    0.0000 </r>
       <r>   10.1113    0.0000 </r>
       <r>   10.1871    0.0000 </r>
       <r>   10.3095    0.0000 </r>
       <r>   10.3720    0.0000 </r>
       <r>   10.3809    0.0000 </r>
       <r>   10.4183    0.0000 </r>
       <r>   10.4540    0.0000 </r>
       <r>   10.4605    0.0000 </r>
       <r>   10.4672    0.0000 </r>
       <r>   10.4782    0.0000 </r>
       <r>   10.4867    0.0000 </r>
       <r>   10.5101    0.0000 </r>
       <r>   10.5449    0.0000 </r>
       <r>   10.5694    0.0000 </r>
       <r>   10.7755    0.0000 </r>
       <r>   10.7810    0.0000 </r>
       <r>   10.8159    0.0000 </r>
       <r>   10.9662    0.0000 </r>
       <r>   10.9740    0.0000 </r>
       <r>   11.5851    0.0000 </r>
       <r>   12.3685    0.0000 </r>
       <r>   12.3897    0.0000 </r>
       <r>   12.6524    0.0000 </r>
       <r>   12.6908    0.0000 </r>
       <r>   12.8088    0.0000 </r>
       <r>   12.9151    0.0000 </r>
       <r>   13.1368    0.0000 </r>
       <r>   15.6219    0.0000 </r>
      </set>
     </set>
    </set>
   </array>
  </eigenvalues>
  <separator name="orbital magnetization" >
   <v name="MAGDIPOLOUT">      0.00000000      0.00000000      0.00000000</v>
  </separator>
  <dos>
   <i name="efermi">      9.24290829 </i>
   <total>
    <array>
     <dimension dim="1">gridpoints</dimension>
     <dimension dim="2">spin</dimension>
     <field>energy</field>
     <field>total</field>
     <field>integrated</field>
     <set>
      <set comment="spin 1">
       <r>    -1.2928     0.0000     0.0000 </r>
       <r>    -1.2303     0.0000     0.0000 </r>
       <r>    -1.1677     0.0000     0.0000 </r>
       <r>    -1.1052     0.0000     0.0000 </r>
       <r>    -1.0427     0.0000     0.0000 </r>
       <r>    -0.9802     0.0000     0.0000 </r>
       <r>    -0.9177     0.0000     0.0000 </r>
       <r>    -0.8552     0.0000     0.0000 </r>
       <r>    -0.7926     0.0000     0.0000 </r>
       <r>    -0.7301     0.0000     0.0000 </r>
       <r>    -0.6676     0.0000     0.0000 </r>
       <r>    -0.6051     0.0000     0.0000 </r>
       <r>    -0.5426     0.0000     0.0000 </r>
       <r>    -0.4801     0.0000     0.0000 </r>
       <r>    -0.4175     0.0000     0.0000 </r>
       <r>    -0.3550     0.0000     0.0000 </r>
       <r>    -0.2925     0.0000     0.0000 </r>
       <r>    -0.2300     0.3500     0.0073 </r>
       <r>    -0.1675     0.6689     0.0428 </r>
       <r>    -0.1050     0.8651     0.0903 </r>
       <r>    -0.0424     1.0715     0.1505 </r>
       <r>     0.0201     1.2752     0.2246 </r>
       <r>     0.0826     1.4238     0.3082 </r>
       <r>     0.1451     1.6205     0.4032 </r>
       <r>     0.2076     1.9067     0.5127 </r>
       <r>     0.2701     2.1843     0.6416 </r>
       <r>     0.3327     2.3395     0.7842 </r>
       <r>     0.3952     2.7703     0.9425 </r>
       <r>     0.4577     3.1716     1.1295 </r>
       <r>     0.5202     3.1226     1.3302 </r>
       <r>     0.5827     2.8187     1.5181 </r>
       <r>     0.6452     2.0812     1.6721 </r>
       <r>     0.7078     1.6215     1.7871 </r>
       <r>     0.7703     1.4128     1.8810 </r>
       <r>     0.8328     0.8901     1.9567 </r>
       <r>     0.8953     0.4940     1.9967 </r>
       <r>     0.9578     1.6534     2.0586 </r>
       <r>     1.0203     3.1062     2.2071 </r>
       <r>     1.0829     4.1062     2.4376 </r>
       <r>     1.1454     4.0520     2.6978 </r>
       <r>     1.2079     3.9915     2.9492 </r>
       <r>     1.2704     3.2759     3.1762 </r>
       <r>     1.3329     2.4116     3.3514 </r>
       <r>     1.3954     1.9784     3.4890 </r>
       <r>     1.4580     2.4577     3.6190 </r>
       <r>     1.5205     3.8323     3.8137 </r>
       <r>     1.5830     4.7534     4.0955 </r>
       <r>     1.6455     4.4422     4.3764 </r>
       <r>     1.7080     4.5585     4.6550 </r>
       <r>     1.7705     6.4566     5.0401 </r>
       <r>     1.8331     6.9286     5.4623 </r>
       <r>     1.8956     6.0671     5.8699 </r>
       <r>     1.9581     4.9295     6.2150 </r>
       <r>     2.0206     7.3780     6.5734 </r>
       <r>     2.0831     7.1205     7.0373 </r>
       <r>     2.1456    11.2576     7.5691 </r>
       <r>     2.2082    10.9831     8.2645 </r>
       <r>     2.2707    16.0145     9.1295 </r>
       <r>     2.3332    16.7845    10.1826 </r>
       <r>     2.3957    14.6719    11.2455 </r>
       <r>     2.4582    17.0912    12.2305 </r>
       <r>     2.5207    20.8552    13.5186 </r>
       <r>     2.5833    19.6111    14.7854 </r>
       <r>     2.6458    21.3821    16.0371 </r>
       <r>     2.7083    24.0620    17.5636 </r>
       <r>     2.7708    22.7500    18.9854 </r>
       <r>     2.8333    28.6903    20.5778 </r>
       <r>     2.8958    32.5688    22.4942 </r>
       <r>     2.9584    30.0333    24.5193 </r>
       <r>     3.0209    27.6693    26.4071 </r>
       <r>     3.0834    33.7174    28.3863 </r>
       <r>     3.1459    38.4625    30.7802 </r>
       <r>     3.2084    35.2490    32.9963 </r>
       <r>     3.2709    39.6846    35.3866 </r>
       <r>     3.3335    40.5358    37.7577 </r>
       <r>     3.3960    41.1816    40.1886 </r>
       <r>     3.4585    38.3094    42.6529 </r>
       <r>     3.5210    40.5424    45.2838 </r>
       <r>     3.5835    45.0725    47.9124 </r>
       <r>     3.6460    45.7133    50.7127 </r>
       <r>     3.7086    47.8609    53.5602 </r>
       <r>     3.7711    45.4630    56.3724 </r>
       <r>     3.8336    40.0968    59.1135 </r>
       <r>     3.8961    43.2846    61.8076 </r>
       <r>     3.9586    44.2534    64.5430 </r>
       <r>     4.0211    44.2043    67.2586 </r>
       <r>     4.0837    38.6327    69.8578 </r>
       <r>     4.1462    36.3743    72.2476 </r>
       <r>     4.2087    33.8684    74.4224 </r>
       <r>     4.2712    32.6859    76.4703 </r>
       <r>     4.3337    28.8474    78.4005 </r>
       <r>     4.3962    35.1069    80.3506 </r>
       <r>     4.4588    30.5370    82.3777 </r>
       <r>     4.5213    27.4845    84.4984 </r>
       <r>     4.5838    30.6290    86.2536 </r>
       <r>     4.6463    36.2773    88.3882 </r>
       <r>     4.7088    37.9330    90.5999 </r>
       <r>     4.7713    39.3578    93.1054 </r>
       <r>     4.8339    35.9849    95.5484 </r>
       <r>     4.8964    40.7182    97.9518 </r>
       <r>     4.9589    34.6969   100.2454 </r>
       <r>     5.0214    36.9226   102.4642 </r>
       <r>     5.0839    38.7401   104.8206 </r>
       <r>     5.1464    38.7080   107.2309 </r>
       <r>     5.2090    33.1315   109.5232 </r>
       <r>     5.2715    34.2097   111.6324 </r>
       <r>     5.3340    36.4325   113.8167 </r>
       <r>     5.3965    39.0490   116.1487 </r>
       <r>     5.4590    38.4089   118.7015 </r>
       <r>     5.5215    36.9168   121.0010 </r>
       <r>     5.5841    34.1689   123.3119 </r>
       <r>     5.6466    37.4182   125.5554 </r>
       <r>     5.7091    40.1879   127.9813 </r>
       <r>     5.7716    41.8020   130.4625 </r>
       <r>     5.8341    46.5509   133.1229 </r>
       <r>     5.8966    43.9444   135.8495 </r>
       <r>     5.9592    45.5307   138.6674 </r>
       <r>     6.0217    47.3551   141.5764 </r>
       <r>     6.0842    46.6813   144.4990 </r>
       <r>     6.1467    51.6100   147.5570 </r>
       <r>     6.2092    53.9372   150.9185 </r>
       <r>     6.2717    51.8485   154.2352 </r>
       <r>     6.3343    52.3944   157.4618 </r>
       <r>     6.3968    58.5720   160.8836 </r>
       <r>     6.4593    58.9596   164.4931 </r>
       <r>     6.5218    58.1073   168.1374 </r>
       <r>     6.5843    56.6988   171.6611 </r>
       <r>     6.6468    51.2711   175.1963 </r>
       <r>     6.7094    55.9775   178.5735 </r>
       <r>     6.7719    49.0964   181.8700 </r>
       <r>     6.8344    44.6378   184.8780 </r>
       <r>     6.8969    43.8781   187.6265 </r>
       <r>     6.9594    42.2272   190.2212 </r>
       <r>     7.0219    38.5332   192.7035 </r>
       <r>     7.0845    38.7778   195.0986 </r>
       <r>     7.1470    41.8239   197.5351 </r>
       <r>     7.2095    37.7356   199.9967 </r>
       <r>     7.2720    31.0402   202.0919 </r>
       <r>     7.3345    32.5069   204.1027 </r>
       <r>     7.3970    36.5657   206.2423 </r>
       <r>     7.4596    36.3387   208.5576 </r>
       <r>     7.5221    35.7319   210.8267 </r>
       <r>     7.5846    33.8869   212.9927 </r>
       <r>     7.6471    33.3555   215.0918 </r>
       <r>     7.7096    34.3778   217.1947 </r>
       <r>     7.7721    36.6479   219.4112 </r>
       <r>     7.8347    39.4909   221.7898 </r>
       <r>     7.8972    38.6622   224.2444 </r>
       <r>     7.9597    36.0630   226.5715 </r>
       <r>     8.0222    34.5835   228.7564 </r>
       <r>     8.0847    35.2106   230.9203 </r>
       <r>     8.1472    38.4436   233.2603 </r>
       <r>     8.2098    45.9717   235.8730 </r>
       <r>     8.2723    43.7299   238.5446 </r>
       <r>     8.3348    43.9037   241.2780 </r>
       <r>     8.3973    40.4431   243.9403 </r>
       <r>     8.4598    38.5004   246.3892 </r>
       <r>     8.5223    34.6187   248.6357 </r>
       <r>     8.5849    32.5542   250.6555 </r>
       <r>     8.6474    30.2791   252.5403 </r>
       <r>     8.7099    36.0283   254.6273 </r>
       <r>     8.7724    35.4757   256.9315 </r>
       <r>     8.8349    32.6557   259.1301 </r>
       <r>     8.8974    32.1013   261.1625 </r>
       <r>     8.9600    31.5386   263.1876 </r>
       <r>     9.0225    30.4548   265.1313 </r>
       <r>     9.0850    27.1642   266.9615 </r>
       <r>     9.1475    30.5563   268.8100 </r>
       <r>     9.2100    34.6084   270.8625 </r>
       <r>     9.2725    32.2956   272.9875 </r>
       <r>     9.3351    29.3371   274.8970 </r>
       <r>     9.3976    28.8455   276.7153 </r>
       <r>     9.4601    30.0982   278.5496 </r>
       <r>     9.5226    28.0882   280.4088 </r>
       <r>     9.5851    32.3566   282.2793 </r>
       <r>     9.6477    34.1426   284.4004 </r>
       <r>     9.7102    33.5508   286.5307 </r>
       <r>     9.7727    36.0427   288.7555 </r>
       <r>     9.8352    31.7601   290.9459 </r>
       <r>     9.8977    31.0070   292.9023 </r>
       <r>     9.9602    30.1589   294.7644 </r>
       <r>    10.0228    31.3678   296.6740 </r>
       <r>    10.0853    40.1799   298.9359 </r>
       <r>    10.1478    43.4055   301.5411 </r>
       <r>    10.2103    48.2917   304.3811 </r>
       <r>    10.2728    56.6441   307.7219 </r>
       <r>    10.3353    57.8101   311.3085 </r>
       <r>    10.3979    54.2778   314.8422 </r>
       <r>    10.4604    56.3777   318.2916 </r>
       <r>    10.5229    48.7674   321.5211 </r>
       <r>    10.5854    49.9693   324.4616 </r>
       <r>    10.6479    46.4413   327.7363 </r>
       <r>    10.7104    41.8537   330.2632 </r>
       <r>    10.7730    27.5532   332.6724 </r>
       <r>    10.8355    24.2773   334.2653 </r>
       <r>    10.8980    26.3697   335.8449 </r>
       <r>    10.9605    22.1861   337.4008 </r>
       <r>    11.0230    12.6334   338.5197 </r>
       <r>    11.0855    10.4288   339.2509 </r>
       <r>    11.1481     9.8706   339.9003 </r>
       <r>    11.2106     9.2150   340.4880 </r>
       <r>    11.2731     9.2895   341.0674 </r>
       <r>    11.3356     8.9405   341.6322 </r>
       <r>    11.3981     8.5365   342.1795 </r>
       <r>    11.4606     8.0934   342.7000 </r>
       <r>    11.5232     7.8910   343.1928 </r>
       <r>    11.5857     8.1850   343.6949 </r>
       <r>    11.6482     8.0509   344.2054 </r>
       <r>    11.7107     7.9626   344.7061 </r>
       <r>    11.7732     8.1347   345.2061 </r>
       <r>    11.8357     7.7009   345.6991 </r>
       <r>    11.8983     7.5554   346.1780 </r>
       <r>    11.9608     7.7733   346.6571 </r>
       <r>    12.0233     7.9166   347.1489 </r>
       <r>    12.0858     9.0086   347.6783 </r>
       <r>    12.1483     8.8359   348.2462 </r>
       <r>    12.2108     8.4369   348.7838 </r>
       <r>    12.2734     8.1600   349.3006 </r>
       <r>    12.3359     8.1163   349.8117 </r>
       <r>    12.3984     8.4812   350.3316 </r>
       <r>    12.4609     7.5362   350.8314 </r>
       <r>    12.5234     7.0970   351.2858 </r>
       <r>    12.5859     6.6840   351.7199 </r>
       <r>    12.6485     6.4727   352.1256 </r>
       <r>    12.7110     6.9495   352.5509 </r>
       <r>    12.7735     7.5268   353.0042 </r>
       <r>    12.8360     7.9782   353.4857 </r>
       <r>    12.8985     8.4307   354.0003 </r>
       <r>    12.9610     8.1774   354.5283 </r>
       <r>    13.0236     6.7049   354.9901 </r>
       <r>    13.0861     5.5059   355.3689 </r>
       <r>    13.1486     4.8379   355.6907 </r>
       <r>    13.2111     4.5154   355.9809 </r>
       <r>    13.2736     4.7341   356.2646 </r>
       <r>    13.3361     4.5766   356.5679 </r>
       <r>    13.3987     3.9352   356.8312 </r>
       <r>    13.4612     3.6375   357.0680 </r>
       <r>    13.5237     3.3836   357.2866 </r>
       <r>    13.5862     3.3497   357.4978 </r>
       <r>    13.6487     3.4546   357.7091 </r>
       <r>    13.7112     3.5516   357.9297 </r>
       <r>    13.7738     3.1115   358.1489 </r>
       <r>    13.8363     3.0867   358.3322 </r>
       <r>    13.8988     2.7767   358.5188 </r>
       <r>    13.9613     2.5131   358.6842 </r>
       <r>    14.0238     2.2199   358.8320 </r>
       <r>    14.0863     2.0353   358.9646 </r>
       <r>    14.1489     1.8904   359.0873 </r>
       <r>    14.2114     1.7262   359.2005 </r>
       <r>    14.2739     1.5677   359.3033 </r>
       <r>    14.3364     1.4194   359.3967 </r>
       <r>    14.3989     1.2843   359.4811 </r>
       <r>    14.4614     1.1584   359.5574 </r>
       <r>    14.5240     1.0412   359.6261 </r>
       <r>    14.5865     0.9169   359.6875 </r>
       <r>    14.6490     0.7908   359.7405 </r>
       <r>    14.7115     0.6957   359.7869 </r>
       <r>    14.7740     0.6142   359.8278 </r>
       <r>    14.8365     0.5173   359.8634 </r>
       <r>    14.8991     0.4085   359.8922 </r>
       <r>    14.9616     0.3313   359.9152 </r>
       <r>    15.0241     0.2717   359.9339 </r>
       <r>    15.0866     0.2236   359.9494 </r>
       <r>    15.1491     0.1821   359.9620 </r>
       <r>    15.2116     0.1473   359.9723 </r>
       <r>    15.2742     0.1070   359.9802 </r>
       <r>    15.3367     0.0823   359.9861 </r>
       <r>    15.3992     0.0601   359.9906 </r>
       <r>    15.4617     0.0398   359.9937 </r>
       <r>    15.5242     0.0252   359.9957 </r>
       <r>    15.5867     0.0168   359.9970 </r>
       <r>    15.6493     0.0118   359.9978 </r>
       <r>    15.7118     0.0084   359.9985 </r>
       <r>    15.7743     0.0060   359.9989 </r>
       <r>    15.8368     0.0042   359.9992 </r>
       <r>    15.8993     0.0030   359.9995 </r>
       <r>    15.9618     0.0023   359.9996 </r>
       <r>    16.0244     0.0017   359.9997 </r>
       <r>    16.0869     0.0013   359.9998 </r>
       <r>    16.1494     0.0009   359.9999 </r>
       <r>    16.2119     0.0006   360.0000 </r>
       <r>    16.2744     0.0003   360.0000 </r>
       <r>    16.3369     0.0001   360.0000 </r>
       <r>    16.3995     0.0000   360.0000 </r>
       <r>    16.4620     0.0000   360.0000 </r>
       <r>    16.5245     0.0000   360.0000 </r>
       <r>    16.5870     0.0000   360.0000 </r>
       <r>    16.6495     0.0000   360.0000 </r>
       <r>    16.7120     0.0000   360.0000 </r>
       <r>    16.7746     0.0000   360.0000 </r>
       <r>    16.8371     0.0000   360.0000 </r>
       <r>    16.8996     0.0000   360.0000 </r>
       <r>    16.9621     0.0000   360.0000 </r>
       <r>    17.0246     0.0000   360.0000 </r>
       <r>    17.0871     0.0000   360.0000 </r>
       <r>    17.1497     0.0000   360.0000 </r>
       <r>    17.2122     0.0000   360.0000 </r>
       <r>    17.2747     0.0000   360.0000 </r>
       <r>    17.3372     0.0000   360.0000 </r>
       <r>    17.3997     0.0000   360.0000 </r>
       <r>    17.4622     0.0000   360.0000 </r>
      </set>
     </set>
    </array>
   </total>
  </dos>
 </calculation>
 <structure name="finalpos" >
  <crystal>
   <varray name="basis" >
    <v>      -7.68902549      -3.84328906       3.84344957 </v>
    <v>      -7.68733237       3.84140869      -3.84194353 </v>
    <v>       7.68808534      -3.84211291      -3.84415383 </v>
   </varray>
   <i name="volume">    454.14646430 </i>
   <varray name="rec_basis" >
    <v>      -0.06501900      -0.13010886       0.00000555 </v>
    <v>      -0.06504765       0.00001988      -0.13011141 </v>
    <v>       0.00000317      -0.13010489      -0.13009312 </v>
   </varray>
  </crystal>
  <varray name="positions" >
   <v>       0.75049077       0.25128978       0.99903095 </v>
   <v>       0.87429096       0.12327208       0.24804127 </v>
   <v>       0.62283771       0.87289465       0.24625239 </v>
   <v>       0.74910172       0.75032027       0.49909381 </v>
   <v>       0.87512033       0.62602742       0.75196370 </v>
   <v>       0.62264667       0.37480494       0.24814273 </v>
   <v>       0.74775727       0.25029639       0.50098162 </v>
   <v>       0.62235576       0.87281300       0.74905550 </v>
   <v>       0.25044989       0.25138080       0.00212856 </v>
   <v>       0.49958375       0.00056837       0.49989591 </v>
   <v>       0.12530128       0.87287788       0.24891372 </v>
   <v>       0.25270250       0.25158827       0.50105527 </v>
   <v>       0.12677394       0.87490945       0.75184884 </v>
   <v>       0.00207044       0.50113748       0.50046306 </v>
   <v>       0.12802779       0.37768511       0.75373909 </v>
   <v>       0.00062560       0.99818768       0.49926886 </v>
   <v>       0.74834135       0.74755958       0.99817365 </v>
   <v>       0.87501194       0.62384216       0.24722972 </v>
   <v>       0.49938502       0.49967244       0.99923805 </v>
   <v>       0.49939227       0.99880081       0.99794798 </v>
   <v>       0.87564948       0.12675313       0.75299933 </v>
   <v>       0.25080647       0.74995700       0.00111679 </v>
   <v>       0.37436447       0.62497721       0.25000797 </v>
   <v>       0.49750960       0.49982339       0.50010279 </v>
   <v>       0.62601108       0.37772832       0.75187164 </v>
   <v>       0.37369307       0.12524787       0.24974190 </v>
   <v>       0.25055330       0.74814977       0.49876764 </v>
   <v>       0.99962897       0.49997139       0.00186806 </v>
   <v>       0.37672621       0.62538329       0.75011503 </v>
   <v>       0.12593453       0.37626333       0.25027284 </v>
   <v>       0.00186265       0.00156866       0.00084192 </v>
   <v>       0.37499320       0.12424807       0.74982940 </v>
  </varray>
 </structure>
</modeling>
