 256 256   0   0
  0.1418917E+02  0.1588033E-08  0.1692661E-08  0.1693229E-08  0.5000000E-15
  1.000000000000000E-004
  CAR 
 Ir_Ru                                   
     14.27480918     -1.29167192  301      9.45688588      1.00000000
     -1.292  0.0000E+00  0.0000E+00
     -1.240  0.0000E+00  0.0000E+00
     -1.188  0.0000E+00  0.0000E+00
     -1.136 -0.2790E-30 -0.1448E-31
     -1.084 -0.1278E-26 -0.6631E-28
     -1.032 -0.3401E-23 -0.1766E-24
     -0.980 -0.5258E-20 -0.2730E-21
     -0.928 -0.4716E-17 -0.2450E-18
     -0.877 -0.2393E-14 -0.1244E-15
     -0.825 -0.7131E-12 -0.3712E-13
     -0.773 -0.1231E-09 -0.6426E-11
     -0.721 -0.1223E-07 -0.6412E-09
     -0.669 -0.6965E-06 -0.3678E-07
     -0.617 -0.2259E-04 -0.1209E-05
     -0.565 -0.4145E-03 -0.2272E-04
     -0.513 -0.4260E-02 -0.2438E-03
     -0.461 -0.2427E-01 -0.1503E-02
     -0.410 -0.7511E-01 -0.5400E-02
     -0.358 -0.1020E+00 -0.1069E-01
     -0.306  0.2051E+00 -0.4805E-04
     -0.254  0.1637E+01  0.8490E-01
     -0.202  0.4396E+01  0.3130E+00
     -0.150  0.6353E+01  0.6426E+00
     -0.098  0.6422E+01  0.9759E+00
     -0.046  0.6959E+01  0.1337E+01
      0.006  0.8855E+01  0.1796E+01
      0.057  0.1118E+02  0.2376E+01
      0.109  0.1361E+02  0.3082E+01
      0.161  0.1434E+02  0.3827E+01
      0.213  0.1171E+02  0.4434E+01
      0.265  0.1006E+02  0.4956E+01
      0.317  0.1425E+02  0.5695E+01
      0.369  0.2033E+02  0.6750E+01
      0.421  0.2251E+02  0.7918E+01
      0.473  0.2271E+02  0.9097E+01
      0.524  0.2352E+02  0.1032E+02
      0.576  0.2252E+02  0.1149E+02
      0.628  0.2042E+02  0.1255E+02
      0.680  0.2099E+02  0.1363E+02
      0.732  0.2042E+02  0.1469E+02
      0.784  0.1463E+02  0.1545E+02
      0.836  0.8872E+01  0.1591E+02
      0.888  0.7977E+01  0.1633E+02
      0.940  0.1162E+02  0.1693E+02
      0.991  0.1885E+02  0.1791E+02
      1.043  0.2785E+02  0.1935E+02
      1.095  0.3336E+02  0.2109E+02
      1.147  0.3304E+02  0.2280E+02
      1.199  0.2882E+02  0.2430E+02
      1.251  0.2291E+02  0.2548E+02
      1.303  0.1952E+02  0.2650E+02
      1.355  0.2165E+02  0.2762E+02
      1.407  0.2715E+02  0.2903E+02
      1.458  0.3034E+02  0.3060E+02
      1.510  0.2980E+02  0.3215E+02
      1.562  0.2936E+02  0.3367E+02
      1.614  0.3049E+02  0.3526E+02
      1.666  0.3115E+02  0.3687E+02
      1.718  0.3198E+02  0.3853E+02
      1.770  0.3499E+02  0.4035E+02
      1.822  0.3912E+02  0.4238E+02
      1.874  0.4548E+02  0.4474E+02
      1.925  0.5460E+02  0.4757E+02
      1.977  0.5937E+02  0.5065E+02
      2.029  0.5486E+02  0.5350E+02
      2.081  0.5051E+02  0.5612E+02
      2.133  0.6135E+02  0.5930E+02
      2.185  0.8655E+02  0.6379E+02
      2.237  0.1085E+03  0.6942E+02
      2.289  0.1197E+03  0.7564E+02
      2.341  0.1259E+03  0.8217E+02
      2.392  0.1316E+03  0.8900E+02
      2.444  0.1375E+03  0.9613E+02
      2.496  0.1470E+03  0.1038E+03
      2.548  0.1642E+03  0.1123E+03
      2.600  0.1826E+03  0.1218E+03
      2.652  0.1946E+03  0.1319E+03
      2.704  0.2064E+03  0.1426E+03
      2.756  0.2234E+03  0.1542E+03
      2.808  0.2308E+03  0.1661E+03
      2.859  0.2247E+03  0.1778E+03
      2.911  0.2277E+03  0.1896E+03
      2.963  0.2451E+03  0.2023E+03
      3.015  0.2579E+03  0.2157E+03
      3.067  0.2600E+03  0.2292E+03
      3.119  0.2605E+03  0.2427E+03
      3.171  0.2641E+03  0.2564E+03
      3.223  0.2732E+03  0.2706E+03
      3.274  0.2883E+03  0.2855E+03
      3.326  0.3076E+03  0.3015E+03
      3.378  0.3245E+03  0.3183E+03
      3.430  0.3308E+03  0.3355E+03
      3.482  0.3278E+03  0.3525E+03
      3.534  0.3213E+03  0.3692E+03
      3.586  0.3181E+03  0.3857E+03
      3.638  0.3165E+03  0.4021E+03
      3.690  0.3110E+03  0.4183E+03
      3.741  0.3051E+03  0.4341E+03
      3.793  0.3011E+03  0.4497E+03
      3.845  0.2968E+03  0.4651E+03
      3.897  0.2933E+03  0.4803E+03
      3.949  0.2886E+03  0.4953E+03
      4.001  0.2762E+03  0.5096E+03
      4.053  0.2664E+03  0.5235E+03
      4.105  0.2755E+03  0.5378E+03
      4.157  0.2941E+03  0.5530E+03
      4.208  0.3028E+03  0.5687E+03
      4.260  0.3052E+03  0.5846E+03
      4.312  0.3122E+03  0.6008E+03
      4.364  0.3189E+03  0.6173E+03
      4.416  0.3214E+03  0.6340E+03
      4.468  0.3236E+03  0.6508E+03
      4.520  0.3210E+03  0.6674E+03
      4.572  0.3096E+03  0.6835E+03
      4.624  0.2972E+03  0.6989E+03
      4.675  0.2934E+03  0.7142E+03
      4.727  0.2980E+03  0.7296E+03
      4.779  0.3056E+03  0.7455E+03
      4.831  0.3177E+03  0.7620E+03
      4.883  0.3316E+03  0.7792E+03
      4.935  0.3379E+03  0.7967E+03
      4.987  0.3452E+03  0.8146E+03
      5.039  0.3583E+03  0.8332E+03
      5.091  0.3656E+03  0.8522E+03
      5.142  0.3643E+03  0.8711E+03
      5.194  0.3552E+03  0.8895E+03
      5.246  0.3347E+03  0.9069E+03
      5.298  0.3024E+03  0.9226E+03
      5.350  0.2614E+03  0.9361E+03
      5.402  0.2183E+03  0.9474E+03
      5.454  0.1845E+03  0.9570E+03
      5.506  0.1726E+03  0.9660E+03
      5.558  0.1892E+03  0.9758E+03
      5.609  0.2273E+03  0.9876E+03
      5.661  0.2757E+03  0.1002E+04
      5.713  0.3257E+03  0.1019E+04
      5.765  0.3676E+03  0.1038E+04
      5.817  0.3951E+03  0.1058E+04
      5.869  0.4103E+03  0.1080E+04
      5.921  0.4191E+03  0.1101E+04
      5.973  0.4256E+03  0.1123E+04
      6.025  0.4281E+03  0.1146E+04
      6.076  0.4164E+03  0.1167E+04
      6.128  0.3921E+03  0.1188E+04
      6.180  0.3720E+03  0.1207E+04
      6.232  0.3612E+03  0.1226E+04
      6.284  0.3553E+03  0.1244E+04
      6.336  0.3563E+03  0.1263E+04
      6.388  0.3691E+03  0.1282E+04
      6.440  0.3820E+03  0.1302E+04
      6.492  0.3844E+03  0.1322E+04
      6.543  0.3916E+03  0.1342E+04
      6.595  0.4097E+03  0.1363E+04
      6.647  0.4238E+03  0.1385E+04
      6.699  0.4282E+03  0.1407E+04
      6.751  0.4255E+03  0.1429E+04
      6.803  0.4135E+03  0.1451E+04
      6.855  0.3921E+03  0.1471E+04
      6.907  0.3733E+03  0.1491E+04
      6.959  0.3665E+03  0.1510E+04
      7.010  0.3637E+03  0.1528E+04
      7.062  0.3680E+03  0.1548E+04
      7.114  0.3911E+03  0.1568E+04
      7.166  0.4147E+03  0.1589E+04
      7.218  0.4221E+03  0.1611E+04
      7.270  0.4223E+03  0.1633E+04
      7.322  0.4136E+03  0.1655E+04
      7.374  0.3882E+03  0.1675E+04
      7.426  0.3590E+03  0.1693E+04
      7.477  0.3403E+03  0.1711E+04
      7.529  0.3327E+03  0.1728E+04
      7.581  0.3287E+03  0.1745E+04
      7.633  0.3172E+03  0.1762E+04
      7.685  0.2959E+03  0.1777E+04
      7.737  0.2776E+03  0.1792E+04
      7.789  0.2687E+03  0.1806E+04
      7.841  0.2636E+03  0.1819E+04
      7.893  0.2575E+03  0.1833E+04
      7.944  0.2485E+03  0.1845E+04
      7.996  0.2430E+03  0.1858E+04
      8.048  0.2433E+03  0.1871E+04
      8.100  0.2393E+03  0.1883E+04
      8.152  0.2313E+03  0.1895E+04
      8.204  0.2290E+03  0.1907E+04
      8.256  0.2333E+03  0.1919E+04
      8.308  0.2377E+03  0.1931E+04
      8.360  0.2391E+03  0.1944E+04
      8.411  0.2369E+03  0.1956E+04
      8.463  0.2288E+03  0.1968E+04
      8.515  0.2186E+03  0.1979E+04
      8.567  0.2121E+03  0.1990E+04
      8.619  0.2072E+03  0.2001E+04
      8.671  0.1999E+03  0.2012E+04
      8.723  0.1915E+03  0.2021E+04
      8.775  0.1832E+03  0.2031E+04
      8.827  0.1795E+03  0.2040E+04
      8.878  0.1881E+03  0.2050E+04
      8.930  0.2128E+03  0.2061E+04
      8.982  0.2353E+03  0.2073E+04
      9.034  0.2365E+03  0.2086E+04
      9.086  0.2236E+03  0.2097E+04
      9.138  0.2066E+03  0.2108E+04
      9.190  0.1872E+03  0.2118E+04
      9.242  0.1789E+03  0.2127E+04
      9.294  0.1971E+03  0.2137E+04
      9.345  0.2280E+03  0.2149E+04
      9.397  0.2429E+03  0.2162E+04
      9.449  0.2429E+03  0.2174E+04
      9.501  0.2449E+03  0.2187E+04
      9.553  0.2445E+03  0.2200E+04
      9.605  0.2462E+03  0.2212E+04
      9.657  0.2740E+03  0.2227E+04
      9.709  0.3171E+03  0.2243E+04
      9.761  0.3356E+03  0.2260E+04
      9.812  0.3265E+03  0.2277E+04
      9.864  0.3167E+03  0.2294E+04
      9.916  0.3153E+03  0.2310E+04
      9.968  0.3216E+03  0.2327E+04
     10.020  0.3428E+03  0.2345E+04
     10.072  0.3795E+03  0.2364E+04
     10.124  0.4126E+03  0.2386E+04
     10.176  0.4283E+03  0.2408E+04
     10.228  0.4361E+03  0.2431E+04
     10.279  0.4485E+03  0.2454E+04
     10.331  0.4665E+03  0.2478E+04
     10.383  0.4844E+03  0.2503E+04
     10.435  0.4943E+03  0.2529E+04
     10.487  0.4863E+03  0.2554E+04
     10.539  0.4497E+03  0.2577E+04
     10.591  0.3911E+03  0.2598E+04
     10.643  0.3244E+03  0.2614E+04
     10.695  0.2430E+03  0.2627E+04
     10.746  0.1433E+03  0.2635E+04
     10.798  0.5361E+02  0.2637E+04
     10.850  0.5124E+01  0.2638E+04
     10.902 -0.5529E+01  0.2637E+04
     10.954 -0.2888E+01  0.2637E+04
     11.006 -0.6749E+00  0.2637E+04
     11.058 -0.9349E-01  0.2637E+04
     11.110 -0.8643E-02  0.2637E+04
     11.162 -0.5569E-03  0.2637E+04
     11.213 -0.2414E-04  0.2637E+04
     11.265 -0.6598E-06  0.2637E+04
     11.317 -0.1085E-07  0.2637E+04
     11.369 -0.1048E-09  0.2637E+04
     11.421 -0.6506E-12  0.2637E+04
     11.473 -0.1570E-10  0.2637E+04
     11.525 -0.2290E-08  0.2637E+04
     11.577 -0.1920E-06  0.2637E+04
     11.629 -0.9196E-05  0.2637E+04
     11.680 -0.2490E-03  0.2637E+04
     11.732 -0.3731E-02  0.2637E+04
     11.784 -0.2954E-01  0.2637E+04
     11.836 -0.1074E+00  0.2637E+04
     11.888 -0.5249E-01  0.2637E+04
     11.940  0.7533E+00  0.2637E+04
     11.992  0.2183E+01  0.2637E+04
     12.044  0.2605E+01  0.2637E+04
     12.096  0.1715E+01  0.2637E+04
     12.147  0.9084E+00  0.2638E+04
     12.199  0.8118E+00  0.2638E+04
     12.251  0.1579E+01  0.2638E+04
     12.303  0.2734E+01  0.2638E+04
     12.355  0.3375E+01  0.2638E+04
     12.407  0.3171E+01  0.2638E+04
     12.459  0.2523E+01  0.2638E+04
     12.511  0.2059E+01  0.2638E+04
     12.562  0.2240E+01  0.2638E+04
     12.614  0.2809E+01  0.2639E+04
     12.666  0.3282E+01  0.2639E+04
     12.718  0.3653E+01  0.2639E+04
     12.770  0.3438E+01  0.2639E+04
     12.822  0.2796E+01  0.2639E+04
     12.874  0.2542E+01  0.2639E+04
     12.926  0.2308E+01  0.2640E+04
     12.978  0.1684E+01  0.2640E+04
     13.029  0.1208E+01  0.2640E+04
     13.081  0.9742E+00  0.2640E+04
     13.133  0.8808E+00  0.2640E+04
     13.185  0.9398E+00  0.2640E+04
     13.237  0.9845E+00  0.2640E+04
     13.289  0.9724E+00  0.2640E+04
     13.341  0.6528E+00  0.2640E+04
     13.393  0.1685E+00  0.2640E+04
     13.445 -0.3968E-01  0.2640E+04
     13.496 -0.3232E-01  0.2640E+04
     13.548 -0.7200E-02  0.2640E+04
     13.600 -0.7675E-03  0.2640E+04
     13.652 -0.4353E-04  0.2640E+04
     13.704 -0.1367E-05  0.2640E+04
     13.756 -0.2423E-07  0.2640E+04
     13.808 -0.2450E-09  0.2640E+04
     13.860 -0.1422E-11  0.2640E+04
     13.912 -0.4755E-14  0.2640E+04
     13.963  0.0000E+00  0.2640E+04
     14.015  0.0000E+00  0.2640E+04
     14.067  0.0000E+00  0.2640E+04
     14.119  0.0000E+00  0.2640E+04
     14.171  0.0000E+00  0.2640E+04
     14.223  0.0000E+00  0.2640E+04
     14.275  0.0000E+00  0.2640E+04
