 256 256   0   0
  0.1419206E+02  0.1537080E-08  0.1537218E-08  0.1537636E-08  0.5000000E-15
  1.000000000000000E-004
  CAR 
 Ir_Ru                                   
     12.68383926     -1.29485222  301      9.24208182      1.00000000
     -1.295  0.0000E+00  0.0000E+00
     -1.248  0.0000E+00  0.0000E+00
     -1.202  0.0000E+00  0.0000E+00
     -1.155  0.0000E+00  0.0000E+00
     -1.108 -0.2743E-28 -0.1278E-29
     -1.062 -0.4090E-25 -0.1907E-26
     -1.015 -0.3934E-22 -0.1835E-23
     -0.969 -0.2442E-19 -0.1140E-20
     -0.922 -0.9784E-17 -0.4570E-18
     -0.875 -0.2454E-14 -0.1148E-15
     -0.829 -0.4069E-12 -0.1907E-13
     -0.782 -0.4346E-10 -0.2044E-11
     -0.736 -0.2991E-08 -0.1414E-09
     -0.689 -0.1327E-06 -0.6325E-08
     -0.643 -0.3803E-05 -0.1835E-06
     -0.596 -0.7058E-04 -0.3472E-05
     -0.549 -0.8507E-03 -0.4311E-04
     -0.503 -0.6661E-02 -0.3535E-03
     -0.456 -0.3348E-01 -0.1913E-02
     -0.410 -0.1019E+00 -0.6660E-02
     -0.363 -0.1378E+00 -0.1308E-01
     -0.316  0.2224E+00 -0.2719E-02
     -0.270  0.1505E+01  0.6743E-01
     -0.223  0.3534E+01  0.2321E+00
     -0.177  0.5068E+01  0.4683E+00
     -0.130  0.5730E+01  0.7353E+00
     -0.083  0.7318E+01  0.1076E+01
     -0.037  0.1019E+02  0.1551E+01
      0.010  0.1102E+02  0.2065E+01
      0.056  0.9155E+01  0.2491E+01
      0.103  0.9370E+01  0.2928E+01
      0.150  0.1313E+02  0.3540E+01
      0.196  0.1590E+02  0.4281E+01
      0.243  0.1604E+02  0.5028E+01
      0.289  0.1672E+02  0.5807E+01
      0.336  0.1848E+02  0.6669E+01
      0.383  0.1833E+02  0.7523E+01
      0.429  0.1740E+02  0.8334E+01
      0.476  0.1975E+02  0.9254E+01
      0.522  0.2334E+02  0.1034E+02
      0.569  0.2405E+02  0.1146E+02
      0.616  0.2230E+02  0.1250E+02
      0.662  0.1878E+02  0.1338E+02
      0.709  0.1414E+02  0.1403E+02
      0.755  0.1117E+02  0.1456E+02
      0.802  0.1072E+02  0.1506E+02
      0.849  0.1116E+02  0.1558E+02
      0.895  0.1219E+02  0.1614E+02
      0.942  0.1468E+02  0.1683E+02
      0.988  0.1836E+02  0.1768E+02
      1.035  0.2289E+02  0.1875E+02
      1.082  0.2806E+02  0.2006E+02
      1.128  0.3123E+02  0.2151E+02
      1.175  0.2973E+02  0.2290E+02
      1.221  0.2591E+02  0.2411E+02
      1.268  0.2307E+02  0.2518E+02
      1.315  0.2096E+02  0.2616E+02
      1.361  0.2000E+02  0.2709E+02
      1.408  0.2159E+02  0.2809E+02
      1.454  0.2404E+02  0.2922E+02
      1.501  0.2564E+02  0.3041E+02
      1.547  0.2891E+02  0.3176E+02
      1.594  0.3501E+02  0.3339E+02
      1.641  0.3868E+02  0.3519E+02
      1.687  0.3782E+02  0.3695E+02
      1.734  0.3916E+02  0.3878E+02
      1.780  0.4541E+02  0.4089E+02
      1.827  0.4932E+02  0.4319E+02
      1.874  0.4784E+02  0.4542E+02
      1.920  0.4728E+02  0.4762E+02
      1.967  0.5091E+02  0.5000E+02
      2.013  0.5415E+02  0.5252E+02
      2.060  0.5543E+02  0.5510E+02
      2.107  0.6115E+02  0.5795E+02
      2.153  0.7431E+02  0.6141E+02
      2.200  0.8929E+02  0.6557E+02
      2.246  0.1031E+03  0.7038E+02
      2.293  0.1177E+03  0.7586E+02
      2.340  0.1309E+03  0.8197E+02
      2.386  0.1383E+03  0.8841E+02
      2.433  0.1432E+03  0.9508E+02
      2.479  0.1522E+03  0.1022E+03
      2.526  0.1609E+03  0.1097E+03
      2.573  0.1617E+03  0.1172E+03
      2.619  0.1612E+03  0.1247E+03
      2.666  0.1688E+03  0.1326E+03
      2.712  0.1783E+03  0.1409E+03
      2.759  0.1847E+03  0.1495E+03
      2.806  0.1976E+03  0.1587E+03
      2.852  0.2227E+03  0.1691E+03
      2.899  0.2475E+03  0.1806E+03
      2.945  0.2563E+03  0.1926E+03
      2.992  0.2498E+03  0.2042E+03
      3.039  0.2468E+03  0.2157E+03
      3.085  0.2620E+03  0.2279E+03
      3.132  0.2864E+03  0.2412E+03
      3.178  0.3012E+03  0.2553E+03
      3.225  0.3040E+03  0.2694E+03
      3.272  0.3052E+03  0.2837E+03
      3.318  0.3085E+03  0.2980E+03
      3.365  0.3111E+03  0.3125E+03
      3.411  0.3143E+03  0.3272E+03
      3.458  0.3215E+03  0.3422E+03
      3.504  0.3331E+03  0.3577E+03
      3.551  0.3439E+03  0.3737E+03
      3.598  0.3469E+03  0.3899E+03
      3.644  0.3450E+03  0.4060E+03
      3.691  0.3487E+03  0.4222E+03
      3.737  0.3576E+03  0.4389E+03
      3.784  0.3593E+03  0.4556E+03
      3.831  0.3523E+03  0.4720E+03
      3.877  0.3478E+03  0.4882E+03
      3.924  0.3496E+03  0.5045E+03
      3.970  0.3506E+03  0.5209E+03
      4.017  0.3417E+03  0.5368E+03
      4.064  0.3231E+03  0.5518E+03
      4.110  0.3068E+03  0.5661E+03
      4.157  0.2975E+03  0.5800E+03
      4.203  0.2874E+03  0.5934E+03
      4.250  0.2714E+03  0.6060E+03
      4.297  0.2539E+03  0.6179E+03
      4.343  0.2428E+03  0.6292E+03
      4.390  0.2450E+03  0.6406E+03
      4.436  0.2575E+03  0.6526E+03
      4.483  0.2618E+03  0.6648E+03
      4.530  0.2510E+03  0.6765E+03
      4.576  0.2477E+03  0.6880E+03
      4.623  0.2669E+03  0.7005E+03
      4.669  0.2918E+03  0.7141E+03
      4.716  0.3068E+03  0.7284E+03
      4.763  0.3138E+03  0.7430E+03
      4.809  0.3136E+03  0.7576E+03
      4.856  0.3050E+03  0.7718E+03
      4.902  0.2902E+03  0.7853E+03
      4.949  0.2786E+03  0.7983E+03
      4.996  0.2811E+03  0.8114E+03
      5.042  0.2950E+03  0.8251E+03
      5.089  0.3077E+03  0.8395E+03
      5.135  0.3093E+03  0.8539E+03
      5.182  0.2978E+03  0.8678E+03
      5.229  0.2857E+03  0.8811E+03
      5.275  0.2844E+03  0.8943E+03
      5.322  0.2903E+03  0.9079E+03
      5.368  0.2972E+03  0.9217E+03
      5.415  0.3018E+03  0.9358E+03
      5.462  0.2987E+03  0.9497E+03
      5.508  0.2888E+03  0.9631E+03
      5.555  0.2866E+03  0.9765E+03
      5.601  0.3024E+03  0.9906E+03
      5.648  0.3214E+03  0.1006E+04
      5.694  0.3254E+03  0.1021E+04
      5.741  0.3203E+03  0.1036E+04
      5.788  0.3198E+03  0.1051E+04
      5.834  0.3260E+03  0.1066E+04
      5.881  0.3365E+03  0.1081E+04
      5.927  0.3499E+03  0.1098E+04
      5.974  0.3652E+03  0.1115E+04
      6.021  0.3788E+03  0.1132E+04
      6.067  0.3854E+03  0.1150E+04
      6.114  0.3875E+03  0.1168E+04
      6.160  0.3916E+03  0.1187E+04
      6.207  0.3986E+03  0.1205E+04
      6.254  0.4094E+03  0.1224E+04
      6.300  0.4269E+03  0.1244E+04
      6.347  0.4462E+03  0.1265E+04
      6.393  0.4573E+03  0.1286E+04
      6.440  0.4572E+03  0.1308E+04
      6.487  0.4532E+03  0.1329E+04
      6.533  0.4500E+03  0.1350E+04
      6.580  0.4455E+03  0.1370E+04
      6.626  0.4391E+03  0.1391E+04
      6.673  0.4318E+03  0.1411E+04
      6.720  0.4249E+03  0.1431E+04
      6.766  0.4172E+03  0.1450E+04
      6.813  0.4020E+03  0.1469E+04
      6.859  0.3772E+03  0.1487E+04
      6.906  0.3546E+03  0.1503E+04
      6.953  0.3442E+03  0.1519E+04
      6.999  0.3392E+03  0.1535E+04
      7.046  0.3278E+03  0.1550E+04
      7.092  0.3149E+03  0.1565E+04
      7.139  0.3134E+03  0.1580E+04
      7.186  0.3193E+03  0.1594E+04
      7.232  0.3137E+03  0.1609E+04
      7.279  0.2881E+03  0.1622E+04
      7.325  0.2565E+03  0.1634E+04
      7.372  0.2403E+03  0.1646E+04
      7.419  0.2484E+03  0.1657E+04
      7.465  0.2708E+03  0.1670E+04
      7.512  0.2845E+03  0.1683E+04
      7.558  0.2767E+03  0.1696E+04
      7.605  0.2587E+03  0.1708E+04
      7.652  0.2483E+03  0.1720E+04
      7.698  0.2569E+03  0.1732E+04
      7.745  0.2824E+03  0.1745E+04
      7.791  0.3052E+03  0.1759E+04
      7.838  0.3120E+03  0.1773E+04
      7.884  0.3089E+03  0.1788E+04
      7.931  0.3031E+03  0.1802E+04
      7.978  0.2962E+03  0.1816E+04
      8.024  0.2912E+03  0.1829E+04
      8.071  0.2957E+03  0.1843E+04
      8.117  0.3089E+03  0.1857E+04
      8.164  0.3169E+03  0.1872E+04
      8.211  0.3176E+03  0.1887E+04
      8.257  0.3293E+03  0.1902E+04
      8.304  0.3531E+03  0.1919E+04
      8.350  0.3624E+03  0.1936E+04
      8.397  0.3405E+03  0.1952E+04
      8.444  0.3008E+03  0.1966E+04
      8.490  0.2675E+03  0.1978E+04
      8.537  0.2557E+03  0.1990E+04
      8.583  0.2704E+03  0.2003E+04
      8.630  0.2951E+03  0.2016E+04
      8.677  0.3003E+03  0.2030E+04
      8.723  0.2844E+03  0.2044E+04
      8.770  0.2677E+03  0.2056E+04
      8.816  0.2571E+03  0.2068E+04
      8.863  0.2493E+03  0.2080E+04
      8.910  0.2453E+03  0.2091E+04
      8.956  0.2453E+03  0.2103E+04
      9.003  0.2531E+03  0.2114E+04
      9.049  0.2730E+03  0.2127E+04
      9.096  0.2841E+03  0.2140E+04
      9.143  0.2666E+03  0.2153E+04
      9.189  0.2412E+03  0.2164E+04
      9.236  0.2284E+03  0.2175E+04
      9.282  0.2201E+03  0.2185E+04
      9.329  0.2138E+03  0.2195E+04
      9.376  0.2215E+03  0.2205E+04
      9.422  0.2420E+03  0.2216E+04
      9.469  0.2619E+03  0.2229E+04
      9.515  0.2734E+03  0.2241E+04
      9.562  0.2772E+03  0.2254E+04
      9.609  0.2763E+03  0.2267E+04
      9.655  0.2711E+03  0.2280E+04
      9.702  0.2613E+03  0.2292E+04
      9.748  0.2443E+03  0.2303E+04
      9.795  0.2246E+03  0.2314E+04
      9.842  0.2192E+03  0.2324E+04
      9.888  0.2359E+03  0.2335E+04
      9.935  0.2634E+03  0.2347E+04
      9.981  0.2944E+03  0.2361E+04
     10.028  0.3266E+03  0.2376E+04
     10.074  0.3489E+03  0.2392E+04
     10.121  0.3468E+03  0.2409E+04
     10.168  0.3245E+03  0.2424E+04
     10.214  0.3102E+03  0.2438E+04
     10.261  0.3282E+03  0.2453E+04
     10.307  0.3852E+03  0.2471E+04
     10.354  0.4645E+03  0.2493E+04
     10.401  0.5180E+03  0.2517E+04
     10.447  0.5102E+03  0.2541E+04
     10.494  0.4524E+03  0.2562E+04
     10.540  0.3759E+03  0.2580E+04
     10.587  0.3037E+03  0.2594E+04
     10.634  0.2492E+03  0.2605E+04
     10.680  0.2131E+03  0.2615E+04
     10.727  0.1817E+03  0.2624E+04
     10.773  0.1432E+03  0.2630E+04
     10.820  0.9840E+02  0.2635E+04
     10.867  0.5705E+02  0.2638E+04
     10.913  0.2733E+02  0.2639E+04
     10.960  0.1047E+02  0.2639E+04
     11.006  0.3255E+01  0.2640E+04
     11.053  0.1801E+01  0.2640E+04
     11.100  0.2272E+01  0.2640E+04
     11.146  0.1949E+01  0.2640E+04
     11.193  0.7785E+00  0.2640E+04
     11.239 -0.5166E-02  0.2640E+04
     11.286 -0.1339E+00  0.2640E+04
     11.333 -0.5696E-01  0.2640E+04
     11.379 -0.1212E-01  0.2640E+04
     11.426 -0.3525E-02  0.2640E+04
     11.472 -0.1302E-01  0.2640E+04
     11.519 -0.4217E-01  0.2640E+04
     11.566 -0.3640E-01  0.2640E+04
     11.612  0.1971E+00  0.2640E+04
     11.659  0.7126E+00  0.2640E+04
     11.705  0.1026E+01  0.2640E+04
     11.752  0.7259E+00  0.2640E+04
     11.799  0.2075E+00  0.2640E+04
     11.845 -0.3429E-01  0.2640E+04
     11.892 -0.4297E-01  0.2640E+04
     11.938 -0.1342E-01  0.2640E+04
     11.985 -0.2183E-02  0.2640E+04
     12.032 -0.2083E-03  0.2640E+04
     12.078 -0.1217E-04  0.2640E+04
     12.125 -0.4443E-06  0.2640E+04
     12.171 -0.1025E-07  0.2640E+04
     12.218 -0.1506E-09  0.2640E+04
     12.264 -0.1414E-11  0.2640E+04
     12.311 -0.8637E-14  0.2640E+04
     12.358  0.0000E+00  0.2640E+04
     12.404  0.0000E+00  0.2640E+04
     12.451  0.0000E+00  0.2640E+04
     12.497  0.0000E+00  0.2640E+04
     12.544  0.0000E+00  0.2640E+04
     12.591  0.0000E+00  0.2640E+04
     12.637  0.0000E+00  0.2640E+04
     12.684  0.0000E+00  0.2640E+04
