       N       E                     dE             d eps       ncg     rms          rms(c)
RMM:   1     0.136791063540E+05    0.13679E+05   -0.47218E+05 25080   0.725E+02
RMM:   2     0.131332631043E+04   -0.12366E+05   -0.13120E+05 25080   0.260E+02
RMM:   3    -0.104568630093E+04   -0.23590E+04   -0.22855E+04 25080   0.111E+02
RMM:   4    -0.184599492990E+04   -0.80031E+03   -0.57406E+03 25080   0.768E+01
RMM:   5    -0.212911821020E+04   -0.28312E+03   -0.24897E+03 25080   0.451E+01
RMM:   6    -0.227483754174E+04   -0.14572E+03   -0.12952E+03 25080   0.349E+01
RMM:   7    -0.235269753678E+04   -0.77860E+02   -0.73850E+02 25080   0.235E+01
RMM:   8    -0.240019185961E+04   -0.47494E+02   -0.44553E+02 25080   0.195E+01
RMM:   9    -0.247907587319E+04   -0.78884E+02   -0.77963E+02 71861   0.137E+01
RMM:  10    -0.248863727125E+04   -0.95614E+01   -0.11982E+02 79658   0.283E+00
RMM:  11    -0.249087745303E+04   -0.22402E+01   -0.17840E+01 77267   0.686E-01
RMM:  12    -0.249118389330E+04   -0.30644E+00   -0.19845E+00 79545   0.198E-01    0.782E+01
RMM:  13    -0.241366905982E+04    0.77515E+02   -0.68496E+02 57192   0.246E+01    0.583E+01
RMM:  14    -0.236777152236E+04    0.45898E+02   -0.34130E+02 51451   0.174E+01    0.416E+01
RMM:  15    -0.233561915859E+04    0.32152E+02   -0.11843E+02 53305   0.101E+01    0.255E+01
RMM:  16    -0.232133355556E+04    0.14286E+02   -0.25826E+01 56027   0.434E+00    0.445E+00
RMM:  17    -0.232152527005E+04   -0.19171E+00   -0.64724E+00 73825   0.129E+00    0.442E+00
RMM:  18    -0.232112723491E+04    0.39804E+00   -0.11691E+00 64524   0.699E-01    0.338E+00
RMM:  19    -0.232074905136E+04    0.37818E+00   -0.66221E-01 59581   0.762E-01    0.165E+00
RMM:  20    -0.232070211455E+04    0.46937E-01   -0.24241E-01 64033   0.347E-01    0.159E+00
RMM:  21    -0.232066000857E+04    0.42106E-01   -0.11276E-01 62759   0.237E-01    0.122E+00
RMM:  22    -0.232063412829E+04    0.25880E-01   -0.49331E-02 60966   0.163E-01    0.702E-01
RMM:  23    -0.232062884303E+04    0.52853E-02   -0.13846E-02 66863   0.703E-02    0.470E-01
RMM:  24    -0.232062560833E+04    0.32347E-02   -0.10599E-02 62466   0.764E-02    0.237E-01
RMM:  25    -0.232062662208E+04   -0.10137E-02   -0.12210E-02 66610   0.754E-02    0.258E-01
RMM:  26    -0.232062672851E+04   -0.10643E-03   -0.30761E-03 74707   0.281E-02    0.264E-01
RMM:  27    -0.232062585966E+04    0.86885E-03   -0.67384E-04 60182   0.199E-02    0.177E-01
RMM:  28    -0.232062530956E+04    0.55009E-03   -0.96701E-04 63940   0.226E-02    0.805E-02
RMM:  29    -0.232062518956E+04    0.12000E-03   -0.61220E-04 69904   0.161E-02    0.273E-02
RMM:  30    -0.232062516035E+04    0.29209E-04   -0.12046E-04 67013   0.725E-03
   1 F= -.23206252E+04 E0= -.23206251E+04  d E =-.274632E-03
