   2   2   0   0
  0.1459362E+02  0.2747247E-09  0.2747241E-09  0.4466061E-09  0.5000000E-15
  1.000000000000000E-004
  CAR 
 Ir_Ru                                   
     40.36101782     -2.81024212  301      9.99706363      1.00000000
     -2.810  0.0000E+00  0.0000E+00
     -2.666  0.0000E+00  0.0000E+00
     -2.522  0.0000E+00  0.0000E+00
     -2.379  0.0000E+00  0.0000E+00
     -2.235  0.0000E+00  0.0000E+00
     -2.091  0.0000E+00  0.0000E+00
     -1.947  0.0000E+00  0.0000E+00
     -1.803  0.0000E+00  0.0000E+00
     -1.659  0.0000E+00  0.0000E+00
     -1.515  0.0000E+00  0.0000E+00
     -1.371  0.0000E+00  0.0000E+00
     -1.227  0.0000E+00  0.0000E+00
     -1.083  0.0000E+00  0.0000E+00
     -0.939  0.0000E+00  0.0000E+00
     -0.796  0.8950E-02  0.1561E-03
     -0.652  0.4328E-01  0.4886E-02
     -0.508  0.6848E-01  0.1295E-01
     -0.364  0.7994E-01  0.2361E-01
     -0.220  0.9571E-01  0.3625E-01
     -0.076  0.1098E+00  0.5116E-01
      0.068  0.1217E+00  0.6781E-01
      0.212  0.1352E+00  0.8625E-01
      0.356  0.1500E+00  0.1068E+00
      0.500  0.1623E+00  0.1293E+00
      0.643  0.1766E+00  0.1536E+00
      0.787  0.1921E+00  0.1801E+00
      0.931  0.2088E+00  0.2090E+00
      1.075  0.2269E+00  0.2403E+00
      1.219  0.2465E+00  0.2743E+00
      1.363  0.2682E+00  0.3113E+00
      1.507  0.2963E+00  0.3519E+00
      1.651  0.3279E+00  0.3968E+00
      1.795  0.3658E+00  0.4466E+00
      1.939  0.4234E+00  0.5032E+00
      2.083  0.5088E+00  0.5695E+00
      2.226  0.7669E+00  0.6577E+00
      2.370  0.1647E+01  0.8422E+00
      2.514  0.1656E+01  0.1078E+01
      2.658  0.1681E+01  0.1315E+01
      2.802  0.1740E+01  0.1560E+01
      2.946  0.2144E+01  0.1844E+01
      3.090  0.2147E+01  0.2154E+01
      3.234  0.2214E+01  0.2466E+01
      3.378  0.2416E+01  0.2793E+01
      3.522  0.2727E+01  0.3176E+01
      3.665  0.1864E+01  0.3484E+01
      3.809  0.1993E+01  0.3775E+01
      3.953  0.1502E+01  0.4023E+01
      4.097  0.1557E+01  0.4226E+01
      4.241  0.2982E+01  0.4638E+01
      4.385  0.2434E+01  0.5030E+01
      4.529  0.1992E+01  0.5313E+01
      4.673  0.1989E+01  0.5595E+01
      4.817  0.2634E+01  0.5929E+01
      4.961  0.3159E+01  0.6360E+01
      5.104  0.3095E+01  0.6822E+01
      5.248  0.2100E+01  0.7192E+01
      5.392  0.1313E+01  0.7449E+01
      5.536  0.1015E+01  0.7605E+01
      5.680  0.2007E+01  0.7793E+01
      5.824  0.3809E+01  0.8185E+01
      5.968  0.3917E+01  0.8736E+01
      6.112  0.3195E+01  0.9212E+01
      6.256  0.3098E+01  0.9665E+01
      6.400  0.2875E+01  0.1010E+02
      6.544  0.3113E+01  0.1052E+02
      6.687  0.3186E+01  0.1098E+02
      6.831  0.3014E+01  0.1141E+02
      6.975  0.3370E+01  0.1188E+02
      7.119  0.3863E+01  0.1241E+02
      7.263  0.2867E+01  0.1287E+02
      7.407  0.2506E+01  0.1327E+02
      7.551  0.2539E+01  0.1362E+02
      7.695  0.1939E+01  0.1393E+02
      7.839  0.1777E+01  0.1420E+02
      7.983  0.1880E+01  0.1446E+02
      8.126  0.1741E+01  0.1472E+02
      8.270  0.1706E+01  0.1497E+02
      8.414  0.1687E+01  0.1521E+02
      8.558  0.1641E+01  0.1545E+02
      8.702  0.1558E+01  0.1568E+02
      8.846  0.1520E+01  0.1590E+02
      8.990  0.1536E+01  0.1612E+02
      9.134  0.1539E+01  0.1634E+02
      9.278  0.1553E+01  0.1657E+02
      9.422  0.1809E+01  0.1680E+02
      9.566  0.1764E+01  0.1705E+02
      9.709  0.1984E+01  0.1732E+02
      9.853  0.2390E+01  0.1765E+02
      9.997  0.2468E+01  0.1800E+02
     10.141  0.2734E+01  0.1837E+02
     10.285  0.3250E+01  0.1879E+02
     10.429  0.3479E+01  0.1927E+02
     10.573  0.4106E+01  0.1981E+02
     10.717  0.3515E+01  0.2036E+02
     10.861  0.2622E+01  0.2082E+02
     11.005  0.1531E+01  0.2114E+02
     11.148  0.6492E+00  0.2126E+02
     11.292  0.6012E+00  0.2135E+02
     11.436  0.5822E+00  0.2144E+02
     11.580  0.5769E+00  0.2152E+02
     11.724  0.5759E+00  0.2160E+02
     11.868  0.5751E+00  0.2168E+02
     12.012  0.5732E+00  0.2177E+02
     12.156  0.5718E+00  0.2185E+02
     12.300  0.5698E+00  0.2193E+02
     12.444  0.5687E+00  0.2201E+02
     12.588  0.5613E+00  0.2210E+02
     12.731  0.5450E+00  0.2217E+02
     12.875  0.5436E+00  0.2225E+02
     13.019  0.5199E+00  0.2233E+02
     13.163  0.5106E+00  0.2240E+02
     13.307  0.5000E+00  0.2248E+02
     13.451  0.4905E+00  0.2255E+02
     13.595  0.4882E+00  0.2262E+02
     13.739  0.4948E+00  0.2269E+02
     13.883  0.4757E+00  0.2276E+02
     14.027  0.4716E+00  0.2283E+02
     14.170  0.4697E+00  0.2290E+02
     14.314  0.5160E+00  0.2296E+02
     14.458  0.4860E+00  0.2303E+02
     14.602  0.5570E+00  0.2311E+02
     14.746  0.6151E+00  0.2319E+02
     14.890  0.5523E+00  0.2328E+02
     15.034  0.5208E+00  0.2336E+02
     15.178  0.4897E+00  0.2343E+02
     15.322  0.4534E+00  0.2350E+02
     15.466  0.4225E+00  0.2356E+02
     15.609  0.4034E+00  0.2362E+02
     15.753  0.3872E+00  0.2367E+02
     15.897  0.3682E+00  0.2373E+02
     16.041  0.3452E+00  0.2378E+02
     16.185  0.3057E+00  0.2383E+02
     16.329  0.2941E+00  0.2387E+02
     16.473  0.2789E+00  0.2391E+02
     16.617  0.2949E+00  0.2395E+02
     16.761  0.3102E+00  0.2399E+02
     16.905  0.3152E+00  0.2404E+02
     17.049  0.2617E+00  0.2408E+02
     17.192  0.2261E+00  0.2412E+02
     17.336  0.5208E+00  0.2416E+02
     17.480  0.9574E+00  0.2427E+02
     17.624  0.1247E+01  0.2444E+02
     17.768  0.1353E+01  0.2463E+02
     17.912  0.1126E+01  0.2481E+02
     18.056  0.9503E+00  0.2496E+02
     18.200  0.7686E+00  0.2508E+02
     18.344  0.7151E+00  0.2519E+02
     18.488  0.6094E+00  0.2528E+02
     18.631  0.6309E+00  0.2537E+02
     18.775  0.6606E+00  0.2546E+02
     18.919  0.6741E+00  0.2556E+02
     19.063  0.7028E+00  0.2566E+02
     19.207  0.7941E+00  0.2577E+02
     19.351  0.7677E+00  0.2588E+02
     19.495  0.7394E+00  0.2599E+02
     19.639  0.7306E+00  0.2609E+02
     19.783  0.7568E+00  0.2620E+02
     19.927  0.6870E+00  0.2630E+02
     20.071  0.6012E+00  0.2640E+02
     20.214  0.5724E+00  0.2648E+02
     20.358  0.5896E+00  0.2656E+02
     20.502  0.6605E+00  0.2665E+02
     20.646  0.7495E+00  0.2675E+02
     20.790  0.7739E+00  0.2686E+02
     20.934  0.7344E+00  0.2697E+02
     21.078  0.7227E+00  0.2708E+02
     21.222  0.7196E+00  0.2718E+02
     21.366  0.7168E+00  0.2729E+02
     21.510  0.7132E+00  0.2739E+02
     21.653  0.7134E+00  0.2749E+02
     21.797  0.7064E+00  0.2759E+02
     21.941  0.6996E+00  0.2769E+02
     22.085  0.6974E+00  0.2780E+02
     22.229  0.6882E+00  0.2789E+02
     22.373  0.6783E+00  0.2799E+02
     22.517  0.6762E+00  0.2809E+02
     22.661  0.6794E+00  0.2819E+02
     22.805  0.6699E+00  0.2829E+02
     22.949  0.6908E+00  0.2838E+02
     23.093  0.7087E+00  0.2848E+02
     23.236  0.7366E+00  0.2859E+02
     23.380  0.7632E+00  0.2870E+02
     23.524  0.7938E+00  0.2881E+02
     23.668  0.9424E+00  0.2893E+02
     23.812  0.1050E+01  0.2907E+02
     23.956  0.1122E+01  0.2923E+02
     24.100  0.1222E+01  0.2940E+02
     24.244  0.1273E+01  0.2958E+02
     24.388  0.1303E+01  0.2976E+02
     24.532  0.1348E+01  0.2995E+02
     24.675  0.1496E+01  0.3016E+02
     24.819  0.1657E+01  0.3039E+02
     24.963  0.1771E+01  0.3064E+02
     25.107  0.1534E+01  0.3087E+02
     25.251  0.1388E+01  0.3109E+02
     25.395  0.1330E+01  0.3128E+02
     25.539  0.1259E+01  0.3147E+02
     25.683  0.1343E+01  0.3165E+02
     25.827  0.1334E+01  0.3185E+02
     25.971  0.1371E+01  0.3204E+02
     26.115  0.1482E+01  0.3224E+02
     26.258  0.1558E+01  0.3247E+02
     26.402  0.1416E+01  0.3268E+02
     26.546  0.1342E+01  0.3288E+02
     26.690  0.1388E+01  0.3308E+02
     26.834  0.1340E+01  0.3327E+02
     26.978  0.1324E+01  0.3346E+02
     27.122  0.1398E+01  0.3366E+02
     27.266  0.1469E+01  0.3387E+02
     27.410  0.1410E+01  0.3407E+02
     27.554  0.1489E+01  0.3428E+02
     27.697  0.1414E+01  0.3450E+02
     27.841  0.1227E+01  0.3468E+02
     27.985  0.1225E+01  0.3486E+02
     28.129  0.1227E+01  0.3504E+02
     28.273  0.1063E+01  0.3520E+02
     28.417  0.9503E+00  0.3535E+02
     28.561  0.8733E+00  0.3548E+02
     28.705  0.8329E+00  0.3560E+02
     28.849  0.8450E+00  0.3572E+02
     28.993  0.9248E+00  0.3585E+02
     29.136  0.9539E+00  0.3598E+02
     29.280  0.1027E+01  0.3612E+02
     29.424  0.1088E+01  0.3628E+02
     29.568  0.9035E+00  0.3642E+02
     29.712  0.8145E+00  0.3654E+02
     29.856  0.7693E+00  0.3666E+02
     30.000  0.7714E+00  0.3677E+02
     30.144  0.8931E+00  0.3689E+02
     30.288  0.8757E+00  0.3701E+02
     30.432  0.9560E+00  0.3714E+02
     30.576  0.1022E+01  0.3729E+02
     30.719  0.1143E+01  0.3744E+02
     30.863  0.1176E+01  0.3761E+02
     31.007  0.1066E+01  0.3778E+02
     31.151  0.9211E+00  0.3792E+02
     31.295  0.8074E+00  0.3804E+02
     31.439  0.8140E+00  0.3816E+02
     31.583  0.8548E+00  0.3828E+02
     31.727  0.8579E+00  0.3840E+02
     31.871  0.8935E+00  0.3853E+02
     32.015  0.8774E+00  0.3865E+02
     32.158  0.8535E+00  0.3878E+02
     32.302  0.8066E+00  0.3890E+02
     32.446  0.7814E+00  0.3901E+02
     32.590  0.6790E+00  0.3912E+02
     32.734  0.6042E+00  0.3921E+02
     32.878  0.5685E+00  0.3929E+02
     33.022  0.5632E+00  0.3937E+02
     33.166  0.5423E+00  0.3945E+02
     33.310  0.4863E+00  0.3953E+02
     33.454  0.4141E+00  0.3959E+02
     33.598  0.3615E+00  0.3965E+02
     33.741  0.3217E+00  0.3970E+02
     33.885  0.2746E+00  0.3974E+02
     34.029  0.2354E+00  0.3978E+02
     34.173  0.2129E+00  0.3981E+02
     34.317  0.1963E+00  0.3984E+02
     34.461  0.1859E+00  0.3987E+02
     34.605  0.1716E+00  0.3989E+02
     34.749  0.1672E+00  0.3992E+02
     34.893  0.1702E+00  0.3994E+02
     35.037  0.1288E+00  0.3997E+02
     35.180  0.7294E-01  0.3998E+02
     35.324  0.4759E-01  0.3999E+02
     35.468  0.2500E-01  0.3999E+02
     35.612  0.1113E-01  0.4000E+02
     35.756  0.6795E-02  0.4000E+02
     35.900  0.4518E-02  0.4000E+02
     36.044  0.3307E-02  0.4000E+02
     36.188  0.2422E-02  0.4000E+02
     36.332  0.1751E-02  0.4000E+02
     36.476  0.1260E-02  0.4000E+02
     36.620  0.9385E-03  0.4000E+02
     36.763  0.6960E-03  0.4000E+02
     36.907  0.5053E-03  0.4000E+02
     37.051  0.3548E-03  0.4000E+02
     37.195  0.2428E-03  0.4000E+02
     37.339  0.1639E-03  0.4000E+02
     37.483  0.1048E-03  0.4000E+02
     37.627  0.6237E-04  0.4000E+02
     37.771  0.3441E-04  0.4000E+02
     37.915  0.1613E-04  0.4000E+02
     38.059  0.6751E-05  0.4000E+02
     38.202  0.2158E-05  0.4000E+02
     38.346  0.1535E-06  0.4000E+02
     38.490  0.0000E+00  0.4000E+02
     38.634  0.0000E+00  0.4000E+02
     38.778  0.0000E+00  0.4000E+02
     38.922  0.0000E+00  0.4000E+02
     39.066  0.0000E+00  0.4000E+02
     39.210  0.0000E+00  0.4000E+02
     39.354  0.0000E+00  0.4000E+02
     39.498  0.0000E+00  0.4000E+02
     39.641  0.0000E+00  0.4000E+02
     39.785  0.0000E+00  0.4000E+02
     39.929  0.0000E+00  0.4000E+02
     40.073  0.0000E+00  0.4000E+02
     40.217  0.0000E+00  0.4000E+02
     40.361  0.0000E+00  0.4000E+02
