       N       E                     dE             d eps       ncg     rms          rms(c)
RMM:   1     0.687953194054E+02    0.68795E+02   -0.28765E+03 43340   0.335E+02
RMM:   2    -0.418909239902E+01   -0.72984E+02   -0.62209E+02 43340   0.123E+02
RMM:   3    -0.166761829429E+02   -0.12487E+02   -0.56504E+01 43340   0.469E+01
RMM:   4    -0.184189474543E+02   -0.17428E+01   -0.80243E+00 43340   0.188E+01
RMM:   5    -0.185923047397E+02   -0.17336E+00   -0.15551E+00 43340   0.833E+00
RMM:   6    -0.186338760789E+02   -0.41571E-01   -0.39212E-01 43340   0.417E+00
RMM:   7    -0.186452237572E+02   -0.11348E-01   -0.11034E-01 43340   0.226E+00
RMM:   8    -0.186485866465E+02   -0.33629E-02   -0.32639E-02 43340   0.120E+00
RMM:   9    -0.186498751219E+02   -0.12885E-02   -0.12642E-02 96026   0.671E-01
RMM:  10    -0.186500231433E+02   -0.14802E-03   -0.14754E-03107912   0.167E-01
RMM:  11    -0.186500294568E+02   -0.63135E-05   -0.63298E-05100259   0.564E-02
RMM:  12    -0.186500301518E+02   -0.69494E-06   -0.67670E-06 94967   0.953E-03    0.620E+00
RMM:  13    -0.177426676460E+02    0.90736E+00   -0.80892E-01 90900   0.681E+00    0.231E+00
RMM:  14    -0.175772973226E+02    0.16537E+00   -0.25972E-01 96232   0.356E+00    0.279E-01
RMM:  15    -0.175653434979E+02    0.11954E-01   -0.78126E-03 95016   0.680E-01    0.581E-02
RMM:  16    -0.175653330355E+02    0.10462E-04   -0.58072E-04100836   0.122E-01
   1 F= -.17565333E+02 E0= -.17565333E+02  d E =0.000000E+00
