       N       E                     dE             d eps       ncg     rms          rms(c)
RMM:   1     0.702859785109E+02    0.70286E+02   -0.28442E+03 43340   0.328E+02
RMM:   2    -0.240088543223E+01   -0.72687E+02   -0.62309E+02 43340   0.120E+02
RMM:   3    -0.162334307819E+02   -0.13833E+02   -0.60286E+01 43340   0.471E+01
RMM:   4    -0.182222285706E+02   -0.19888E+01   -0.85693E+00 43340   0.195E+01
RMM:   5    -0.184083889312E+02   -0.18616E+00   -0.16062E+00 43340   0.838E+00
RMM:   6    -0.184502326000E+02   -0.41844E-01   -0.39359E-01 43340   0.423E+00
RMM:   7    -0.184615016752E+02   -0.11269E-01   -0.11003E-01 43340   0.226E+00
RMM:   8    -0.184648371333E+02   -0.33355E-02   -0.32550E-02 43340   0.122E+00
RMM:   9    -0.184661253825E+02   -0.12882E-02   -0.12693E-02 86850   0.678E-01
RMM:  10    -0.184662737166E+02   -0.14833E-03   -0.14814E-03 90074   0.170E-01
RMM:  11    -0.184662801516E+02   -0.64349E-05   -0.64134E-05 82770   0.577E-02
RMM:  12    -0.184662808606E+02   -0.70903E-06   -0.70060E-06 77583   0.983E-03    0.624E+00
RMM:  13    -0.174426904279E+02    0.10236E+01   -0.10796E+00 86680   0.778E+00    0.206E+00
RMM:  14    -0.173087922858E+02    0.13390E+00   -0.24766E-01 86680   0.340E+00    0.335E-01
RMM:  15    -0.172987621580E+02    0.10030E-01   -0.81831E-03 86680   0.712E-01    0.907E-02
RMM:  16    -0.172985791237E+02    0.18303E-03   -0.87264E-04 86680   0.182E-01    0.192E-02
RMM:  17    -0.172985778504E+02    0.12732E-05   -0.53731E-05 86755   0.364E-02
   1 F= -.17298578E+02 E0= -.17298658E+02  d E =-.172986E+02
       N       E                     dE             d eps       ncg     rms          rms(c)
RMM:   1    -0.276789459020E+02   -0.10380E+02   -0.32679E+02 86680   0.140E+02    0.213E+01
RMM:   2    -0.148612277385E+02    0.12818E+02   -0.13090E+00 86680   0.862E+00    0.907E+00
RMM:   3    -0.118272033144E+02    0.30340E+01   -0.42046E+00 86680   0.185E+01    0.146E+00
RMM:   4    -0.118806101757E+02   -0.53407E-01   -0.95163E-02 86680   0.209E+00    0.645E-01
RMM:   5    -0.119057793582E+02   -0.25169E-01   -0.28035E-02 86680   0.114E+00    0.810E-02
RMM:   6    -0.119067170546E+02   -0.93770E-03   -0.29597E-03 91357   0.250E-01    0.410E-02
RMM:   7    -0.119067613392E+02   -0.44285E-04   -0.15033E-04 89042   0.829E-02
   2 F= -.11906761E+02 E0= -.11906906E+02  d E =0.539182E+01
       N       E                     dE             d eps       ncg     rms          rms(c)
RMM:   1    -0.284347882805E+02   -0.16528E+02   -0.33578E+02 86680   0.169E+02    0.174E+01
RMM:   2    -0.188711801462E+02    0.95636E+01   -0.13429E+01 86680   0.351E+01    0.505E+00
RMM:   3    -0.176264978163E+02    0.12447E+01   -0.15226E+00 86680   0.995E+00    0.790E-01
RMM:   4    -0.175915877590E+02    0.34910E-01   -0.37774E-02 86680   0.109E+00    0.314E-01
RMM:   5    -0.175893316958E+02    0.22561E-02   -0.14186E-02 86680   0.834E-01    0.305E-02
RMM:   6    -0.175900437248E+02   -0.71203E-03   -0.11648E-03 86740   0.137E-01    0.309E-02
RMM:   7    -0.175900823936E+02   -0.38669E-04   -0.12391E-04 86680   0.652E-02
   3 F= -.17590082E+02 E0= -.17590208E+02  d E =-.291505E+00
       N       E                     dE             d eps       ncg     rms          rms(c)
RMM:   1    -0.175998150067E+02   -0.97713E-02   -0.12764E-01 86680   0.309E+00    0.401E-01
RMM:   2    -0.175947805157E+02    0.50345E-02   -0.35549E-03 86680   0.524E-01    0.108E-01
RMM:   3    -0.175943119435E+02    0.46857E-03   -0.70947E-04 86680   0.198E-01    0.203E-02
RMM:   4    -0.175943254139E+02   -0.13470E-04   -0.26863E-05 86680   0.290E-02    0.488E-03
RMM:   5    -0.175943255399E+02   -0.12602E-06   -0.26997E-06 76851   0.130E-02
   4 F= -.17594326E+02 E0= -.17594451E+02  d E =-.295748E+00
       N       E                     dE             d eps       ncg     rms          rms(c)
RMM:   1    -0.175981739399E+02   -0.38485E-02   -0.69235E-02 86680   0.228E+00    0.294E-01
RMM:   2    -0.175954821625E+02    0.26918E-02   -0.18885E-03 86680   0.384E-01    0.795E-02
RMM:   3    -0.175952298964E+02    0.25227E-03   -0.38448E-04 86680   0.147E-01    0.147E-02
RMM:   4    -0.175952383114E+02   -0.84151E-05   -0.15451E-05 86679   0.212E-02    0.365E-03
RMM:   5    -0.175952383569E+02   -0.45456E-07   -0.15348E-06 63374   0.100E-02
   5 F= -.17595238E+02 E0= -.17595364E+02  d E =-.296661E+00
       N       E                     dE             d eps       ncg     rms          rms(c)
RMM:   1    -0.175997802433E+02   -0.45419E-02   -0.28873E-01 86680   0.309E+00    0.295E-01
RMM:   2    -0.175970524181E+02    0.27278E-02   -0.37185E-03 86680   0.465E-01    0.141E-01
RMM:   3    -0.175961837928E+02    0.86863E-03   -0.10601E-03 86680   0.176E-01    0.243E-02
RMM:   4    -0.175961715448E+02    0.12248E-04   -0.24737E-05 86694   0.358E-02    0.850E-03
RMM:   5    -0.175961699010E+02    0.16439E-05   -0.28902E-06 79668   0.112E-02
   6 F= -.17596170E+02 E0= -.17596202E+02  d E =-.931544E-03
       N       E                     dE             d eps       ncg     rms          rms(c)
RMM:   1    -0.175964651399E+02   -0.29360E-03   -0.15925E-02 86680   0.725E-01    0.694E-02
RMM:   2    -0.175963142733E+02    0.15087E-03   -0.20253E-04 86680   0.109E-01    0.332E-02
RMM:   3    -0.175962662811E+02    0.47992E-04   -0.57921E-05 86680   0.412E-02    0.567E-03
RMM:   4    -0.175962655644E+02    0.71664E-06   -0.11126E-06 57888   0.846E-03    0.186E-03
RMM:   5    -0.175962654941E+02    0.70330E-07   -0.25054E-07 48780   0.321E-03
   7 F= -.17596265E+02 E0= -.17596322E+02  d E =-.102714E-02
       N       E                     dE             d eps       ncg     rms          rms(c)
RMM:   1    -0.175965370190E+02   -0.27145E-03   -0.41834E-02 86680   0.106E+00    0.682E-02
RMM:   2    -0.175965054726E+02    0.31546E-04   -0.11427E-03 86767   0.222E-01    0.357E-02
RMM:   3    -0.175964671556E+02    0.38317E-04   -0.15491E-04 86767   0.700E-02    0.102E-02
RMM:   4    -0.175964660857E+02    0.10699E-05   -0.10175E-05 88051   0.159E-02    0.687E-03
RMM:   5    -0.175964649427E+02    0.11430E-05   -0.51644E-06 86665   0.148E-02
   8 F= -.17596465E+02 E0= -.17596522E+02  d E =-.199449E-03
       N       E                     dE             d eps       ncg     rms          rms(c)
RMM:   1    -0.175964912896E+02   -0.25204E-04   -0.67262E-03 86680   0.423E-01    0.275E-02
RMM:   2    -0.175964854815E+02    0.58081E-05   -0.18343E-04 86751   0.893E-02    0.143E-02
RMM:   3    -0.175964791244E+02    0.63571E-05   -0.25242E-05 86790   0.282E-02    0.416E-03
RMM:   4    -0.175964789117E+02    0.21274E-06   -0.13933E-06 58793   0.643E-03    0.262E-03
RMM:   5    -0.175964786807E+02    0.23098E-06   -0.43754E-07 48098   0.474E-03
   9 F= -.17596479E+02 E0= -.17596537E+02  d E =-.213187E-03
       N       E                     dE             d eps       ncg     rms          rms(c)
RMM:   1    -0.175969130367E+02   -0.43412E-03   -0.39611E-02 86680   0.127E+00    0.129E-01
RMM:   2    -0.175965306076E+02    0.38243E-03   -0.17820E-03 86680   0.206E-01    0.487E-02
RMM:   3    -0.175964694340E+02    0.61174E-04   -0.34692E-04 86680   0.152E-01    0.156E-02
RMM:   4    -0.175964682968E+02    0.11371E-05   -0.22974E-05 86680   0.341E-02    0.678E-03
RMM:   5    -0.175964683501E+02   -0.53246E-07   -0.28178E-06 80056   0.969E-03
  10 F= -.17596468E+02 E0= -.17596532E+02  d E =0.103306E-04
       N       E                     dE             d eps       ncg     rms          rms(c)
RMM:   1    -0.175966629718E+02   -0.19467E-03   -0.11300E-02 86680   0.681E-01    0.683E-02
RMM:   2    -0.175965531925E+02    0.10978E-03   -0.50604E-04 86685   0.110E-01    0.259E-02
RMM:   3    -0.175965334850E+02    0.19707E-04   -0.99659E-05 86680   0.813E-02    0.831E-03
RMM:   4    -0.175965326083E+02    0.87666E-06   -0.65955E-06 86588   0.182E-02    0.356E-03
RMM:   5    -0.175965318149E+02    0.79341E-06   -0.73296E-07 55427   0.530E-03
  11 F= -.17596532E+02 E0= -.17596592E+02  d E =-.531342E-04
       N       E                     dE             d eps       ncg     rms          rms(c)
RMM:   1    -0.175965433443E+02   -0.10736E-04   -0.48756E-03 86680   0.321E-01    0.127E-02
RMM:   2    -0.175965510193E+02   -0.76750E-05   -0.11605E-04 86881   0.720E-02    0.671E-03
RMM:   3    -0.175965502801E+02    0.73927E-06   -0.12125E-05 86515   0.173E-02    0.328E-03
RMM:   4    -0.175965499023E+02    0.37773E-06   -0.77386E-07 50679   0.687E-03    0.111E-03
RMM:   5    -0.175965498798E+02    0.22553E-07   -0.19056E-07 46628   0.295E-03
  12 F= -.17596550E+02 E0= -.17596610E+02  d E =-.180649E-04
       N       E                     dE             d eps       ncg     rms          rms(c)
RMM:   1    -0.175965510355E+02   -0.11332E-05   -0.91028E-04 86680   0.139E-01    0.542E-03
RMM:   2    -0.175965524658E+02   -0.14303E-05   -0.21758E-05 86468   0.313E-02    0.293E-03
RMM:   3    -0.175965523040E+02    0.16184E-06   -0.20832E-06 60877   0.752E-03    0.136E-03
RMM:   4    -0.175965522473E+02    0.56735E-07   -0.19278E-07 46520   0.328E-03    0.553E-04
RMM:   5    -0.175965522404E+02    0.68696E-08   -0.48968E-08 45444   0.161E-03
  13 F= -.17596552E+02 E0= -.17596613E+02  d E =-.204255E-04
       N       E                     dE             d eps       ncg     rms          rms(c)
RMM:   1    -0.175965616309E+02   -0.93837E-05   -0.46192E-04 86680   0.128E-01    0.118E-02
RMM:   2    -0.175965573400E+02    0.42909E-05   -0.37285E-06 83304   0.163E-02    0.570E-03
RMM:   3    -0.175965559626E+02    0.13775E-05   -0.12749E-06 58501   0.677E-03    0.109E-03
RMM:   4    -0.175965559366E+02    0.25951E-07   -0.14063E-07 46257   0.332E-03    0.449E-04
RMM:   5    -0.175965559303E+02    0.63467E-08   -0.16679E-08 28647   0.106E-03
  14 F= -.17596556E+02 E0= -.17596614E+02  d E =-.368986E-05
       N       E                     dE             d eps       ncg     rms          rms(c)
RMM:   1    -0.175965568999E+02   -0.96329E-06   -0.58890E-05 86545   0.457E-02    0.421E-03
RMM:   2    -0.175965563338E+02    0.56610E-06   -0.44873E-07 49456   0.588E-03    0.205E-03
RMM:   3    -0.175965561506E+02    0.18314E-06   -0.22790E-07 46252   0.302E-03    0.377E-04
RMM:   4    -0.175965561450E+02    0.56698E-08   -0.26738E-08 44608   0.138E-03    0.179E-04
RMM:   5    -0.175965561443E+02    0.67985E-09   -0.10890E-11  9543   0.544E-04
  15 F= -.17596556E+02 E0= -.17596614E+02  d E =-.390391E-05
