<?xml version="1.0" encoding="ISO-8859-1"?>
<modeling>
 <generator>
  <i name="program" type="string">vasp </i>
  <i name="version" type="string">5.4.1  </i>
  <i name="subversion" type="string">24Jun15 (build Feb 03 2017 16:24:58) complex                          parallel </i>
  <i name="platform" type="string">IFC91_ompi </i>
  <i name="date" type="string">2018 06 22 </i>
  <i name="time" type="string">17:20:13 </i>
 </generator>
 <incar>
  <i type="string" name="SYSTEM"> Ir_Ru</i>
  <i type="int" name="ISTART">     0</i>
  <i type="string" name="PREC">accurate</i>
  <i type="string" name="ALGO"> Very_Fast</i>
  <i type="int" name="ICHARG">     2</i>
  <i type="int" name="NELMIN">     5</i>
  <i type="int" name="IBRION">    -1</i>
  <i name="EDIFFG">      0.00001000</i>
  <i type="int" name="ISIF">     2</i>
  <i type="int" name="ISMEAR">    -5</i>
  <i name="SIGMA">      0.10000000</i>
  <v type="int" name="KPOINT_BSE">    -1     0     0     0</v>
 </incar>
 <kpoints>
  <generation param="Gamma">
   <v type="int" name="divisions">      19       19       12 </v>
   <v name="usershift">      0.00000000       0.00000000       0.00000000 </v>
   <v name="genvec1">      0.05263158       0.00000000       0.00000000 </v>
   <v name="genvec2">      0.00000000       0.05263158       0.00000000 </v>
   <v name="genvec3">      0.00000000       0.00000000       0.08333333 </v>
   <v name="shift">      0.00000000       0.00000000       0.00000000 </v>
  </generation>
  <varray name="kpointlist" >
   <v>       0.00000000       0.00000000       0.00000000 </v>
   <v>       0.05263158      -0.00000000       0.00000000 </v>
   <v>       0.10526316       0.00000000       0.00000000 </v>
   <v>       0.15789474       0.00000000       0.00000000 </v>
   <v>       0.21052632       0.00000000       0.00000000 </v>
   <v>       0.26315789      -0.00000000       0.00000000 </v>
   <v>       0.31578947       0.00000000       0.00000000 </v>
   <v>       0.36842105      -0.00000000       0.00000000 </v>
   <v>       0.42105263       0.00000000       0.00000000 </v>
   <v>       0.47368421      -0.00000000       0.00000000 </v>
   <v>      -0.00000000       0.05263158       0.00000000 </v>
   <v>       0.05263158       0.05263158      -0.00000000 </v>
   <v>       0.10526316       0.05263158       0.00000000 </v>
   <v>       0.15789474       0.05263158       0.00000000 </v>
   <v>       0.21052632       0.05263158       0.00000000 </v>
   <v>       0.26315789       0.05263158       0.00000000 </v>
   <v>       0.31578947       0.05263158       0.00000000 </v>
   <v>       0.36842105       0.05263158       0.00000000 </v>
   <v>       0.42105263       0.05263158       0.00000000 </v>
   <v>       0.47368421       0.05263158       0.00000000 </v>
   <v>      -0.47368421       0.05263158      -0.00000000 </v>
   <v>      -0.42105263       0.05263158       0.00000000 </v>
   <v>      -0.36842105       0.05263158       0.00000000 </v>
   <v>      -0.31578947       0.05263158      -0.00000000 </v>
   <v>      -0.26315789       0.05263158       0.00000000 </v>
   <v>      -0.21052632       0.05263158      -0.00000000 </v>
   <v>      -0.15789474       0.05263158       0.00000000 </v>
   <v>      -0.10526316       0.05263158       0.00000000 </v>
   <v>      -0.05263158       0.05263158      -0.00000000 </v>
   <v>       0.00000000       0.10526316       0.00000000 </v>
   <v>       0.05263158       0.10526316      -0.00000000 </v>
   <v>       0.10526316       0.10526316      -0.00000000 </v>
   <v>       0.15789474       0.10526316       0.00000000 </v>
   <v>       0.21052632       0.10526316      -0.00000000 </v>
   <v>       0.26315789       0.10526316       0.00000000 </v>
   <v>       0.31578947       0.10526316       0.00000000 </v>
   <v>       0.36842105       0.10526316       0.00000000 </v>
   <v>       0.42105263       0.10526316       0.00000000 </v>
   <v>       0.47368421       0.10526316       0.00000000 </v>
   <v>      -0.47368421       0.10526316      -0.00000000 </v>
   <v>      -0.42105263       0.10526316      -0.00000000 </v>
   <v>      -0.36842105       0.10526316      -0.00000000 </v>
   <v>      -0.31578947       0.10526316       0.00000000 </v>
   <v>      -0.26315789       0.10526316       0.00000000 </v>
   <v>      -0.21052632       0.10526316      -0.00000000 </v>
   <v>      -0.15789474       0.10526316      -0.00000000 </v>
   <v>      -0.10526316       0.10526316      -0.00000000 </v>
   <v>      -0.05263158       0.10526316       0.00000000 </v>
   <v>      -0.00000000       0.15789474       0.00000000 </v>
   <v>       0.05263158       0.15789474      -0.00000000 </v>
   <v>       0.10526316       0.15789474       0.00000000 </v>
   <v>       0.15789474       0.15789474       0.00000000 </v>
   <v>       0.21052632       0.15789474       0.00000000 </v>
   <v>       0.26315789       0.15789474      -0.00000000 </v>
   <v>       0.31578947       0.15789474       0.00000000 </v>
   <v>       0.36842105       0.15789474       0.00000000 </v>
   <v>       0.42105263       0.15789474       0.00000000 </v>
   <v>       0.47368421       0.15789474       0.00000000 </v>
   <v>      -0.47368421       0.15789474      -0.00000000 </v>
   <v>      -0.42105263       0.15789474      -0.00000000 </v>
   <v>      -0.36842105       0.15789474       0.00000000 </v>
   <v>      -0.31578947       0.15789474      -0.00000000 </v>
   <v>      -0.26315789       0.15789474      -0.00000000 </v>
   <v>      -0.21052632       0.15789474      -0.00000000 </v>
   <v>      -0.15789474       0.15789474       0.00000000 </v>
   <v>      -0.10526316       0.15789474       0.00000000 </v>
   <v>      -0.05263158       0.15789474       0.00000000 </v>
   <v>      -0.00000000       0.21052632       0.00000000 </v>
   <v>       0.05263158       0.21052632      -0.00000000 </v>
   <v>       0.10526316       0.21052632       0.00000000 </v>
   <v>       0.15789474       0.21052632       0.00000000 </v>
   <v>       0.21052632       0.21052632       0.00000000 </v>
   <v>       0.26315789       0.21052632       0.00000000 </v>
   <v>       0.31578947       0.21052632       0.00000000 </v>
   <v>       0.36842105       0.21052632       0.00000000 </v>
   <v>       0.42105263       0.21052632       0.00000000 </v>
   <v>       0.47368421       0.21052632       0.00000000 </v>
   <v>      -0.47368421       0.21052632      -0.00000000 </v>
   <v>      -0.42105263       0.21052632       0.00000000 </v>
   <v>      -0.36842105       0.21052632      -0.00000000 </v>
   <v>      -0.31578947       0.21052632       0.00000000 </v>
   <v>      -0.26315789       0.21052632       0.00000000 </v>
   <v>      -0.21052632       0.21052632      -0.00000000 </v>
   <v>      -0.15789474       0.21052632      -0.00000000 </v>
   <v>      -0.10526316       0.21052632       0.00000000 </v>
   <v>      -0.05263158       0.21052632       0.00000000 </v>
   <v>      -0.00000000       0.26315789       0.00000000 </v>
   <v>       0.05263158       0.26315789       0.00000000 </v>
   <v>       0.10526316       0.26315789       0.00000000 </v>
   <v>       0.15789474       0.26315789       0.00000000 </v>
   <v>       0.21052632       0.26315789       0.00000000 </v>
   <v>       0.26315789       0.26315789       0.00000000 </v>
   <v>       0.31578947       0.26315789       0.00000000 </v>
   <v>       0.36842105       0.26315789       0.00000000 </v>
   <v>       0.42105263       0.26315789       0.00000000 </v>
   <v>       0.47368421       0.26315789       0.00000000 </v>
   <v>      -0.47368421       0.26315789      -0.00000000 </v>
   <v>      -0.42105263       0.26315789       0.00000000 </v>
   <v>      -0.36842105       0.26315789       0.00000000 </v>
   <v>      -0.31578947       0.26315789      -0.00000000 </v>
   <v>      -0.26315789       0.26315789       0.00000000 </v>
   <v>      -0.21052632       0.26315789       0.00000000 </v>
   <v>      -0.15789474       0.26315789       0.00000000 </v>
   <v>      -0.10526316       0.26315789       0.00000000 </v>
   <v>      -0.05263158       0.26315789       0.00000000 </v>
   <v>      -0.00000000       0.31578947       0.00000000 </v>
   <v>       0.05263158       0.31578947       0.00000000 </v>
   <v>       0.10526316       0.31578947       0.00000000 </v>
   <v>       0.15789474       0.31578947       0.00000000 </v>
   <v>       0.21052632       0.31578947       0.00000000 </v>
   <v>       0.26315789       0.31578947      -0.00000000 </v>
   <v>       0.31578947       0.31578947       0.00000000 </v>
   <v>       0.36842105       0.31578947       0.00000000 </v>
   <v>       0.42105263       0.31578947      -0.00000000 </v>
   <v>       0.47368421       0.31578947       0.00000000 </v>
   <v>      -0.47368421       0.31578947       0.00000000 </v>
   <v>      -0.42105263       0.31578947      -0.00000000 </v>
   <v>      -0.36842105       0.31578947       0.00000000 </v>
   <v>      -0.31578947       0.31578947       0.00000000 </v>
   <v>      -0.26315789       0.31578947      -0.00000000 </v>
   <v>      -0.21052632       0.31578947       0.00000000 </v>
   <v>      -0.15789474       0.31578947      -0.00000000 </v>
   <v>      -0.10526316       0.31578947      -0.00000000 </v>
   <v>      -0.05263158       0.31578947      -0.00000000 </v>
   <v>      -0.00000000       0.36842105       0.00000000 </v>
   <v>       0.05263158       0.36842105       0.00000000 </v>
   <v>       0.10526316       0.36842105       0.00000000 </v>
   <v>       0.15789474       0.36842105       0.00000000 </v>
   <v>       0.21052632       0.36842105       0.00000000 </v>
   <v>       0.26315789       0.36842105      -0.00000000 </v>
   <v>       0.31578947       0.36842105       0.00000000 </v>
   <v>       0.36842105       0.36842105       0.00000000 </v>
   <v>       0.42105263       0.36842105       0.00000000 </v>
   <v>       0.47368421       0.36842105       0.00000000 </v>
   <v>      -0.47368421       0.36842105       0.00000000 </v>
   <v>      -0.42105263       0.36842105       0.00000000 </v>
   <v>      -0.36842105       0.36842105       0.00000000 </v>
   <v>      -0.31578947       0.36842105      -0.00000000 </v>
   <v>      -0.26315789       0.36842105       0.00000000 </v>
   <v>      -0.21052632       0.36842105      -0.00000000 </v>
   <v>      -0.15789474       0.36842105       0.00000000 </v>
   <v>      -0.10526316       0.36842105       0.00000000 </v>
   <v>      -0.05263158       0.36842105       0.00000000 </v>
   <v>      -0.00000000       0.42105263       0.00000000 </v>
   <v>       0.05263158       0.42105263       0.00000000 </v>
   <v>       0.10526316       0.42105263       0.00000000 </v>
   <v>       0.15789474       0.42105263       0.00000000 </v>
   <v>       0.21052632       0.42105263       0.00000000 </v>
   <v>       0.26315789       0.42105263       0.00000000 </v>
   <v>       0.31578947       0.42105263       0.00000000 </v>
   <v>       0.36842105       0.42105263       0.00000000 </v>
   <v>       0.42105263       0.42105263      -0.00000000 </v>
   <v>       0.47368421       0.42105263       0.00000000 </v>
   <v>      -0.47368421       0.42105263       0.00000000 </v>
   <v>      -0.42105263       0.42105263      -0.00000000 </v>
   <v>      -0.36842105       0.42105263       0.00000000 </v>
   <v>      -0.31578947       0.42105263      -0.00000000 </v>
   <v>      -0.26315789       0.42105263      -0.00000000 </v>
   <v>      -0.21052632       0.42105263      -0.00000000 </v>
   <v>      -0.15789474       0.42105263       0.00000000 </v>
   <v>      -0.10526316       0.42105263       0.00000000 </v>
   <v>      -0.05263158       0.42105263      -0.00000000 </v>
   <v>      -0.00000000       0.47368421       0.00000000 </v>
   <v>       0.05263158       0.47368421       0.00000000 </v>
   <v>       0.10526316       0.47368421       0.00000000 </v>
   <v>       0.15789474       0.47368421       0.00000000 </v>
   <v>       0.21052632       0.47368421       0.00000000 </v>
   <v>       0.26315789       0.47368421       0.00000000 </v>
   <v>       0.31578947       0.47368421       0.00000000 </v>
   <v>       0.36842105       0.47368421       0.00000000 </v>
   <v>       0.42105263       0.47368421       0.00000000 </v>
   <v>       0.47368421       0.47368421       0.00000000 </v>
   <v>      -0.47368421       0.47368421       0.00000000 </v>
   <v>      -0.42105263       0.47368421       0.00000000 </v>
   <v>      -0.36842105       0.47368421       0.00000000 </v>
   <v>      -0.31578947       0.47368421      -0.00000000 </v>
   <v>      -0.26315789       0.47368421       0.00000000 </v>
   <v>      -0.21052632       0.47368421       0.00000000 </v>
   <v>      -0.15789474       0.47368421       0.00000000 </v>
   <v>      -0.10526316       0.47368421       0.00000000 </v>
   <v>      -0.05263158       0.47368421       0.00000000 </v>
   <v>       0.00000000       0.00000000       0.08333333 </v>
   <v>       0.05263158      -0.00000000       0.08333333 </v>
   <v>       0.10526316       0.00000000       0.08333333 </v>
   <v>       0.15789474      -0.00000000       0.08333333 </v>
   <v>       0.21052632      -0.00000000       0.08333333 </v>
   <v>       0.26315789      -0.00000000       0.08333333 </v>
   <v>       0.31578947      -0.00000000       0.08333333 </v>
   <v>       0.36842105      -0.00000000       0.08333333 </v>
   <v>       0.42105263      -0.00000000       0.08333333 </v>
   <v>       0.47368421       0.00000000       0.08333333 </v>
   <v>      -0.47368421       0.00000000       0.08333333 </v>
   <v>      -0.42105263      -0.00000000       0.08333333 </v>
   <v>      -0.36842105       0.00000000       0.08333333 </v>
   <v>      -0.31578947      -0.00000000       0.08333333 </v>
   <v>      -0.26315789       0.00000000       0.08333333 </v>
   <v>      -0.21052632       0.00000000       0.08333333 </v>
   <v>      -0.15789474       0.00000000       0.08333333 </v>
   <v>      -0.10526316       0.00000000       0.08333333 </v>
   <v>      -0.05263158      -0.00000000       0.08333333 </v>
   <v>       0.00000000       0.05263158       0.08333333 </v>
   <v>       0.05263158       0.05263158       0.08333333 </v>
   <v>       0.10526316       0.05263158       0.08333333 </v>
   <v>       0.15789474       0.05263158       0.08333333 </v>
   <v>       0.21052632       0.05263158       0.08333333 </v>
   <v>       0.26315789       0.05263158       0.08333333 </v>
   <v>       0.31578947       0.05263158       0.08333333 </v>
   <v>       0.36842105       0.05263158       0.08333333 </v>
   <v>       0.42105263       0.05263158       0.08333333 </v>
   <v>       0.47368421       0.05263158       0.08333333 </v>
   <v>      -0.47368421       0.05263158       0.08333333 </v>
   <v>      -0.42105263       0.05263158       0.08333333 </v>
   <v>      -0.36842105       0.05263158       0.08333333 </v>
   <v>      -0.31578947       0.05263158       0.08333333 </v>
   <v>      -0.26315789       0.05263158       0.08333333 </v>
   <v>      -0.21052632       0.05263158       0.08333333 </v>
   <v>      -0.15789474       0.05263158       0.08333333 </v>
   <v>      -0.10526316       0.05263158       0.08333333 </v>
   <v>      -0.05263158       0.05263158       0.08333333 </v>
   <v>       0.00000000       0.10526316       0.08333333 </v>
   <v>       0.05263158       0.10526316       0.08333333 </v>
   <v>       0.10526316       0.10526316       0.08333333 </v>
   <v>       0.15789474       0.10526316       0.08333333 </v>
   <v>       0.21052632       0.10526316       0.08333333 </v>
   <v>       0.26315789       0.10526316       0.08333333 </v>
   <v>       0.31578947       0.10526316       0.08333333 </v>
   <v>       0.36842105       0.10526316       0.08333333 </v>
   <v>       0.42105263       0.10526316       0.08333333 </v>
   <v>       0.47368421       0.10526316       0.08333333 </v>
   <v>      -0.47368421       0.10526316       0.08333333 </v>
   <v>      -0.42105263       0.10526316       0.08333333 </v>
   <v>      -0.36842105       0.10526316       0.08333333 </v>
   <v>      -0.31578947       0.10526316       0.08333333 </v>
   <v>      -0.26315789       0.10526316       0.08333333 </v>
   <v>      -0.21052632       0.10526316       0.08333333 </v>
   <v>      -0.15789474       0.10526316       0.08333333 </v>
   <v>      -0.10526316       0.10526316       0.08333333 </v>
   <v>      -0.05263158       0.10526316       0.08333333 </v>
   <v>       0.00000000       0.15789474       0.08333333 </v>
   <v>       0.05263158       0.15789474       0.08333333 </v>
   <v>       0.10526316       0.15789474       0.08333333 </v>
   <v>       0.15789474       0.15789474       0.08333333 </v>
   <v>       0.21052632       0.15789474       0.08333333 </v>
   <v>       0.26315789       0.15789474       0.08333333 </v>
   <v>       0.31578947       0.15789474       0.08333333 </v>
   <v>       0.36842105       0.15789474       0.08333333 </v>
   <v>       0.42105263       0.15789474       0.08333333 </v>
   <v>       0.47368421       0.15789474       0.08333333 </v>
   <v>      -0.47368421       0.15789474       0.08333333 </v>
   <v>      -0.42105263       0.15789474       0.08333333 </v>
   <v>      -0.36842105       0.15789474       0.08333333 </v>
   <v>      -0.31578947       0.15789474       0.08333333 </v>
   <v>      -0.26315789       0.15789474       0.08333333 </v>
   <v>      -0.21052632       0.15789474       0.08333333 </v>
   <v>      -0.15789474       0.15789474       0.08333333 </v>
   <v>      -0.10526316       0.15789474       0.08333333 </v>
   <v>      -0.05263158       0.15789474       0.08333333 </v>
   <v>       0.00000000       0.21052632       0.08333333 </v>
   <v>       0.05263158       0.21052632       0.08333333 </v>
   <v>       0.10526316       0.21052632       0.08333333 </v>
   <v>       0.15789474       0.21052632       0.08333333 </v>
   <v>       0.21052632       0.21052632       0.08333333 </v>
   <v>       0.26315789       0.21052632       0.08333333 </v>
   <v>       0.31578947       0.21052632       0.08333333 </v>
   <v>       0.36842105       0.21052632       0.08333333 </v>
   <v>       0.42105263       0.21052632       0.08333333 </v>
   <v>       0.47368421       0.21052632       0.08333333 </v>
   <v>      -0.47368421       0.21052632       0.08333333 </v>
   <v>      -0.42105263       0.21052632       0.08333333 </v>
   <v>      -0.36842105       0.21052632       0.08333333 </v>
   <v>      -0.31578947       0.21052632       0.08333333 </v>
   <v>      -0.26315789       0.21052632       0.08333333 </v>
   <v>      -0.21052632       0.21052632       0.08333333 </v>
   <v>      -0.15789474       0.21052632       0.08333333 </v>
   <v>      -0.10526316       0.21052632       0.08333333 </v>
   <v>      -0.05263158       0.21052632       0.08333333 </v>
   <v>       0.00000000       0.26315789       0.08333333 </v>
   <v>       0.05263158       0.26315789       0.08333333 </v>
   <v>       0.10526316       0.26315789       0.08333333 </v>
   <v>       0.15789474       0.26315789       0.08333333 </v>
   <v>       0.21052632       0.26315789       0.08333333 </v>
   <v>       0.26315789       0.26315789       0.08333333 </v>
   <v>       0.31578947       0.26315789       0.08333333 </v>
   <v>       0.36842105       0.26315789       0.08333333 </v>
   <v>       0.42105263       0.26315789       0.08333333 </v>
   <v>       0.47368421       0.26315789       0.08333333 </v>
   <v>      -0.47368421       0.26315789       0.08333333 </v>
   <v>      -0.42105263       0.26315789       0.08333333 </v>
   <v>      -0.36842105       0.26315789       0.08333333 </v>
   <v>      -0.31578947       0.26315789       0.08333333 </v>
   <v>      -0.26315789       0.26315789       0.08333333 </v>
   <v>      -0.21052632       0.26315789       0.08333333 </v>
   <v>      -0.15789474       0.26315789       0.08333333 </v>
   <v>      -0.10526316       0.26315789       0.08333333 </v>
   <v>      -0.05263158       0.26315789       0.08333333 </v>
   <v>       0.00000000       0.31578947       0.08333333 </v>
   <v>       0.05263158       0.31578947       0.08333333 </v>
   <v>       0.10526316       0.31578947       0.08333333 </v>
   <v>       0.15789474       0.31578947       0.08333333 </v>
   <v>       0.21052632       0.31578947       0.08333333 </v>
   <v>       0.26315789       0.31578947       0.08333333 </v>
   <v>       0.31578947       0.31578947       0.08333333 </v>
   <v>       0.36842105       0.31578947       0.08333333 </v>
   <v>       0.42105263       0.31578947       0.08333333 </v>
   <v>       0.47368421       0.31578947       0.08333333 </v>
   <v>      -0.47368421       0.31578947       0.08333333 </v>
   <v>      -0.42105263       0.31578947       0.08333333 </v>
   <v>      -0.36842105       0.31578947       0.08333333 </v>
   <v>      -0.31578947       0.31578947       0.08333333 </v>
   <v>      -0.26315789       0.31578947       0.08333333 </v>
   <v>      -0.21052632       0.31578947       0.08333333 </v>
   <v>      -0.15789474       0.31578947       0.08333333 </v>
   <v>      -0.10526316       0.31578947       0.08333333 </v>
   <v>      -0.05263158       0.31578947       0.08333333 </v>
   <v>       0.00000000       0.36842105       0.08333333 </v>
   <v>       0.05263158       0.36842105       0.08333333 </v>
   <v>       0.10526316       0.36842105       0.08333333 </v>
   <v>       0.15789474       0.36842105       0.08333333 </v>
   <v>       0.21052632       0.36842105       0.08333333 </v>
   <v>       0.26315789       0.36842105       0.08333333 </v>
   <v>       0.31578947       0.36842105       0.08333333 </v>
   <v>       0.36842105       0.36842105       0.08333333 </v>
   <v>       0.42105263       0.36842105       0.08333333 </v>
   <v>       0.47368421       0.36842105       0.08333333 </v>
   <v>      -0.47368421       0.36842105       0.08333333 </v>
   <v>      -0.42105263       0.36842105       0.08333333 </v>
   <v>      -0.36842105       0.36842105       0.08333333 </v>
   <v>      -0.31578947       0.36842105       0.08333333 </v>
   <v>      -0.26315789       0.36842105       0.08333333 </v>
   <v>      -0.21052632       0.36842105       0.08333333 </v>
   <v>      -0.15789474       0.36842105       0.08333333 </v>
   <v>      -0.10526316       0.36842105       0.08333333 </v>
   <v>      -0.05263158       0.36842105       0.08333333 </v>
   <v>      -0.00000000       0.42105263       0.08333333 </v>
   <v>       0.05263158       0.42105263       0.08333333 </v>
   <v>       0.10526316       0.42105263       0.08333333 </v>
   <v>       0.15789474       0.42105263       0.08333333 </v>
   <v>       0.21052632       0.42105263       0.08333333 </v>
   <v>       0.26315789       0.42105263       0.08333333 </v>
   <v>       0.31578947       0.42105263       0.08333333 </v>
   <v>       0.36842105       0.42105263       0.08333333 </v>
   <v>       0.42105263       0.42105263       0.08333333 </v>
   <v>       0.47368421       0.42105263       0.08333333 </v>
   <v>      -0.47368421       0.42105263       0.08333333 </v>
   <v>      -0.42105263       0.42105263       0.08333333 </v>
   <v>      -0.36842105       0.42105263       0.08333333 </v>
   <v>      -0.31578947       0.42105263       0.08333333 </v>
   <v>      -0.26315789       0.42105263       0.08333333 </v>
   <v>      -0.21052632       0.42105263       0.08333333 </v>
   <v>      -0.15789474       0.42105263       0.08333333 </v>
   <v>      -0.10526316       0.42105263       0.08333333 </v>
   <v>      -0.05263158       0.42105263       0.08333333 </v>
   <v>       0.00000000       0.47368421       0.08333333 </v>
   <v>       0.05263158       0.47368421       0.08333333 </v>
   <v>       0.10526316       0.47368421       0.08333333 </v>
   <v>       0.15789474       0.47368421       0.08333333 </v>
   <v>       0.21052632       0.47368421       0.08333333 </v>
   <v>       0.26315789       0.47368421       0.08333333 </v>
   <v>       0.31578947       0.47368421       0.08333333 </v>
   <v>       0.36842105       0.47368421       0.08333333 </v>
   <v>       0.42105263       0.47368421       0.08333333 </v>
   <v>       0.47368421       0.47368421       0.08333333 </v>
   <v>      -0.47368421       0.47368421       0.08333333 </v>
   <v>      -0.42105263       0.47368421       0.08333333 </v>
   <v>      -0.36842105       0.47368421       0.08333333 </v>
   <v>      -0.31578947       0.47368421       0.08333333 </v>
   <v>      -0.26315789       0.47368421       0.08333333 </v>
   <v>      -0.21052632       0.47368421       0.08333333 </v>
   <v>      -0.15789474       0.47368421       0.08333333 </v>
   <v>      -0.10526316       0.47368421       0.08333333 </v>
   <v>      -0.05263158       0.47368421       0.08333333 </v>
   <v>       0.00000000      -0.47368421       0.08333333 </v>
   <v>       0.05263158      -0.47368421       0.08333333 </v>
   <v>       0.10526316      -0.47368421       0.08333333 </v>
   <v>       0.15789474      -0.47368421       0.08333333 </v>
   <v>       0.21052632      -0.47368421       0.08333333 </v>
   <v>       0.26315789      -0.47368421       0.08333333 </v>
   <v>       0.31578947      -0.47368421       0.08333333 </v>
   <v>       0.36842105      -0.47368421       0.08333333 </v>
   <v>       0.42105263      -0.47368421       0.08333333 </v>
   <v>       0.47368421      -0.47368421       0.08333333 </v>
   <v>      -0.47368421      -0.47368421       0.08333333 </v>
   <v>      -0.42105263      -0.47368421       0.08333333 </v>
   <v>      -0.36842105      -0.47368421       0.08333333 </v>
   <v>      -0.31578947      -0.47368421       0.08333333 </v>
   <v>      -0.26315789      -0.47368421       0.08333333 </v>
   <v>      -0.21052632      -0.47368421       0.08333333 </v>
   <v>      -0.15789474      -0.47368421       0.08333333 </v>
   <v>      -0.10526316      -0.47368421       0.08333333 </v>
   <v>      -0.05263158      -0.47368421       0.08333333 </v>
   <v>      -0.00000000      -0.42105263       0.08333333 </v>
   <v>       0.05263158      -0.42105263       0.08333333 </v>
   <v>       0.10526316      -0.42105263       0.08333333 </v>
   <v>       0.15789474      -0.42105263       0.08333333 </v>
   <v>       0.21052632      -0.42105263       0.08333333 </v>
   <v>       0.26315789      -0.42105263       0.08333333 </v>
   <v>       0.31578947      -0.42105263       0.08333333 </v>
   <v>       0.36842105      -0.42105263       0.08333333 </v>
   <v>       0.42105263      -0.42105263       0.08333333 </v>
   <v>       0.47368421      -0.42105263       0.08333333 </v>
   <v>      -0.47368421      -0.42105263       0.08333333 </v>
   <v>      -0.42105263      -0.42105263       0.08333333 </v>
   <v>      -0.36842105      -0.42105263       0.08333333 </v>
   <v>      -0.31578947      -0.42105263       0.08333333 </v>
   <v>      -0.26315789      -0.42105263       0.08333333 </v>
   <v>      -0.21052632      -0.42105263       0.08333333 </v>
   <v>      -0.15789474      -0.42105263       0.08333333 </v>
   <v>      -0.10526316      -0.42105263       0.08333333 </v>
   <v>      -0.05263158      -0.42105263       0.08333333 </v>
   <v>       0.00000000      -0.36842105       0.08333333 </v>
   <v>       0.05263158      -0.36842105       0.08333333 </v>
   <v>       0.10526316      -0.36842105       0.08333333 </v>
   <v>       0.15789474      -0.36842105       0.08333333 </v>
   <v>       0.21052632      -0.36842105       0.08333333 </v>
   <v>       0.26315789      -0.36842105       0.08333333 </v>
   <v>       0.31578947      -0.36842105       0.08333333 </v>
   <v>       0.36842105      -0.36842105       0.08333333 </v>
   <v>       0.42105263      -0.36842105       0.08333333 </v>
   <v>       0.47368421      -0.36842105       0.08333333 </v>
   <v>      -0.47368421      -0.36842105       0.08333333 </v>
   <v>      -0.42105263      -0.36842105       0.08333333 </v>
   <v>      -0.36842105      -0.36842105       0.08333333 </v>
   <v>      -0.31578947      -0.36842105       0.08333333 </v>
   <v>      -0.26315789      -0.36842105       0.08333333 </v>
   <v>      -0.21052632      -0.36842105       0.08333333 </v>
   <v>      -0.15789474      -0.36842105       0.08333333 </v>
   <v>      -0.10526316      -0.36842105       0.08333333 </v>
   <v>      -0.05263158      -0.36842105       0.08333333 </v>
   <v>       0.00000000      -0.31578947       0.08333333 </v>
   <v>       0.05263158      -0.31578947       0.08333333 </v>
   <v>       0.10526316      -0.31578947       0.08333333 </v>
   <v>       0.15789474      -0.31578947       0.08333333 </v>
   <v>       0.21052632      -0.31578947       0.08333333 </v>
   <v>       0.26315789      -0.31578947       0.08333333 </v>
   <v>       0.31578947      -0.31578947       0.08333333 </v>
   <v>       0.36842105      -0.31578947       0.08333333 </v>
   <v>       0.42105263      -0.31578947       0.08333333 </v>
   <v>       0.47368421      -0.31578947       0.08333333 </v>
   <v>      -0.47368421      -0.31578947       0.08333333 </v>
   <v>      -0.42105263      -0.31578947       0.08333333 </v>
   <v>      -0.36842105      -0.31578947       0.08333333 </v>
   <v>      -0.31578947      -0.31578947       0.08333333 </v>
   <v>      -0.26315789      -0.31578947       0.08333333 </v>
   <v>      -0.21052632      -0.31578947       0.08333333 </v>
   <v>      -0.15789474      -0.31578947       0.08333333 </v>
   <v>      -0.10526316      -0.31578947       0.08333333 </v>
   <v>      -0.05263158      -0.31578947       0.08333333 </v>
   <v>       0.00000000      -0.26315789       0.08333333 </v>
   <v>       0.05263158      -0.26315789       0.08333333 </v>
   <v>       0.10526316      -0.26315789       0.08333333 </v>
   <v>       0.15789474      -0.26315789       0.08333333 </v>
   <v>       0.21052632      -0.26315789       0.08333333 </v>
   <v>       0.26315789      -0.26315789       0.08333333 </v>
   <v>       0.31578947      -0.26315789       0.08333333 </v>
   <v>       0.36842105      -0.26315789       0.08333333 </v>
   <v>       0.42105263      -0.26315789       0.08333333 </v>
   <v>       0.47368421      -0.26315789       0.08333333 </v>
   <v>      -0.47368421      -0.26315789       0.08333333 </v>
   <v>      -0.42105263      -0.26315789       0.08333333 </v>
   <v>      -0.36842105      -0.26315789       0.08333333 </v>
   <v>      -0.31578947      -0.26315789       0.08333333 </v>
   <v>      -0.26315789      -0.26315789       0.08333333 </v>
   <v>      -0.21052632      -0.26315789       0.08333333 </v>
   <v>      -0.15789474      -0.26315789       0.08333333 </v>
   <v>      -0.10526316      -0.26315789       0.08333333 </v>
   <v>      -0.05263158      -0.26315789       0.08333333 </v>
   <v>       0.00000000      -0.21052632       0.08333333 </v>
   <v>       0.05263158      -0.21052632       0.08333333 </v>
   <v>       0.10526316      -0.21052632       0.08333333 </v>
   <v>       0.15789474      -0.21052632       0.08333333 </v>
   <v>       0.21052632      -0.21052632       0.08333333 </v>
   <v>       0.26315789      -0.21052632       0.08333333 </v>
   <v>       0.31578947      -0.21052632       0.08333333 </v>
   <v>       0.36842105      -0.21052632       0.08333333 </v>
   <v>       0.42105263      -0.21052632       0.08333333 </v>
   <v>       0.47368421      -0.21052632       0.08333333 </v>
   <v>      -0.47368421      -0.21052632       0.08333333 </v>
   <v>      -0.42105263      -0.21052632       0.08333333 </v>
   <v>      -0.36842105      -0.21052632       0.08333333 </v>
   <v>      -0.31578947      -0.21052632       0.08333333 </v>
   <v>      -0.26315789      -0.21052632       0.08333333 </v>
   <v>      -0.21052632      -0.21052632       0.08333333 </v>
   <v>      -0.15789474      -0.21052632       0.08333333 </v>
   <v>      -0.10526316      -0.21052632       0.08333333 </v>
   <v>      -0.05263158      -0.21052632       0.08333333 </v>
   <v>       0.00000000      -0.15789474       0.08333333 </v>
   <v>       0.05263158      -0.15789474       0.08333333 </v>
   <v>       0.10526316      -0.15789474       0.08333333 </v>
   <v>       0.15789474      -0.15789474       0.08333333 </v>
   <v>       0.21052632      -0.15789474       0.08333333 </v>
   <v>       0.26315789      -0.15789474       0.08333333 </v>
   <v>       0.31578947      -0.15789474       0.08333333 </v>
   <v>       0.36842105      -0.15789474       0.08333333 </v>
   <v>       0.42105263      -0.15789474       0.08333333 </v>
   <v>       0.47368421      -0.15789474       0.08333333 </v>
   <v>      -0.47368421      -0.15789474       0.08333333 </v>
   <v>      -0.42105263      -0.15789474       0.08333333 </v>
   <v>      -0.36842105      -0.15789474       0.08333333 </v>
   <v>      -0.31578947      -0.15789474       0.08333333 </v>
   <v>      -0.26315789      -0.15789474       0.08333333 </v>
   <v>      -0.21052632      -0.15789474       0.08333333 </v>
   <v>      -0.15789474      -0.15789474       0.08333333 </v>
   <v>      -0.10526316      -0.15789474       0.08333333 </v>
   <v>      -0.05263158      -0.15789474       0.08333333 </v>
   <v>       0.00000000      -0.10526316       0.08333333 </v>
   <v>       0.05263158      -0.10526316       0.08333333 </v>
   <v>       0.10526316      -0.10526316       0.08333333 </v>
   <v>       0.15789474      -0.10526316       0.08333333 </v>
   <v>       0.21052632      -0.10526316       0.08333333 </v>
   <v>       0.26315789      -0.10526316       0.08333333 </v>
   <v>       0.31578947      -0.10526316       0.08333333 </v>
   <v>       0.36842105      -0.10526316       0.08333333 </v>
   <v>       0.42105263      -0.10526316       0.08333333 </v>
   <v>       0.47368421      -0.10526316       0.08333333 </v>
   <v>      -0.47368421      -0.10526316       0.08333333 </v>
   <v>      -0.42105263      -0.10526316       0.08333333 </v>
   <v>      -0.36842105      -0.10526316       0.08333333 </v>
   <v>      -0.31578947      -0.10526316       0.08333333 </v>
   <v>      -0.26315789      -0.10526316       0.08333333 </v>
   <v>      -0.21052632      -0.10526316       0.08333333 </v>
   <v>      -0.15789474      -0.10526316       0.08333333 </v>
   <v>      -0.10526316      -0.10526316       0.08333333 </v>
   <v>      -0.05263158      -0.10526316       0.08333333 </v>
   <v>       0.00000000      -0.05263158       0.08333333 </v>
   <v>       0.05263158      -0.05263158       0.08333333 </v>
   <v>       0.10526316      -0.05263158       0.08333333 </v>
   <v>       0.15789474      -0.05263158       0.08333333 </v>
   <v>       0.21052632      -0.05263158       0.08333333 </v>
   <v>       0.26315789      -0.05263158       0.08333333 </v>
   <v>       0.31578947      -0.05263158       0.08333333 </v>
   <v>       0.36842105      -0.05263158       0.08333333 </v>
   <v>       0.42105263      -0.05263158       0.08333333 </v>
   <v>       0.47368421      -0.05263158       0.08333333 </v>
   <v>      -0.47368421      -0.05263158       0.08333333 </v>
   <v>      -0.42105263      -0.05263158       0.08333333 </v>
   <v>      -0.36842105      -0.05263158       0.08333333 </v>
   <v>      -0.31578947      -0.05263158       0.08333333 </v>
   <v>      -0.26315789      -0.05263158       0.08333333 </v>
   <v>      -0.21052632      -0.05263158       0.08333333 </v>
   <v>      -0.15789474      -0.05263158       0.08333333 </v>
   <v>      -0.10526316      -0.05263158       0.08333333 </v>
   <v>      -0.05263158      -0.05263158       0.08333333 </v>
   <v>       0.00000000      -0.00000000       0.16666667 </v>
   <v>       0.05263158      -0.00000000       0.16666667 </v>
   <v>       0.10526316      -0.00000000       0.16666667 </v>
   <v>       0.15789474       0.00000000       0.16666667 </v>
   <v>       0.21052632       0.00000000       0.16666667 </v>
   <v>       0.26315789       0.00000000       0.16666667 </v>
   <v>       0.31578947      -0.00000000       0.16666667 </v>
   <v>       0.36842105       0.00000000       0.16666667 </v>
   <v>       0.42105263      -0.00000000       0.16666667 </v>
   <v>       0.47368421       0.00000000       0.16666667 </v>
   <v>      -0.47368421       0.00000000       0.16666667 </v>
   <v>      -0.42105263       0.00000000       0.16666667 </v>
   <v>      -0.36842105       0.00000000       0.16666667 </v>
   <v>      -0.31578947       0.00000000       0.16666667 </v>
   <v>      -0.26315789       0.00000000       0.16666667 </v>
   <v>      -0.21052632       0.00000000       0.16666667 </v>
   <v>      -0.15789474       0.00000000       0.16666667 </v>
   <v>      -0.10526316      -0.00000000       0.16666667 </v>
   <v>      -0.05263158       0.00000000       0.16666667 </v>
   <v>       0.00000000       0.05263158       0.16666667 </v>
   <v>       0.05263158       0.05263158       0.16666667 </v>
   <v>       0.10526316       0.05263158       0.16666667 </v>
   <v>       0.15789474       0.05263158       0.16666667 </v>
   <v>       0.21052632       0.05263158       0.16666667 </v>
   <v>       0.26315789       0.05263158       0.16666667 </v>
   <v>       0.31578947       0.05263158       0.16666667 </v>
   <v>       0.36842105       0.05263158       0.16666667 </v>
   <v>       0.42105263       0.05263158       0.16666667 </v>
   <v>       0.47368421       0.05263158       0.16666667 </v>
   <v>      -0.47368421       0.05263158       0.16666667 </v>
   <v>      -0.42105263       0.05263158       0.16666667 </v>
   <v>      -0.36842105       0.05263158       0.16666667 </v>
   <v>      -0.31578947       0.05263158       0.16666667 </v>
   <v>      -0.26315789       0.05263158       0.16666667 </v>
   <v>      -0.21052632       0.05263158       0.16666667 </v>
   <v>      -0.15789474       0.05263158       0.16666667 </v>
   <v>      -0.10526316       0.05263158       0.16666667 </v>
   <v>      -0.05263158       0.05263158       0.16666667 </v>
   <v>       0.00000000       0.10526316       0.16666667 </v>
   <v>       0.05263158       0.10526316       0.16666667 </v>
   <v>       0.10526316       0.10526316       0.16666667 </v>
   <v>       0.15789474       0.10526316       0.16666667 </v>
   <v>       0.21052632       0.10526316       0.16666667 </v>
   <v>       0.26315789       0.10526316       0.16666667 </v>
   <v>       0.31578947       0.10526316       0.16666667 </v>
   <v>       0.36842105       0.10526316       0.16666667 </v>
   <v>       0.42105263       0.10526316       0.16666667 </v>
   <v>       0.47368421       0.10526316       0.16666667 </v>
   <v>      -0.47368421       0.10526316       0.16666667 </v>
   <v>      -0.42105263       0.10526316       0.16666667 </v>
   <v>      -0.36842105       0.10526316       0.16666667 </v>
   <v>      -0.31578947       0.10526316       0.16666667 </v>
   <v>      -0.26315789       0.10526316       0.16666667 </v>
   <v>      -0.21052632       0.10526316       0.16666667 </v>
   <v>      -0.15789474       0.10526316       0.16666667 </v>
   <v>      -0.10526316       0.10526316       0.16666667 </v>
   <v>      -0.05263158       0.10526316       0.16666667 </v>
   <v>       0.00000000       0.15789474       0.16666667 </v>
   <v>       0.05263158       0.15789474       0.16666667 </v>
   <v>       0.10526316       0.15789474       0.16666667 </v>
   <v>       0.15789474       0.15789474       0.16666667 </v>
   <v>       0.21052632       0.15789474       0.16666667 </v>
   <v>       0.26315789       0.15789474       0.16666667 </v>
   <v>       0.31578947       0.15789474       0.16666667 </v>
   <v>       0.36842105       0.15789474       0.16666667 </v>
   <v>       0.42105263       0.15789474       0.16666667 </v>
   <v>       0.47368421       0.15789474       0.16666667 </v>
   <v>      -0.47368421       0.15789474       0.16666667 </v>
   <v>      -0.42105263       0.15789474       0.16666667 </v>
   <v>      -0.36842105       0.15789474       0.16666667 </v>
   <v>      -0.31578947       0.15789474       0.16666667 </v>
   <v>      -0.26315789       0.15789474       0.16666667 </v>
   <v>      -0.21052632       0.15789474       0.16666667 </v>
   <v>      -0.15789474       0.15789474       0.16666667 </v>
   <v>      -0.10526316       0.15789474       0.16666667 </v>
   <v>      -0.05263158       0.15789474       0.16666667 </v>
   <v>       0.00000000       0.21052632       0.16666667 </v>
   <v>       0.05263158       0.21052632       0.16666667 </v>
   <v>       0.10526316       0.21052632       0.16666667 </v>
   <v>       0.15789474       0.21052632       0.16666667 </v>
   <v>       0.21052632       0.21052632       0.16666667 </v>
   <v>       0.26315789       0.21052632       0.16666667 </v>
   <v>       0.31578947       0.21052632       0.16666667 </v>
   <v>       0.36842105       0.21052632       0.16666667 </v>
   <v>       0.42105263       0.21052632       0.16666667 </v>
   <v>       0.47368421       0.21052632       0.16666667 </v>
   <v>      -0.47368421       0.21052632       0.16666667 </v>
   <v>      -0.42105263       0.21052632       0.16666667 </v>
   <v>      -0.36842105       0.21052632       0.16666667 </v>
   <v>      -0.31578947       0.21052632       0.16666667 </v>
   <v>      -0.26315789       0.21052632       0.16666667 </v>
   <v>      -0.21052632       0.21052632       0.16666667 </v>
   <v>      -0.15789474       0.21052632       0.16666667 </v>
   <v>      -0.10526316       0.21052632       0.16666667 </v>
   <v>      -0.05263158       0.21052632       0.16666667 </v>
   <v>       0.00000000       0.26315789       0.16666667 </v>
   <v>       0.05263158       0.26315789       0.16666667 </v>
   <v>       0.10526316       0.26315789       0.16666667 </v>
   <v>       0.15789474       0.26315789       0.16666667 </v>
   <v>       0.21052632       0.26315789       0.16666667 </v>
   <v>       0.26315789       0.26315789       0.16666667 </v>
   <v>       0.31578947       0.26315789       0.16666667 </v>
   <v>       0.36842105       0.26315789       0.16666667 </v>
   <v>       0.42105263       0.26315789       0.16666667 </v>
   <v>       0.47368421       0.26315789       0.16666667 </v>
   <v>      -0.47368421       0.26315789       0.16666667 </v>
   <v>      -0.42105263       0.26315789       0.16666667 </v>
   <v>      -0.36842105       0.26315789       0.16666667 </v>
   <v>      -0.31578947       0.26315789       0.16666667 </v>
   <v>      -0.26315789       0.26315789       0.16666667 </v>
   <v>      -0.21052632       0.26315789       0.16666667 </v>
   <v>      -0.15789474       0.26315789       0.16666667 </v>
   <v>      -0.10526316       0.26315789       0.16666667 </v>
   <v>      -0.05263158       0.26315789       0.16666667 </v>
   <v>       0.00000000       0.31578947       0.16666667 </v>
   <v>       0.05263158       0.31578947       0.16666667 </v>
   <v>       0.10526316       0.31578947       0.16666667 </v>
   <v>       0.15789474       0.31578947       0.16666667 </v>
   <v>       0.21052632       0.31578947       0.16666667 </v>
   <v>       0.26315789       0.31578947       0.16666667 </v>
   <v>       0.31578947       0.31578947       0.16666667 </v>
   <v>       0.36842105       0.31578947       0.16666667 </v>
   <v>       0.42105263       0.31578947       0.16666667 </v>
   <v>       0.47368421       0.31578947       0.16666667 </v>
   <v>      -0.47368421       0.31578947       0.16666667 </v>
   <v>      -0.42105263       0.31578947       0.16666667 </v>
   <v>      -0.36842105       0.31578947       0.16666667 </v>
   <v>      -0.31578947       0.31578947       0.16666667 </v>
   <v>      -0.26315789       0.31578947       0.16666667 </v>
   <v>      -0.21052632       0.31578947       0.16666667 </v>
   <v>      -0.15789474       0.31578947       0.16666667 </v>
   <v>      -0.10526316       0.31578947       0.16666667 </v>
   <v>      -0.05263158       0.31578947       0.16666667 </v>
   <v>       0.00000000       0.36842105       0.16666667 </v>
   <v>       0.05263158       0.36842105       0.16666667 </v>
   <v>       0.10526316       0.36842105       0.16666667 </v>
   <v>       0.15789474       0.36842105       0.16666667 </v>
   <v>       0.21052632       0.36842105       0.16666667 </v>
   <v>       0.26315789       0.36842105       0.16666667 </v>
   <v>       0.31578947       0.36842105       0.16666667 </v>
   <v>       0.36842105       0.36842105       0.16666667 </v>
   <v>       0.42105263       0.36842105       0.16666667 </v>
   <v>       0.47368421       0.36842105       0.16666667 </v>
   <v>      -0.47368421       0.36842105       0.16666667 </v>
   <v>      -0.42105263       0.36842105       0.16666667 </v>
   <v>      -0.36842105       0.36842105       0.16666667 </v>
   <v>      -0.31578947       0.36842105       0.16666667 </v>
   <v>      -0.26315789       0.36842105       0.16666667 </v>
   <v>      -0.21052632       0.36842105       0.16666667 </v>
   <v>      -0.15789474       0.36842105       0.16666667 </v>
   <v>      -0.10526316       0.36842105       0.16666667 </v>
   <v>      -0.05263158       0.36842105       0.16666667 </v>
   <v>       0.00000000       0.42105263       0.16666667 </v>
   <v>       0.05263158       0.42105263       0.16666667 </v>
   <v>       0.10526316       0.42105263       0.16666667 </v>
   <v>       0.15789474       0.42105263       0.16666667 </v>
   <v>       0.21052632       0.42105263       0.16666667 </v>
   <v>       0.26315789       0.42105263       0.16666667 </v>
   <v>       0.31578947       0.42105263       0.16666667 </v>
   <v>       0.36842105       0.42105263       0.16666667 </v>
   <v>       0.42105263       0.42105263       0.16666667 </v>
   <v>       0.47368421       0.42105263       0.16666667 </v>
   <v>      -0.47368421       0.42105263       0.16666667 </v>
   <v>      -0.42105263       0.42105263       0.16666667 </v>
   <v>      -0.36842105       0.42105263       0.16666667 </v>
   <v>      -0.31578947       0.42105263       0.16666667 </v>
   <v>      -0.26315789       0.42105263       0.16666667 </v>
   <v>      -0.21052632       0.42105263       0.16666667 </v>
   <v>      -0.15789474       0.42105263       0.16666667 </v>
   <v>      -0.10526316       0.42105263       0.16666667 </v>
   <v>      -0.05263158       0.42105263       0.16666667 </v>
   <v>       0.00000000       0.47368421       0.16666667 </v>
   <v>       0.05263158       0.47368421       0.16666667 </v>
   <v>       0.10526316       0.47368421       0.16666667 </v>
   <v>       0.15789474       0.47368421       0.16666667 </v>
   <v>       0.21052632       0.47368421       0.16666667 </v>
   <v>       0.26315789       0.47368421       0.16666667 </v>
   <v>       0.31578947       0.47368421       0.16666667 </v>
   <v>       0.36842105       0.47368421       0.16666667 </v>
   <v>       0.42105263       0.47368421       0.16666667 </v>
   <v>       0.47368421       0.47368421       0.16666667 </v>
   <v>      -0.47368421       0.47368421       0.16666667 </v>
   <v>      -0.42105263       0.47368421       0.16666667 </v>
   <v>      -0.36842105       0.47368421       0.16666667 </v>
   <v>      -0.31578947       0.47368421       0.16666667 </v>
   <v>      -0.26315789       0.47368421       0.16666667 </v>
   <v>      -0.21052632       0.47368421       0.16666667 </v>
   <v>      -0.15789474       0.47368421       0.16666667 </v>
   <v>      -0.10526316       0.47368421       0.16666667 </v>
   <v>      -0.05263158       0.47368421       0.16666667 </v>
   <v>       0.00000000      -0.47368421       0.16666667 </v>
   <v>       0.05263158      -0.47368421       0.16666667 </v>
   <v>       0.10526316      -0.47368421       0.16666667 </v>
   <v>       0.15789474      -0.47368421       0.16666667 </v>
   <v>       0.21052632      -0.47368421       0.16666667 </v>
   <v>       0.26315789      -0.47368421       0.16666667 </v>
   <v>       0.31578947      -0.47368421       0.16666667 </v>
   <v>       0.36842105      -0.47368421       0.16666667 </v>
   <v>       0.42105263      -0.47368421       0.16666667 </v>
   <v>       0.47368421      -0.47368421       0.16666667 </v>
   <v>      -0.47368421      -0.47368421       0.16666667 </v>
   <v>      -0.42105263      -0.47368421       0.16666667 </v>
   <v>      -0.36842105      -0.47368421       0.16666667 </v>
   <v>      -0.31578947      -0.47368421       0.16666667 </v>
   <v>      -0.26315789      -0.47368421       0.16666667 </v>
   <v>      -0.21052632      -0.47368421       0.16666667 </v>
   <v>      -0.15789474      -0.47368421       0.16666667 </v>
   <v>      -0.10526316      -0.47368421       0.16666667 </v>
   <v>      -0.05263158      -0.47368421       0.16666667 </v>
   <v>       0.00000000      -0.42105263       0.16666667 </v>
   <v>       0.05263158      -0.42105263       0.16666667 </v>
   <v>       0.10526316      -0.42105263       0.16666667 </v>
   <v>       0.15789474      -0.42105263       0.16666667 </v>
   <v>       0.21052632      -0.42105263       0.16666667 </v>
   <v>       0.26315789      -0.42105263       0.16666667 </v>
   <v>       0.31578947      -0.42105263       0.16666667 </v>
   <v>       0.36842105      -0.42105263       0.16666667 </v>
   <v>       0.42105263      -0.42105263       0.16666667 </v>
   <v>       0.47368421      -0.42105263       0.16666667 </v>
   <v>      -0.47368421      -0.42105263       0.16666667 </v>
   <v>      -0.42105263      -0.42105263       0.16666667 </v>
   <v>      -0.36842105      -0.42105263       0.16666667 </v>
   <v>      -0.31578947      -0.42105263       0.16666667 </v>
   <v>      -0.26315789      -0.42105263       0.16666667 </v>
   <v>      -0.21052632      -0.42105263       0.16666667 </v>
   <v>      -0.15789474      -0.42105263       0.16666667 </v>
   <v>      -0.10526316      -0.42105263       0.16666667 </v>
   <v>      -0.05263158      -0.42105263       0.16666667 </v>
   <v>       0.00000000      -0.36842105       0.16666667 </v>
   <v>       0.05263158      -0.36842105       0.16666667 </v>
   <v>       0.10526316      -0.36842105       0.16666667 </v>
   <v>       0.15789474      -0.36842105       0.16666667 </v>
   <v>       0.21052632      -0.36842105       0.16666667 </v>
   <v>       0.26315789      -0.36842105       0.16666667 </v>
   <v>       0.31578947      -0.36842105       0.16666667 </v>
   <v>       0.36842105      -0.36842105       0.16666667 </v>
   <v>       0.42105263      -0.36842105       0.16666667 </v>
   <v>       0.47368421      -0.36842105       0.16666667 </v>
   <v>      -0.47368421      -0.36842105       0.16666667 </v>
   <v>      -0.42105263      -0.36842105       0.16666667 </v>
   <v>      -0.36842105      -0.36842105       0.16666667 </v>
   <v>      -0.31578947      -0.36842105       0.16666667 </v>
   <v>      -0.26315789      -0.36842105       0.16666667 </v>
   <v>      -0.21052632      -0.36842105       0.16666667 </v>
   <v>      -0.15789474      -0.36842105       0.16666667 </v>
   <v>      -0.10526316      -0.36842105       0.16666667 </v>
   <v>      -0.05263158      -0.36842105       0.16666667 </v>
   <v>       0.00000000      -0.31578947       0.16666667 </v>
   <v>       0.05263158      -0.31578947       0.16666667 </v>
   <v>       0.10526316      -0.31578947       0.16666667 </v>
   <v>       0.15789474      -0.31578947       0.16666667 </v>
   <v>       0.21052632      -0.31578947       0.16666667 </v>
   <v>       0.26315789      -0.31578947       0.16666667 </v>
   <v>       0.31578947      -0.31578947       0.16666667 </v>
   <v>       0.36842105      -0.31578947       0.16666667 </v>
   <v>       0.42105263      -0.31578947       0.16666667 </v>
   <v>       0.47368421      -0.31578947       0.16666667 </v>
   <v>      -0.47368421      -0.31578947       0.16666667 </v>
   <v>      -0.42105263      -0.31578947       0.16666667 </v>
   <v>      -0.36842105      -0.31578947       0.16666667 </v>
   <v>      -0.31578947      -0.31578947       0.16666667 </v>
   <v>      -0.26315789      -0.31578947       0.16666667 </v>
   <v>      -0.21052632      -0.31578947       0.16666667 </v>
   <v>      -0.15789474      -0.31578947       0.16666667 </v>
   <v>      -0.10526316      -0.31578947       0.16666667 </v>
   <v>      -0.05263158      -0.31578947       0.16666667 </v>
   <v>       0.00000000      -0.26315789       0.16666667 </v>
   <v>       0.05263158      -0.26315789       0.16666667 </v>
   <v>       0.10526316      -0.26315789       0.16666667 </v>
   <v>       0.15789474      -0.26315789       0.16666667 </v>
   <v>       0.21052632      -0.26315789       0.16666667 </v>
   <v>       0.26315789      -0.26315789       0.16666667 </v>
   <v>       0.31578947      -0.26315789       0.16666667 </v>
   <v>       0.36842105      -0.26315789       0.16666667 </v>
   <v>       0.42105263      -0.26315789       0.16666667 </v>
   <v>       0.47368421      -0.26315789       0.16666667 </v>
   <v>      -0.47368421      -0.26315789       0.16666667 </v>
   <v>      -0.42105263      -0.26315789       0.16666667 </v>
   <v>      -0.36842105      -0.26315789       0.16666667 </v>
   <v>      -0.31578947      -0.26315789       0.16666667 </v>
   <v>      -0.26315789      -0.26315789       0.16666667 </v>
   <v>      -0.21052632      -0.26315789       0.16666667 </v>
   <v>      -0.15789474      -0.26315789       0.16666667 </v>
   <v>      -0.10526316      -0.26315789       0.16666667 </v>
   <v>      -0.05263158      -0.26315789       0.16666667 </v>
   <v>      -0.00000000      -0.21052632       0.16666667 </v>
   <v>       0.05263158      -0.21052632       0.16666667 </v>
   <v>       0.10526316      -0.21052632       0.16666667 </v>
   <v>       0.15789474      -0.21052632       0.16666667 </v>
   <v>       0.21052632      -0.21052632       0.16666667 </v>
   <v>       0.26315789      -0.21052632       0.16666667 </v>
   <v>       0.31578947      -0.21052632       0.16666667 </v>
   <v>       0.36842105      -0.21052632       0.16666667 </v>
   <v>       0.42105263      -0.21052632       0.16666667 </v>
   <v>       0.47368421      -0.21052632       0.16666667 </v>
   <v>      -0.47368421      -0.21052632       0.16666667 </v>
   <v>      -0.42105263      -0.21052632       0.16666667 </v>
   <v>      -0.36842105      -0.21052632       0.16666667 </v>
   <v>      -0.31578947      -0.21052632       0.16666667 </v>
   <v>      -0.26315789      -0.21052632       0.16666667 </v>
   <v>      -0.21052632      -0.21052632       0.16666667 </v>
   <v>      -0.15789474      -0.21052632       0.16666667 </v>
   <v>      -0.10526316      -0.21052632       0.16666667 </v>
   <v>      -0.05263158      -0.21052632       0.16666667 </v>
   <v>       0.00000000      -0.15789474       0.16666667 </v>
   <v>       0.05263158      -0.15789474       0.16666667 </v>
   <v>       0.10526316      -0.15789474       0.16666667 </v>
   <v>       0.15789474      -0.15789474       0.16666667 </v>
   <v>       0.21052632      -0.15789474       0.16666667 </v>
   <v>       0.26315789      -0.15789474       0.16666667 </v>
   <v>       0.31578947      -0.15789474       0.16666667 </v>
   <v>       0.36842105      -0.15789474       0.16666667 </v>
   <v>       0.42105263      -0.15789474       0.16666667 </v>
   <v>       0.47368421      -0.15789474       0.16666667 </v>
   <v>      -0.47368421      -0.15789474       0.16666667 </v>
   <v>      -0.42105263      -0.15789474       0.16666667 </v>
   <v>      -0.36842105      -0.15789474       0.16666667 </v>
   <v>      -0.31578947      -0.15789474       0.16666667 </v>
   <v>      -0.26315789      -0.15789474       0.16666667 </v>
   <v>      -0.21052632      -0.15789474       0.16666667 </v>
   <v>      -0.15789474      -0.15789474       0.16666667 </v>
   <v>      -0.10526316      -0.15789474       0.16666667 </v>
   <v>      -0.05263158      -0.15789474       0.16666667 </v>
   <v>       0.00000000      -0.10526316       0.16666667 </v>
   <v>       0.05263158      -0.10526316       0.16666667 </v>
   <v>       0.10526316      -0.10526316       0.16666667 </v>
   <v>       0.15789474      -0.10526316       0.16666667 </v>
   <v>       0.21052632      -0.10526316       0.16666667 </v>
   <v>       0.26315789      -0.10526316       0.16666667 </v>
   <v>       0.31578947      -0.10526316       0.16666667 </v>
   <v>       0.36842105      -0.10526316       0.16666667 </v>
   <v>       0.42105263      -0.10526316       0.16666667 </v>
   <v>       0.47368421      -0.10526316       0.16666667 </v>
   <v>      -0.47368421      -0.10526316       0.16666667 </v>
   <v>      -0.42105263      -0.10526316       0.16666667 </v>
   <v>      -0.36842105      -0.10526316       0.16666667 </v>
   <v>      -0.31578947      -0.10526316       0.16666667 </v>
   <v>      -0.26315789      -0.10526316       0.16666667 </v>
   <v>      -0.21052632      -0.10526316       0.16666667 </v>
   <v>      -0.15789474      -0.10526316       0.16666667 </v>
   <v>      -0.10526316      -0.10526316       0.16666667 </v>
   <v>      -0.05263158      -0.10526316       0.16666667 </v>
   <v>       0.00000000      -0.05263158       0.16666667 </v>
   <v>       0.05263158      -0.05263158       0.16666667 </v>
   <v>       0.10526316      -0.05263158       0.16666667 </v>
   <v>       0.15789474      -0.05263158       0.16666667 </v>
   <v>       0.21052632      -0.05263158       0.16666667 </v>
   <v>       0.26315789      -0.05263158       0.16666667 </v>
   <v>       0.31578947      -0.05263158       0.16666667 </v>
   <v>       0.36842105      -0.05263158       0.16666667 </v>
   <v>       0.42105263      -0.05263158       0.16666667 </v>
   <v>       0.47368421      -0.05263158       0.16666667 </v>
   <v>      -0.47368421      -0.05263158       0.16666667 </v>
   <v>      -0.42105263      -0.05263158       0.16666667 </v>
   <v>      -0.36842105      -0.05263158       0.16666667 </v>
   <v>      -0.31578947      -0.05263158       0.16666667 </v>
   <v>      -0.26315789      -0.05263158       0.16666667 </v>
   <v>      -0.21052632      -0.05263158       0.16666667 </v>
   <v>      -0.15789474      -0.05263158       0.16666667 </v>
   <v>      -0.10526316      -0.05263158       0.16666667 </v>
   <v>      -0.05263158      -0.05263158       0.16666667 </v>
   <v>       0.00000000       0.00000000       0.25000000 </v>
   <v>       0.05263158      -0.00000000       0.25000000 </v>
   <v>       0.10526316       0.00000000       0.25000000 </v>
   <v>       0.15789474       0.00000000       0.25000000 </v>
   <v>       0.21052632      -0.00000000       0.25000000 </v>
   <v>       0.26315789      -0.00000000       0.25000000 </v>
   <v>       0.31578947      -0.00000000       0.25000000 </v>
   <v>       0.36842105       0.00000000       0.25000000 </v>
   <v>       0.42105263      -0.00000000       0.25000000 </v>
   <v>       0.47368421      -0.00000000       0.25000000 </v>
   <v>      -0.47368421       0.00000000       0.25000000 </v>
   <v>      -0.42105263       0.00000000       0.25000000 </v>
   <v>      -0.36842105       0.00000000       0.25000000 </v>
   <v>      -0.31578947      -0.00000000       0.25000000 </v>
   <v>      -0.26315789      -0.00000000       0.25000000 </v>
   <v>      -0.21052632      -0.00000000       0.25000000 </v>
   <v>      -0.15789474       0.00000000       0.25000000 </v>
   <v>      -0.10526316       0.00000000       0.25000000 </v>
   <v>      -0.05263158      -0.00000000       0.25000000 </v>
   <v>       0.00000000       0.05263158       0.25000000 </v>
   <v>       0.05263158       0.05263158       0.25000000 </v>
   <v>       0.10526316       0.05263158       0.25000000 </v>
   <v>       0.15789474       0.05263158       0.25000000 </v>
   <v>       0.21052632       0.05263158       0.25000000 </v>
   <v>       0.26315789       0.05263158       0.25000000 </v>
   <v>       0.31578947       0.05263158       0.25000000 </v>
   <v>       0.36842105       0.05263158       0.25000000 </v>
   <v>       0.42105263       0.05263158       0.25000000 </v>
   <v>       0.47368421       0.05263158       0.25000000 </v>
   <v>      -0.47368421       0.05263158       0.25000000 </v>
   <v>      -0.42105263       0.05263158       0.25000000 </v>
   <v>      -0.36842105       0.05263158       0.25000000 </v>
   <v>      -0.31578947       0.05263158       0.25000000 </v>
   <v>      -0.26315789       0.05263158       0.25000000 </v>
   <v>      -0.21052632       0.05263158       0.25000000 </v>
   <v>      -0.15789474       0.05263158       0.25000000 </v>
   <v>      -0.10526316       0.05263158       0.25000000 </v>
   <v>      -0.05263158       0.05263158       0.25000000 </v>
   <v>       0.00000000       0.10526316       0.25000000 </v>
   <v>       0.05263158       0.10526316       0.25000000 </v>
   <v>       0.10526316       0.10526316       0.25000000 </v>
   <v>       0.15789474       0.10526316       0.25000000 </v>
   <v>       0.21052632       0.10526316       0.25000000 </v>
   <v>       0.26315789       0.10526316       0.25000000 </v>
   <v>       0.31578947       0.10526316       0.25000000 </v>
   <v>       0.36842105       0.10526316       0.25000000 </v>
   <v>       0.42105263       0.10526316       0.25000000 </v>
   <v>       0.47368421       0.10526316       0.25000000 </v>
   <v>      -0.47368421       0.10526316       0.25000000 </v>
   <v>      -0.42105263       0.10526316       0.25000000 </v>
   <v>      -0.36842105       0.10526316       0.25000000 </v>
   <v>      -0.31578947       0.10526316       0.25000000 </v>
   <v>      -0.26315789       0.10526316       0.25000000 </v>
   <v>      -0.21052632       0.10526316       0.25000000 </v>
   <v>      -0.15789474       0.10526316       0.25000000 </v>
   <v>      -0.10526316       0.10526316       0.25000000 </v>
   <v>      -0.05263158       0.10526316       0.25000000 </v>
   <v>       0.00000000       0.15789474       0.25000000 </v>
   <v>       0.05263158       0.15789474       0.25000000 </v>
   <v>       0.10526316       0.15789474       0.25000000 </v>
   <v>       0.15789474       0.15789474       0.25000000 </v>
   <v>       0.21052632       0.15789474       0.25000000 </v>
   <v>       0.26315789       0.15789474       0.25000000 </v>
   <v>       0.31578947       0.15789474       0.25000000 </v>
   <v>       0.36842105       0.15789474       0.25000000 </v>
   <v>       0.42105263       0.15789474       0.25000000 </v>
   <v>       0.47368421       0.15789474       0.25000000 </v>
   <v>      -0.47368421       0.15789474       0.25000000 </v>
   <v>      -0.42105263       0.15789474       0.25000000 </v>
   <v>      -0.36842105       0.15789474       0.25000000 </v>
   <v>      -0.31578947       0.15789474       0.25000000 </v>
   <v>      -0.26315789       0.15789474       0.25000000 </v>
   <v>      -0.21052632       0.15789474       0.25000000 </v>
   <v>      -0.15789474       0.15789474       0.25000000 </v>
   <v>      -0.10526316       0.15789474       0.25000000 </v>
   <v>      -0.05263158       0.15789474       0.25000000 </v>
   <v>       0.00000000       0.21052632       0.25000000 </v>
   <v>       0.05263158       0.21052632       0.25000000 </v>
   <v>       0.10526316       0.21052632       0.25000000 </v>
   <v>       0.15789474       0.21052632       0.25000000 </v>
   <v>       0.21052632       0.21052632       0.25000000 </v>
   <v>       0.26315789       0.21052632       0.25000000 </v>
   <v>       0.31578947       0.21052632       0.25000000 </v>
   <v>       0.36842105       0.21052632       0.25000000 </v>
   <v>       0.42105263       0.21052632       0.25000000 </v>
   <v>       0.47368421       0.21052632       0.25000000 </v>
   <v>      -0.47368421       0.21052632       0.25000000 </v>
   <v>      -0.42105263       0.21052632       0.25000000 </v>
   <v>      -0.36842105       0.21052632       0.25000000 </v>
   <v>      -0.31578947       0.21052632       0.25000000 </v>
   <v>      -0.26315789       0.21052632       0.25000000 </v>
   <v>      -0.21052632       0.21052632       0.25000000 </v>
   <v>      -0.15789474       0.21052632       0.25000000 </v>
   <v>      -0.10526316       0.21052632       0.25000000 </v>
   <v>      -0.05263158       0.21052632       0.25000000 </v>
   <v>       0.00000000       0.26315789       0.25000000 </v>
   <v>       0.05263158       0.26315789       0.25000000 </v>
   <v>       0.10526316       0.26315789       0.25000000 </v>
   <v>       0.15789474       0.26315789       0.25000000 </v>
   <v>       0.21052632       0.26315789       0.25000000 </v>
   <v>       0.26315789       0.26315789       0.25000000 </v>
   <v>       0.31578947       0.26315789       0.25000000 </v>
   <v>       0.36842105       0.26315789       0.25000000 </v>
   <v>       0.42105263       0.26315789       0.25000000 </v>
   <v>       0.47368421       0.26315789       0.25000000 </v>
   <v>      -0.47368421       0.26315789       0.25000000 </v>
   <v>      -0.42105263       0.26315789       0.25000000 </v>
   <v>      -0.36842105       0.26315789       0.25000000 </v>
   <v>      -0.31578947       0.26315789       0.25000000 </v>
   <v>      -0.26315789       0.26315789       0.25000000 </v>
   <v>      -0.21052632       0.26315789       0.25000000 </v>
   <v>      -0.15789474       0.26315789       0.25000000 </v>
   <v>      -0.10526316       0.26315789       0.25000000 </v>
   <v>      -0.05263158       0.26315789       0.25000000 </v>
   <v>       0.00000000       0.31578947       0.25000000 </v>
   <v>       0.05263158       0.31578947       0.25000000 </v>
   <v>       0.10526316       0.31578947       0.25000000 </v>
   <v>       0.15789474       0.31578947       0.25000000 </v>
   <v>       0.21052632       0.31578947       0.25000000 </v>
   <v>       0.26315789       0.31578947       0.25000000 </v>
   <v>       0.31578947       0.31578947       0.25000000 </v>
   <v>       0.36842105       0.31578947       0.25000000 </v>
   <v>       0.42105263       0.31578947       0.25000000 </v>
   <v>       0.47368421       0.31578947       0.25000000 </v>
   <v>      -0.47368421       0.31578947       0.25000000 </v>
   <v>      -0.42105263       0.31578947       0.25000000 </v>
   <v>      -0.36842105       0.31578947       0.25000000 </v>
   <v>      -0.31578947       0.31578947       0.25000000 </v>
   <v>      -0.26315789       0.31578947       0.25000000 </v>
   <v>      -0.21052632       0.31578947       0.25000000 </v>
   <v>      -0.15789474       0.31578947       0.25000000 </v>
   <v>      -0.10526316       0.31578947       0.25000000 </v>
   <v>      -0.05263158       0.31578947       0.25000000 </v>
   <v>       0.00000000       0.36842105       0.25000000 </v>
   <v>       0.05263158       0.36842105       0.25000000 </v>
   <v>       0.10526316       0.36842105       0.25000000 </v>
   <v>       0.15789474       0.36842105       0.25000000 </v>
   <v>       0.21052632       0.36842105       0.25000000 </v>
   <v>       0.26315789       0.36842105       0.25000000 </v>
   <v>       0.31578947       0.36842105       0.25000000 </v>
   <v>       0.36842105       0.36842105       0.25000000 </v>
   <v>       0.42105263       0.36842105       0.25000000 </v>
   <v>       0.47368421       0.36842105       0.25000000 </v>
   <v>      -0.47368421       0.36842105       0.25000000 </v>
   <v>      -0.42105263       0.36842105       0.25000000 </v>
   <v>      -0.36842105       0.36842105       0.25000000 </v>
   <v>      -0.31578947       0.36842105       0.25000000 </v>
   <v>      -0.26315789       0.36842105       0.25000000 </v>
   <v>      -0.21052632       0.36842105       0.25000000 </v>
   <v>      -0.15789474       0.36842105       0.25000000 </v>
   <v>      -0.10526316       0.36842105       0.25000000 </v>
   <v>      -0.05263158       0.36842105       0.25000000 </v>
   <v>       0.00000000       0.42105263       0.25000000 </v>
   <v>       0.05263158       0.42105263       0.25000000 </v>
   <v>       0.10526316       0.42105263       0.25000000 </v>
   <v>       0.15789474       0.42105263       0.25000000 </v>
   <v>       0.21052632       0.42105263       0.25000000 </v>
   <v>       0.26315789       0.42105263       0.25000000 </v>
   <v>       0.31578947       0.42105263       0.25000000 </v>
   <v>       0.36842105       0.42105263       0.25000000 </v>
   <v>       0.42105263       0.42105263       0.25000000 </v>
   <v>       0.47368421       0.42105263       0.25000000 </v>
   <v>      -0.47368421       0.42105263       0.25000000 </v>
   <v>      -0.42105263       0.42105263       0.25000000 </v>
   <v>      -0.36842105       0.42105263       0.25000000 </v>
   <v>      -0.31578947       0.42105263       0.25000000 </v>
   <v>      -0.26315789       0.42105263       0.25000000 </v>
   <v>      -0.21052632       0.42105263       0.25000000 </v>
   <v>      -0.15789474       0.42105263       0.25000000 </v>
   <v>      -0.10526316       0.42105263       0.25000000 </v>
   <v>      -0.05263158       0.42105263       0.25000000 </v>
   <v>       0.00000000       0.47368421       0.25000000 </v>
   <v>       0.05263158       0.47368421       0.25000000 </v>
   <v>       0.10526316       0.47368421       0.25000000 </v>
   <v>       0.15789474       0.47368421       0.25000000 </v>
   <v>       0.21052632       0.47368421       0.25000000 </v>
   <v>       0.26315789       0.47368421       0.25000000 </v>
   <v>       0.31578947       0.47368421       0.25000000 </v>
   <v>       0.36842105       0.47368421       0.25000000 </v>
   <v>       0.42105263       0.47368421       0.25000000 </v>
   <v>       0.47368421       0.47368421       0.25000000 </v>
   <v>      -0.47368421       0.47368421       0.25000000 </v>
   <v>      -0.42105263       0.47368421       0.25000000 </v>
   <v>      -0.36842105       0.47368421       0.25000000 </v>
   <v>      -0.31578947       0.47368421       0.25000000 </v>
   <v>      -0.26315789       0.47368421       0.25000000 </v>
   <v>      -0.21052632       0.47368421       0.25000000 </v>
   <v>      -0.15789474       0.47368421       0.25000000 </v>
   <v>      -0.10526316       0.47368421       0.25000000 </v>
   <v>      -0.05263158       0.47368421       0.25000000 </v>
   <v>      -0.00000000      -0.47368421       0.25000000 </v>
   <v>       0.05263158      -0.47368421       0.25000000 </v>
   <v>       0.10526316      -0.47368421       0.25000000 </v>
   <v>       0.15789474      -0.47368421       0.25000000 </v>
   <v>       0.21052632      -0.47368421       0.25000000 </v>
   <v>       0.26315789      -0.47368421       0.25000000 </v>
   <v>       0.31578947      -0.47368421       0.25000000 </v>
   <v>       0.36842105      -0.47368421       0.25000000 </v>
   <v>       0.42105263      -0.47368421       0.25000000 </v>
   <v>       0.47368421      -0.47368421       0.25000000 </v>
   <v>      -0.47368421      -0.47368421       0.25000000 </v>
   <v>      -0.42105263      -0.47368421       0.25000000 </v>
   <v>      -0.36842105      -0.47368421       0.25000000 </v>
   <v>      -0.31578947      -0.47368421       0.25000000 </v>
   <v>      -0.26315789      -0.47368421       0.25000000 </v>
   <v>      -0.21052632      -0.47368421       0.25000000 </v>
   <v>      -0.15789474      -0.47368421       0.25000000 </v>
   <v>      -0.10526316      -0.47368421       0.25000000 </v>
   <v>      -0.05263158      -0.47368421       0.25000000 </v>
   <v>       0.00000000      -0.42105263       0.25000000 </v>
   <v>       0.05263158      -0.42105263       0.25000000 </v>
   <v>       0.10526316      -0.42105263       0.25000000 </v>
   <v>       0.15789474      -0.42105263       0.25000000 </v>
   <v>       0.21052632      -0.42105263       0.25000000 </v>
   <v>       0.26315789      -0.42105263       0.25000000 </v>
   <v>       0.31578947      -0.42105263       0.25000000 </v>
   <v>       0.36842105      -0.42105263       0.25000000 </v>
   <v>       0.42105263      -0.42105263       0.25000000 </v>
   <v>       0.47368421      -0.42105263       0.25000000 </v>
   <v>      -0.47368421      -0.42105263       0.25000000 </v>
   <v>      -0.42105263      -0.42105263       0.25000000 </v>
   <v>      -0.36842105      -0.42105263       0.25000000 </v>
   <v>      -0.31578947      -0.42105263       0.25000000 </v>
   <v>      -0.26315789      -0.42105263       0.25000000 </v>
   <v>      -0.21052632      -0.42105263       0.25000000 </v>
   <v>      -0.15789474      -0.42105263       0.25000000 </v>
   <v>      -0.10526316      -0.42105263       0.25000000 </v>
   <v>      -0.05263158      -0.42105263       0.25000000 </v>
   <v>       0.00000000      -0.36842105       0.25000000 </v>
   <v>       0.05263158      -0.36842105       0.25000000 </v>
   <v>       0.10526316      -0.36842105       0.25000000 </v>
   <v>       0.15789474      -0.36842105       0.25000000 </v>
   <v>       0.21052632      -0.36842105       0.25000000 </v>
   <v>       0.26315789      -0.36842105       0.25000000 </v>
   <v>       0.31578947      -0.36842105       0.25000000 </v>
   <v>       0.36842105      -0.36842105       0.25000000 </v>
   <v>       0.42105263      -0.36842105       0.25000000 </v>
   <v>       0.47368421      -0.36842105       0.25000000 </v>
   <v>      -0.47368421      -0.36842105       0.25000000 </v>
   <v>      -0.42105263      -0.36842105       0.25000000 </v>
   <v>      -0.36842105      -0.36842105       0.25000000 </v>
   <v>      -0.31578947      -0.36842105       0.25000000 </v>
   <v>      -0.26315789      -0.36842105       0.25000000 </v>
   <v>      -0.21052632      -0.36842105       0.25000000 </v>
   <v>      -0.15789474      -0.36842105       0.25000000 </v>
   <v>      -0.10526316      -0.36842105       0.25000000 </v>
   <v>      -0.05263158      -0.36842105       0.25000000 </v>
   <v>       0.00000000      -0.31578947       0.25000000 </v>
   <v>       0.05263158      -0.31578947       0.25000000 </v>
   <v>       0.10526316      -0.31578947       0.25000000 </v>
   <v>       0.15789474      -0.31578947       0.25000000 </v>
   <v>       0.21052632      -0.31578947       0.25000000 </v>
   <v>       0.26315789      -0.31578947       0.25000000 </v>
   <v>       0.31578947      -0.31578947       0.25000000 </v>
   <v>       0.36842105      -0.31578947       0.25000000 </v>
   <v>       0.42105263      -0.31578947       0.25000000 </v>
   <v>       0.47368421      -0.31578947       0.25000000 </v>
   <v>      -0.47368421      -0.31578947       0.25000000 </v>
   <v>      -0.42105263      -0.31578947       0.25000000 </v>
   <v>      -0.36842105      -0.31578947       0.25000000 </v>
   <v>      -0.31578947      -0.31578947       0.25000000 </v>
   <v>      -0.26315789      -0.31578947       0.25000000 </v>
   <v>      -0.21052632      -0.31578947       0.25000000 </v>
   <v>      -0.15789474      -0.31578947       0.25000000 </v>
   <v>      -0.10526316      -0.31578947       0.25000000 </v>
   <v>      -0.05263158      -0.31578947       0.25000000 </v>
   <v>       0.00000000      -0.26315789       0.25000000 </v>
   <v>       0.05263158      -0.26315789       0.25000000 </v>
   <v>       0.10526316      -0.26315789       0.25000000 </v>
   <v>       0.15789474      -0.26315789       0.25000000 </v>
   <v>       0.21052632      -0.26315789       0.25000000 </v>
   <v>       0.26315789      -0.26315789       0.25000000 </v>
   <v>       0.31578947      -0.26315789       0.25000000 </v>
   <v>       0.36842105      -0.26315789       0.25000000 </v>
   <v>       0.42105263      -0.26315789       0.25000000 </v>
   <v>       0.47368421      -0.26315789       0.25000000 </v>
   <v>      -0.47368421      -0.26315789       0.25000000 </v>
   <v>      -0.42105263      -0.26315789       0.25000000 </v>
   <v>      -0.36842105      -0.26315789       0.25000000 </v>
   <v>      -0.31578947      -0.26315789       0.25000000 </v>
   <v>      -0.26315789      -0.26315789       0.25000000 </v>
   <v>      -0.21052632      -0.26315789       0.25000000 </v>
   <v>      -0.15789474      -0.26315789       0.25000000 </v>
   <v>      -0.10526316      -0.26315789       0.25000000 </v>
   <v>      -0.05263158      -0.26315789       0.25000000 </v>
   <v>       0.00000000      -0.21052632       0.25000000 </v>
   <v>       0.05263158      -0.21052632       0.25000000 </v>
   <v>       0.10526316      -0.21052632       0.25000000 </v>
   <v>       0.15789474      -0.21052632       0.25000000 </v>
   <v>       0.21052632      -0.21052632       0.25000000 </v>
   <v>       0.26315789      -0.21052632       0.25000000 </v>
   <v>       0.31578947      -0.21052632       0.25000000 </v>
   <v>       0.36842105      -0.21052632       0.25000000 </v>
   <v>       0.42105263      -0.21052632       0.25000000 </v>
   <v>       0.47368421      -0.21052632       0.25000000 </v>
   <v>      -0.47368421      -0.21052632       0.25000000 </v>
   <v>      -0.42105263      -0.21052632       0.25000000 </v>
   <v>      -0.36842105      -0.21052632       0.25000000 </v>
   <v>      -0.31578947      -0.21052632       0.25000000 </v>
   <v>      -0.26315789      -0.21052632       0.25000000 </v>
   <v>      -0.21052632      -0.21052632       0.25000000 </v>
   <v>      -0.15789474      -0.21052632       0.25000000 </v>
   <v>      -0.10526316      -0.21052632       0.25000000 </v>
   <v>      -0.05263158      -0.21052632       0.25000000 </v>
   <v>       0.00000000      -0.15789474       0.25000000 </v>
   <v>       0.05263158      -0.15789474       0.25000000 </v>
   <v>       0.10526316      -0.15789474       0.25000000 </v>
   <v>       0.15789474      -0.15789474       0.25000000 </v>
   <v>       0.21052632      -0.15789474       0.25000000 </v>
   <v>       0.26315789      -0.15789474       0.25000000 </v>
   <v>       0.31578947      -0.15789474       0.25000000 </v>
   <v>       0.36842105      -0.15789474       0.25000000 </v>
   <v>       0.42105263      -0.15789474       0.25000000 </v>
   <v>       0.47368421      -0.15789474       0.25000000 </v>
   <v>      -0.47368421      -0.15789474       0.25000000 </v>
   <v>      -0.42105263      -0.15789474       0.25000000 </v>
   <v>      -0.36842105      -0.15789474       0.25000000 </v>
   <v>      -0.31578947      -0.15789474       0.25000000 </v>
   <v>      -0.26315789      -0.15789474       0.25000000 </v>
   <v>      -0.21052632      -0.15789474       0.25000000 </v>
   <v>      -0.15789474      -0.15789474       0.25000000 </v>
   <v>      -0.10526316      -0.15789474       0.25000000 </v>
   <v>      -0.05263158      -0.15789474       0.25000000 </v>
   <v>       0.00000000      -0.10526316       0.25000000 </v>
   <v>       0.05263158      -0.10526316       0.25000000 </v>
   <v>       0.10526316      -0.10526316       0.25000000 </v>
   <v>       0.15789474      -0.10526316       0.25000000 </v>
   <v>       0.21052632      -0.10526316       0.25000000 </v>
   <v>       0.26315789      -0.10526316       0.25000000 </v>
   <v>       0.31578947      -0.10526316       0.25000000 </v>
   <v>       0.36842105      -0.10526316       0.25000000 </v>
   <v>       0.42105263      -0.10526316       0.25000000 </v>
   <v>       0.47368421      -0.10526316       0.25000000 </v>
   <v>      -0.47368421      -0.10526316       0.25000000 </v>
   <v>      -0.42105263      -0.10526316       0.25000000 </v>
   <v>      -0.36842105      -0.10526316       0.25000000 </v>
   <v>      -0.31578947      -0.10526316       0.25000000 </v>
   <v>      -0.26315789      -0.10526316       0.25000000 </v>
   <v>      -0.21052632      -0.10526316       0.25000000 </v>
   <v>      -0.15789474      -0.10526316       0.25000000 </v>
   <v>      -0.10526316      -0.10526316       0.25000000 </v>
   <v>      -0.05263158      -0.10526316       0.25000000 </v>
[...]
       <r>   32.2499    0.0000 </r>
       <r>   32.2562    0.0000 </r>
      </set>
      <set comment="kpoint 2163">
       <r>    3.3467    1.0000 </r>
       <r>    3.3478    1.0000 </r>
       <r>    5.0361    1.0000 </r>
       <r>    5.0371    1.0000 </r>
       <r>    6.0347    1.0000 </r>
       <r>    6.0355    1.0000 </r>
       <r>    7.5009    1.0000 </r>
       <r>    7.5024    1.0000 </r>
       <r>   10.7526    0.0000 </r>
       <r>   10.7538    0.0000 </r>
       <r>   12.8281    0.0000 </r>
       <r>   12.8299    0.0000 </r>
       <r>   20.1480    0.0000 </r>
       <r>   20.1518    0.0000 </r>
       <r>   22.9966    0.0000 </r>
       <r>   23.0017    0.0000 </r>
       <r>   26.4145    0.0000 </r>
       <r>   26.4208    0.0000 </r>
       <r>   32.4895    0.0000 </r>
       <r>   32.4953    0.0000 </r>
      </set>
      <set comment="kpoint 2164">
       <r>    3.3468    1.0000 </r>
       <r>    3.3480    1.0000 </r>
       <r>    5.0360    1.0000 </r>
       <r>    5.0367    1.0000 </r>
       <r>    6.0352    1.0000 </r>
       <r>    6.0359    1.0000 </r>
       <r>    7.5009    1.0000 </r>
       <r>    7.5021    1.0000 </r>
       <r>   10.7524    0.0000 </r>
       <r>   10.7536    0.0000 </r>
       <r>   12.8281    0.0000 </r>
       <r>   12.8301    0.0000 </r>
       <r>   20.1483    0.0000 </r>
       <r>   20.1553    0.0000 </r>
       <r>   22.9963    0.0000 </r>
       <r>   22.9980    0.0000 </r>
       <r>   26.4141    0.0000 </r>
       <r>   26.4223    0.0000 </r>
       <r>   32.4898    0.0000 </r>
       <r>   32.4934    0.0000 </r>
      </set>
      <set comment="kpoint 2165">
       <r>    3.1161    1.0000 </r>
       <r>    3.1171    1.0000 </r>
       <r>    4.7531    1.0000 </r>
       <r>    4.7539    1.0000 </r>
       <r>    6.5743    1.0000 </r>
       <r>    6.5755    1.0000 </r>
       <r>    7.8331    1.0000 </r>
       <r>    7.8341    1.0000 </r>
       <r>   10.6906    0.0000 </r>
       <r>   10.6919    0.0000 </r>
       <r>   12.6750    0.0000 </r>
       <r>   12.6770    0.0000 </r>
       <r>   19.5067    0.0000 </r>
       <r>   19.5142    0.0000 </r>
       <r>   23.7804    0.0000 </r>
       <r>   23.7812    0.0000 </r>
       <r>   26.1552    0.0000 </r>
       <r>   26.1652    0.0000 </r>
       <r>   32.2501    0.0000 </r>
       <r>   32.2504    0.0000 </r>
      </set>
      <set comment="kpoint 2166">
       <r>    2.8198    1.0000 </r>
       <r>    2.8206    1.0000 </r>
       <r>    4.4996    1.0000 </r>
       <r>    4.5006    1.0000 </r>
       <r>    7.2056    1.0000 </r>
       <r>    7.2071    1.0000 </r>
       <r>    8.3692    1.0000 </r>
       <r>    8.3713    1.0000 </r>
       <r>   10.6124    0.0000 </r>
       <r>   10.6140    0.0000 </r>
       <r>   12.3965    0.0000 </r>
       <r>   12.3987    0.0000 </r>
       <r>   18.7382    0.0000 </r>
       <r>   18.7452    0.0000 </r>
       <r>   24.7989    0.0000 </r>
       <r>   24.8000    0.0000 </r>
       <r>   25.7988    0.0000 </r>
       <r>   25.8102    0.0000 </r>
       <r>   31.3843    0.0000 </r>
       <r>   35.1669    0.0000 </r>
      </set>
      <set comment="kpoint 2167">
       <r>    2.5937    1.0000 </r>
       <r>    2.5944    1.0000 </r>
       <r>    4.3299    1.0000 </r>
       <r>    4.3311    1.0000 </r>
       <r>    7.7326    1.0000 </r>
       <r>    7.7345    1.0000 </r>
       <r>    8.8491    1.0000 </r>
       <r>    8.8517    1.0000 </r>
       <r>   10.6714    0.0000 </r>
       <r>   10.6731    0.0000 </r>
       <r>   12.0581    0.0000 </r>
       <r>   12.0604    0.0000 </r>
       <r>   18.0764    0.0000 </r>
       <r>   18.0830    0.0000 </r>
       <r>   25.4791    0.0000 </r>
       <r>   25.4909    0.0000 </r>
       <r>   25.7686    0.0000 </r>
       <r>   25.7699    0.0000 </r>
       <r>   30.3551    0.0000 </r>
       <r>   30.3568    0.0000 </r>
      </set>
     </set>
    </set>
   </array>
  </eigenvalues>
  <separator name="orbital magnetization" >
   <v name="MAGDIPOLOUT">      0.00000000      0.00000000      0.00000000</v>
  </separator>
  <dos>
   <i name="efermi">      9.99706363 </i>
   <total>
    <array>
     <dimension dim="1">gridpoints</dimension>
     <dimension dim="2">spin</dimension>
     <field>energy</field>
     <field>total</field>
     <field>integrated</field>
     <set>
      <set comment="spin 1">
       <r>    -2.8102     0.0000     0.0000 </r>
       <r>    -2.6663     0.0000     0.0000 </r>
       <r>    -2.5224     0.0000     0.0000 </r>
       <r>    -2.3785     0.0000     0.0000 </r>
       <r>    -2.2346     0.0000     0.0000 </r>
       <r>    -2.0907     0.0000     0.0000 </r>
       <r>    -1.9468     0.0000     0.0000 </r>
       <r>    -1.8029     0.0000     0.0000 </r>
       <r>    -1.6590     0.0000     0.0000 </r>
       <r>    -1.5151     0.0000     0.0000 </r>
       <r>    -1.3712     0.0000     0.0000 </r>
       <r>    -1.2273     0.0000     0.0000 </r>
       <r>    -1.0834     0.0000     0.0000 </r>
       <r>    -0.9395     0.0000     0.0000 </r>
       <r>    -0.7956     0.0089     0.0002 </r>
       <r>    -0.6517     0.0433     0.0049 </r>
       <r>    -0.5078     0.0685     0.0129 </r>
       <r>    -0.3639     0.0799     0.0236 </r>
       <r>    -0.2200     0.0957     0.0362 </r>
       <r>    -0.0761     0.1098     0.0512 </r>
       <r>     0.0678     0.1217     0.0678 </r>
       <r>     0.2117     0.1352     0.0863 </r>
       <r>     0.3557     0.1500     0.1068 </r>
       <r>     0.4996     0.1623     0.1293 </r>
       <r>     0.6435     0.1766     0.1536 </r>
       <r>     0.7874     0.1921     0.1801 </r>
       <r>     0.9313     0.2088     0.2090 </r>
       <r>     1.0752     0.2269     0.2403 </r>
       <r>     1.2191     0.2465     0.2743 </r>
       <r>     1.3630     0.2682     0.3113 </r>
       <r>     1.5069     0.2963     0.3519 </r>
       <r>     1.6508     0.3279     0.3968 </r>
       <r>     1.7947     0.3658     0.4466 </r>
       <r>     1.9386     0.4234     0.5032 </r>
       <r>     2.0825     0.5088     0.5695 </r>
       <r>     2.2264     0.7669     0.6577 </r>
       <r>     2.3703     1.6472     0.8422 </r>
       <r>     2.5142     1.6558     1.0782 </r>
       <r>     2.6581     1.6809     1.3147 </r>
       <r>     2.8020     1.7401     1.5599 </r>
       <r>     2.9459     2.1442     1.8441 </r>
       <r>     3.0898     2.1472     2.1538 </r>
       <r>     3.2337     2.2143     2.4660 </r>
       <r>     3.3776     2.4156     2.7928 </r>
       <r>     3.5215     2.7265     3.1756 </r>
       <r>     3.6654     1.8644     3.4837 </r>
       <r>     3.8094     1.9929     3.7746 </r>
       <r>     3.9533     1.5018     4.0226 </r>
       <r>     4.0972     1.5574     4.2262 </r>
       <r>     4.2411     2.9823     4.6381 </r>
       <r>     4.3850     2.4344     5.0298 </r>
       <r>     4.5289     1.9925     5.3135 </r>
       <r>     4.6728     1.9888     5.5953 </r>
       <r>     4.8167     2.6345     5.9291 </r>
       <r>     4.9606     3.1590     6.3598 </r>
       <r>     5.1045     3.0951     6.8221 </r>
       <r>     5.2484     2.1002     7.1922 </r>
       <r>     5.3923     1.3125     7.4486 </r>
       <r>     5.5362     1.0147     7.6049 </r>
       <r>     5.6801     2.0073     7.7926 </r>
       <r>     5.8240     3.8090     8.1849 </r>
       <r>     5.9679     3.9167     8.7363 </r>
       <r>     6.1118     3.1951     9.2117 </r>
       <r>     6.2557     3.0982     9.6648 </r>
       <r>     6.3996     2.8753    10.0964 </r>
       <r>     6.5435     3.1129    10.5239 </r>
       <r>     6.6874     3.1861    10.9752 </r>
       <r>     6.8313     3.0144    11.4145 </r>
       <r>     6.9752     3.3698    11.8792 </r>
       <r>     7.1191     3.8632    12.4070 </r>
       <r>     7.2631     2.8665    12.8703 </r>
       <r>     7.4070     2.5056    13.2695 </r>
       <r>     7.5509     2.5386    13.6186 </r>
       <r>     7.6948     1.9391    13.9314 </r>
       <r>     7.8387     1.7772    14.1952 </r>
       <r>     7.9826     1.8796    14.4594 </r>
       <r>     8.1265     1.7406    14.7246 </r>
       <r>     8.2704     1.7062    14.9717 </r>
       <r>     8.4143     1.6868    15.2146 </r>
       <r>     8.5582     1.6406    15.4517 </r>
       <r>     8.7021     1.5576    15.6821 </r>
       <r>     8.8460     1.5199    15.9022 </r>
       <r>     8.9899     1.5362    16.1224 </r>
       <r>     9.1338     1.5392    16.3439 </r>
       <r>     9.2777     1.5525    16.5656 </r>
       <r>     9.4216     1.8095    16.8018 </r>
       <r>     9.5655     1.7642    17.0507 </r>
       <r>     9.7094     1.9841    17.3216 </r>
       <r>     9.8533     2.3902    17.6477 </r>
       <r>     9.9972     2.4680    18.0004 </r>
       <r>    10.1411     2.7335    18.3709 </r>
       <r>    10.2850     3.2501    18.7885 </r>
       <r>    10.4289     3.4785    19.2745 </r>
       <r>    10.5728     4.1058    19.8097 </r>
       <r>    10.7168     3.5150    20.3643 </r>
       <r>    10.8607     2.6221    20.8152 </r>
       <r>    11.0046     1.5311    21.1402 </r>
       <r>    11.1485     0.6492    21.2615 </r>
       <r>    11.2924     0.6012    21.3506 </r>
       <r>    11.4363     0.5822    21.4357 </r>
       <r>    11.5802     0.5769    21.5190 </r>
       <r>    11.7241     0.5759    21.6019 </r>
       <r>    11.8680     0.5751    21.6847 </r>
       <r>    12.0119     0.5732    21.7673 </r>
       <r>    12.1558     0.5718    21.8497 </r>
       <r>    12.2997     0.5698    21.9319 </r>
       <r>    12.4436     0.5687    22.0137 </r>
       <r>    12.5875     0.5613    22.0953 </r>
       <r>    12.7314     0.5450    22.1750 </r>
       <r>    12.8753     0.5436    22.2528 </r>
       <r>    13.0192     0.5199    22.3304 </r>
       <r>    13.1631     0.5106    22.4046 </r>
       <r>    13.3070     0.5000    22.4773 </r>
       <r>    13.4509     0.4905    22.5486 </r>
       <r>    13.5948     0.4882    22.6187 </r>
       <r>    13.7387     0.4948    22.6901 </r>
       <r>    13.8826     0.4757    22.7595 </r>
       <r>    14.0265     0.4716    22.8276 </r>
       <r>    14.1705     0.4697    22.8954 </r>
       <r>    14.3144     0.5160    22.9644 </r>
       <r>    14.4583     0.4860    23.0345 </r>
       <r>    14.6022     0.5570    23.1079 </r>
       <r>    14.7461     0.6151    23.1932 </r>
       <r>    14.8900     0.5523    23.2784 </r>
       <r>    15.0339     0.5208    23.3552 </r>
       <r>    15.1778     0.4897    23.4280 </r>
       <r>    15.3217     0.4534    23.4957 </r>
       <r>    15.4656     0.4225    23.5586 </r>
       <r>    15.6095     0.4034    23.6179 </r>
       <r>    15.7534     0.3872    23.6748 </r>
       <r>    15.8973     0.3682    23.7293 </r>
       <r>    16.0412     0.3452    23.7810 </r>
       <r>    16.1851     0.3057    23.8270 </r>
       <r>    16.3290     0.2941    23.8702 </r>
       <r>    16.4729     0.2789    23.9115 </r>
       <r>    16.6168     0.2949    23.9510 </r>
       <r>    16.7607     0.3102    23.9943 </r>
       <r>    16.9046     0.3152    24.0405 </r>
       <r>    17.0485     0.2617    24.0822 </r>
       <r>    17.1924     0.2261    24.1162 </r>
       <r>    17.3363     0.5208    24.1640 </r>
       <r>    17.4803     0.9574    24.2683 </r>
       <r>    17.6242     1.2468    24.4356 </r>
       <r>    17.7681     1.3532    24.6274 </r>
       <r>    17.9120     1.1259    24.8086 </r>
       <r>    18.0559     0.9503    24.9580 </r>
       <r>    18.1998     0.7686    25.0814 </r>
       <r>    18.3437     0.7151    25.1872 </r>
       <r>    18.4876     0.6094    25.2801 </r>
       <r>    18.6315     0.6309    25.3690 </r>
       <r>    18.7754     0.6606    25.4617 </r>
       <r>    18.9193     0.6741    25.5581 </r>
       <r>    19.0632     0.7028    25.6566 </r>
       <r>    19.2071     0.7941    25.7652 </r>
       <r>    19.3510     0.7677    25.8785 </r>
       <r>    19.4949     0.7394    25.9859 </r>
       <r>    19.6388     0.7306    26.0909 </r>
       <r>    19.7827     0.7568    26.1983 </r>
       <r>    19.9266     0.6870    26.3033 </r>
       <r>    20.0705     0.6012    26.3953 </r>
       <r>    20.2144     0.5724    26.4789 </r>
       <r>    20.3583     0.5896    26.5621 </r>
       <r>    20.5022     0.6605    26.6509 </r>
       <r>    20.6461     0.7495    26.7542 </r>
       <r>    20.7900     0.7739    26.8644 </r>
       <r>    20.9340     0.7344    26.9733 </r>
       <r>    21.0779     0.7227    27.0781 </r>
       <r>    21.2218     0.7196    27.1817 </r>
       <r>    21.3657     0.7168    27.2851 </r>
       <r>    21.5096     0.7132    27.3880 </r>
       <r>    21.6535     0.7134    27.4907 </r>
       <r>    21.7974     0.7064    27.5933 </r>
       <r>    21.9413     0.6996    27.6946 </r>
       <r>    22.0852     0.6974    27.7952 </r>
       <r>    22.2291     0.6882    27.8949 </r>
       <r>    22.3730     0.6783    27.9931 </r>
       <r>    22.5169     0.6762    28.0904 </r>
       <r>    22.6608     0.6794    28.1884 </r>
       <r>    22.8047     0.6699    28.2853 </r>
       <r>    22.9486     0.6908    28.3830 </r>
       <r>    23.0925     0.7087    28.4835 </r>
       <r>    23.2364     0.7366    28.5876 </r>
       <r>    23.3803     0.7632    28.6956 </r>
       <r>    23.5242     0.7938    28.8075 </r>
       <r>    23.6681     0.9424    28.9299 </r>
       <r>    23.8120     1.0502    29.0744 </r>
       <r>    23.9559     1.1224    29.2305 </r>
       <r>    24.0998     1.2224    29.3989 </r>
       <r>    24.2437     1.2731    29.5786 </r>
       <r>    24.3877     1.3031    29.7644 </r>
       <r>    24.5316     1.3480    29.9537 </r>
       <r>    24.6755     1.4957    30.1576 </r>
       <r>    24.8194     1.6572    30.3865 </r>
       <r>    24.9633     1.7711    30.6404 </r>
       <r>    25.1072     1.5337    30.8738 </r>
       <r>    25.2511     1.3884    31.0858 </r>
       <r>    25.3950     1.3299    31.2794 </r>
       <r>    25.5389     1.2586    31.4674 </r>
       <r>    25.6828     1.3428    31.6535 </r>
       <r>    25.8267     1.3339    31.8458 </r>
       <r>    25.9706     1.3706    32.0392 </r>
       <r>    26.1145     1.4820    32.2434 </r>
       <r>    26.2584     1.5584    32.4657 </r>
       <r>    26.4023     1.4165    32.6847 </r>
       <r>    26.5462     1.3416    32.8805 </r>
       <r>    26.6901     1.3880    33.0762 </r>
       <r>    26.8340     1.3399    33.2741 </r>
       <r>    26.9779     1.3239    33.4639 </r>
       <r>    27.1218     1.3977    33.6577 </r>
       <r>    27.2657     1.4692    33.8667 </r>
       <r>    27.4096     1.4095    34.0737 </r>
       <r>    27.5535     1.4888    34.2843 </r>
       <r>    27.6974     1.4137    34.4990 </r>
       <r>    27.8414     1.2267    34.6843 </r>
       <r>    27.9853     1.2246    34.8593 </r>
       <r>    28.1292     1.2268    35.0387 </r>
       <r>    28.2731     1.0633    35.2021 </r>
       <r>    28.4170     0.9503    35.3466 </r>
       <r>    28.5609     0.8733    35.4770 </r>
       <r>    28.7048     0.8329    35.5990 </r>
       <r>    28.8487     0.8450    35.7178 </r>
       <r>    28.9926     0.9248    35.8454 </r>
       <r>    29.1365     0.9539    35.9801 </r>
       <r>    29.2804     1.0267    36.1202 </r>
       <r>    29.4243     1.0879    36.2759 </r>
       <r>    29.5682     0.9035    36.4206 </r>
       <r>    29.7121     0.8145    36.5435 </r>
       <r>    29.8560     0.7693    36.6568 </r>
       <r>    29.9999     0.7714    36.7669 </r>
       <r>    30.1438     0.8931    36.8873 </r>
       <r>    30.2877     0.8757    37.0142 </r>
       <r>    30.4316     0.9560    37.1448 </r>
       <r>    30.5755     1.0221    37.2865 </r>
       <r>    30.7194     1.1433    37.4421 </r>
       <r>    30.8633     1.1759    37.6109 </r>
       <r>    31.0072     1.0661    37.7757 </r>
       <r>    31.1511     0.9211    37.9180 </r>
       <r>    31.2951     0.8074    38.0397 </r>
       <r>    31.4390     0.8140    38.1557 </r>
       <r>    31.5829     0.8548    38.2780 </r>
       <r>    31.7268     0.8579    38.3998 </r>
       <r>    31.8707     0.8935    38.5276 </r>
       <r>    32.0146     0.8774    38.6545 </r>
       <r>    32.1585     0.8535    38.7793 </r>
       <r>    32.3024     0.8066    38.8987 </r>
       <r>    32.4463     0.7814    39.0121 </r>
       <r>    32.5902     0.6790    39.1180 </r>
       <r>    32.7341     0.6042    39.2099 </r>
       <r>    32.8780     0.5685    39.2935 </r>
       <r>    33.0219     0.5632    39.3745 </r>
       <r>    33.1658     0.5423    39.4550 </r>
       <r>    33.3097     0.4863    39.5296 </r>
       <r>    33.4536     0.4141    39.5943 </r>
       <r>    33.5975     0.3615    39.6500 </r>
       <r>    33.7414     0.3217    39.6990 </r>
       <r>    33.8853     0.2746    39.7422 </r>
       <r>    34.0292     0.2354    39.7787 </r>
       <r>    34.1731     0.2129    39.8108 </r>
       <r>    34.3170     0.1963    39.8402 </r>
       <r>    34.4609     0.1859    39.8675 </r>
       <r>    34.6048     0.1716    39.8934 </r>
       <r>    34.7488     0.1672    39.9175 </r>
       <r>    34.8927     0.1702    39.9438 </r>
       <r>    35.0366     0.1288    39.9657 </r>
       <r>    35.1805     0.0729    39.9798 </r>
       <r>    35.3244     0.0476    39.9884 </r>
       <r>    35.4683     0.0250    39.9936 </r>
       <r>    35.6122     0.0111    39.9959 </r>
       <r>    35.7561     0.0068    39.9972 </r>
       <r>    35.9000     0.0045    39.9980 </r>
       <r>    36.0439     0.0033    39.9985 </r>
       <r>    36.1878     0.0024    39.9990 </r>
       <r>    36.3317     0.0018    39.9992 </r>
       <r>    36.4756     0.0013    39.9995 </r>
       <r>    36.6195     0.0009    39.9996 </r>
       <r>    36.7634     0.0007    39.9997 </r>
       <r>    36.9073     0.0005    39.9998 </r>
       <r>    37.0512     0.0004    39.9999 </r>
       <r>    37.1951     0.0002    39.9999 </r>
       <r>    37.3390     0.0002    40.0000 </r>
       <r>    37.4829     0.0001    40.0000 </r>
       <r>    37.6268     0.0001    40.0000 </r>
       <r>    37.7707     0.0000    40.0000 </r>
       <r>    37.9146     0.0000    40.0000 </r>
       <r>    38.0586     0.0000    40.0000 </r>
       <r>    38.2025     0.0000    40.0000 </r>
       <r>    38.3464     0.0000    40.0000 </r>
       <r>    38.4903     0.0000    40.0000 </r>
       <r>    38.6342     0.0000    40.0000 </r>
       <r>    38.7781     0.0000    40.0000 </r>
       <r>    38.9220     0.0000    40.0000 </r>
       <r>    39.0659     0.0000    40.0000 </r>
       <r>    39.2098     0.0000    40.0000 </r>
       <r>    39.3537     0.0000    40.0000 </r>
       <r>    39.4976     0.0000    40.0000 </r>
       <r>    39.6415     0.0000    40.0000 </r>
       <r>    39.7854     0.0000    40.0000 </r>
       <r>    39.9293     0.0000    40.0000 </r>
       <r>    40.0732     0.0000    40.0000 </r>
       <r>    40.2171     0.0000    40.0000 </r>
       <r>    40.3610     0.0000    40.0000 </r>
      </set>
     </set>
    </array>
   </total>
  </dos>
 </calculation>
 <structure name="finalpos" >
  <crystal>
   <varray name="basis" >
    <v>       2.74724610      -0.00052347       0.00181563 </v>
    <v>      -1.37370147       2.37913173      -0.00290353 </v>
    <v>      -0.00261964       0.00547879       4.46605652 </v>
   </varray>
   <i name="volume">     29.18724496 </i>
   <varray name="rec_basis" >
    <v>       0.36404096       0.21019579      -0.00004433 </v>
    <v>       0.00008044       0.42036722      -0.00051564 </v>
    <v>      -0.00014795       0.00018784       0.22391087 </v>
   </varray>
  </crystal>
  <varray name="positions" >
   <v>       0.99911200       0.99939901       0.00052587 </v>
   <v>       0.66580600       0.33269399       0.50053613 </v>
  </varray>
 </structure>
</modeling>
