       N       E                     dE             d eps       ncg     rms          rms(c)
DAV:   1     0.112830059678E+05    0.11283E+05   -0.55466E+05 95400   0.810E+02
DAV:   2    -0.143892161871E+04   -0.12722E+05   -0.12145E+05 95800   0.337E+02
DAV:   3    -0.241086079423E+04   -0.97194E+03   -0.89392E+03135240   0.780E+01
DAV:   4    -0.248226631865E+04   -0.71406E+02   -0.68976E+02132120   0.209E+01
DAV:   5    -0.248511666496E+04   -0.28503E+01   -0.27944E+01139980   0.332E+00    0.779E+01
RMM:   6    -0.241641996422E+04    0.68697E+02   -0.68053E+02105879   0.245E+01    0.623E+01
RMM:   7    -0.236999313795E+04    0.46427E+02   -0.35220E+02 97780   0.172E+01    0.455E+01
RMM:   8    -0.233984401128E+04    0.30149E+02   -0.15700E+02 97690   0.114E+01    0.321E+01
RMM:   9    -0.231563278906E+04    0.24211E+02   -0.34475E+01 98738   0.532E+00    0.620E+00
RMM:  10    -0.231544306662E+04    0.18972E+00   -0.73597E+00136677   0.152E+00    0.358E+00
RMM:  11    -0.231534872583E+04    0.94341E-01   -0.13271E+00121716   0.744E-01    0.407E+00
RMM:  12    -0.231489551215E+04    0.45321E+00   -0.55078E-01114264   0.636E-01    0.206E+00
RMM:  13    -0.231477999451E+04    0.11552E+00   -0.25686E-01112225   0.438E-01    0.136E+00
RMM:  14    -0.231478451123E+04   -0.45167E-02   -0.16256E-01116949   0.295E-01    0.175E+00
RMM:  15    -0.231472801919E+04    0.56492E-01   -0.66431E-02117442   0.175E-01    0.975E-01
RMM:  16    -0.231471385470E+04    0.14164E-01   -0.23843E-02110930   0.126E-01    0.466E-01
RMM:  17    -0.231471100259E+04    0.28521E-02   -0.14945E-02120933   0.858E-02    0.209E-01
RMM:  18    -0.231471173567E+04   -0.73308E-03   -0.95976E-03130365   0.630E-02    0.220E-01
RMM:  19    -0.231471152514E+04    0.21053E-03   -0.15883E-03133721   0.215E-02    0.196E-01
RMM:  20    -0.231471105843E+04    0.46671E-03   -0.39510E-04117495   0.139E-02    0.137E-01
RMM:  21    -0.231471066544E+04    0.39299E-03   -0.81940E-04118021   0.211E-02    0.457E-02
RMM:  22    -0.231471061900E+04    0.46435E-04   -0.32442E-04135048   0.111E-02
   1 F= -.23147106E+04 E0= -.23147183E+04  d E =0.229176E-01
