 256 256   0   0
  0.1418917E+02  0.1588033E-08  0.1692661E-08  0.1693229E-08  0.5000000E-15
  1.000000000000000E-004
  CAR 
 Ir_Ru                                   
     14.26598534     -1.29174682  301      9.45686921      1.00000000
     -1.292  0.0000E+00  0.0000E+00
     -1.240  0.0000E+00  0.0000E+00
     -1.188  0.0000E+00  0.0000E+00
     -1.136 -0.2751E-30 -0.1427E-31
     -1.084 -0.1255E-26 -0.6511E-28
     -1.032 -0.3331E-23 -0.1728E-24
     -0.981 -0.5137E-20 -0.2666E-21
     -0.929 -0.4599E-17 -0.2388E-18
     -0.877 -0.2329E-14 -0.1210E-15
     -0.825 -0.6941E-12 -0.3612E-13
     -0.773 -0.1199E-09 -0.6253E-11
     -0.721 -0.1192E-07 -0.6243E-09
     -0.669 -0.6794E-06 -0.3586E-07
     -0.618 -0.2208E-04 -0.1181E-05
     -0.566 -0.4062E-03 -0.2225E-04
     -0.514 -0.4189E-02 -0.2395E-03
     -0.462 -0.2396E-01 -0.1482E-02
     -0.410 -0.7456E-01 -0.5349E-02
     -0.358 -0.1025E+00 -0.1066E-01
     -0.306  0.1978E+00 -0.4068E-03
     -0.255  0.1613E+01  0.8323E-01
     -0.203  0.4363E+01  0.3095E+00
     -0.151  0.6343E+01  0.6385E+00
     -0.099  0.6424E+01  0.9716E+00
     -0.047  0.6943E+01  0.1332E+01
      0.005  0.8826E+01  0.1789E+01
      0.057  0.1114E+02  0.2367E+01
      0.108  0.1358E+02  0.3071E+01
      0.160  0.1436E+02  0.3816E+01
      0.212  0.1176E+02  0.4426E+01
      0.264  0.1005E+02  0.4947E+01
      0.316  0.1415E+02  0.5681E+01
      0.368  0.2026E+02  0.6731E+01
      0.420  0.2251E+02  0.7899E+01
      0.471  0.2270E+02  0.9076E+01
      0.523  0.2350E+02  0.1029E+02
      0.575  0.2257E+02  0.1146E+02
      0.627  0.2047E+02  0.1253E+02
      0.679  0.2097E+02  0.1361E+02
      0.731  0.2045E+02  0.1467E+02
      0.783  0.1476E+02  0.1544E+02
      0.834  0.8954E+01  0.1590E+02
      0.886  0.7962E+01  0.1632E+02
      0.938  0.1153E+02  0.1692E+02
      0.990  0.1866E+02  0.1788E+02
      1.042  0.2762E+02  0.1932E+02
      1.094  0.3327E+02  0.2104E+02
      1.146  0.3315E+02  0.2276E+02
      1.197  0.2900E+02  0.2426E+02
      1.249  0.2302E+02  0.2546E+02
      1.301  0.1950E+02  0.2647E+02
      1.353  0.2151E+02  0.2758E+02
      1.405  0.2699E+02  0.2898E+02
      1.457  0.3031E+02  0.3056E+02
      1.509  0.2987E+02  0.3211E+02
      1.561  0.2933E+02  0.3363E+02
      1.612  0.3039E+02  0.3520E+02
      1.664  0.3111E+02  0.3682E+02
      1.716  0.3195E+02  0.3847E+02
      1.768  0.3487E+02  0.4028E+02
      1.820  0.3891E+02  0.4230E+02
      1.872  0.4514E+02  0.4464E+02
      1.924  0.5429E+02  0.4745E+02
      1.975  0.5935E+02  0.5053E+02
      2.027  0.5508E+02  0.5339E+02
      2.079  0.5044E+02  0.5601E+02
      2.131  0.6064E+02  0.5915E+02
      2.183  0.8564E+02  0.6359E+02
      2.235  0.1080E+03  0.6919E+02
      2.287  0.1194E+03  0.7538E+02
      2.338  0.1255E+03  0.8189E+02
      2.390  0.1313E+03  0.8870E+02
      2.442  0.1372E+03  0.9582E+02
      2.494  0.1465E+03  0.1034E+03
      2.546  0.1634E+03  0.1119E+03
      2.598  0.1820E+03  0.1213E+03
      2.650  0.1943E+03  0.1314E+03
      2.701  0.2059E+03  0.1421E+03
      2.753  0.2229E+03  0.1536E+03
      2.805  0.2309E+03  0.1656E+03
      2.857  0.2248E+03  0.1773E+03
      2.909  0.2269E+03  0.1890E+03
      2.961  0.2440E+03  0.2017E+03
      3.013  0.2575E+03  0.2150E+03
      3.064  0.2601E+03  0.2285E+03
      3.116  0.2605E+03  0.2420E+03
      3.168  0.2638E+03  0.2557E+03
      3.220  0.2724E+03  0.2698E+03
      3.272  0.2872E+03  0.2847E+03
      3.324  0.3063E+03  0.3006E+03
      3.376  0.3237E+03  0.3174E+03
      3.427  0.3308E+03  0.3346E+03
      3.479  0.3282E+03  0.3516E+03
      3.531  0.3217E+03  0.3683E+03
      3.583  0.3183E+03  0.3848E+03
      3.635  0.3168E+03  0.4012E+03
      3.687  0.3115E+03  0.4174E+03
      3.739  0.3055E+03  0.4332E+03
      3.790  0.3014E+03  0.4488E+03
      3.842  0.2972E+03  0.4642E+03
      3.894  0.2935E+03  0.4795E+03
      3.946  0.2890E+03  0.4945E+03
      3.998  0.2770E+03  0.5088E+03
      4.050  0.2665E+03  0.5226E+03
      4.102  0.2744E+03  0.5369E+03
      4.153  0.2931E+03  0.5521E+03
      4.205  0.3026E+03  0.5678E+03
      4.257  0.3049E+03  0.5836E+03
      4.309  0.3116E+03  0.5997E+03
      4.361  0.3184E+03  0.6162E+03
      4.413  0.3211E+03  0.6329E+03
      4.465  0.3236E+03  0.6497E+03
      4.516  0.3217E+03  0.6664E+03
      4.568  0.3107E+03  0.6825E+03
      4.620  0.2979E+03  0.6979E+03
      4.672  0.2934E+03  0.7131E+03
      4.724  0.2976E+03  0.7286E+03
      4.776  0.3053E+03  0.7444E+03
      4.828  0.3169E+03  0.7608E+03
      4.879  0.3308E+03  0.7780E+03
      4.931  0.3375E+03  0.7955E+03
      4.983  0.3443E+03  0.8133E+03
      5.035  0.3573E+03  0.8319E+03
      5.087  0.3656E+03  0.8508E+03
      5.139  0.3649E+03  0.8698E+03
      5.191  0.3563E+03  0.8882E+03
      5.243  0.3365E+03  0.9057E+03
      5.294  0.3049E+03  0.9215E+03
      5.346  0.2646E+03  0.9352E+03
      5.398  0.2213E+03  0.9467E+03
      5.450  0.1862E+03  0.9563E+03
      5.502  0.1724E+03  0.9653E+03
      5.554  0.1870E+03  0.9750E+03
      5.606  0.2240E+03  0.9866E+03
      5.657  0.2718E+03  0.1001E+04
      5.709  0.3220E+03  0.1017E+04
      5.761  0.3650E+03  0.1036E+04
      5.813  0.3936E+03  0.1057E+04
      5.865  0.4095E+03  0.1078E+04
      5.917  0.4186E+03  0.1100E+04
      5.969  0.4252E+03  0.1122E+04
      6.020  0.4282E+03  0.1144E+04
      6.072  0.4179E+03  0.1166E+04
      6.124  0.3940E+03  0.1186E+04
      6.176  0.3731E+03  0.1205E+04
      6.228  0.3618E+03  0.1224E+04
      6.280  0.3557E+03  0.1243E+04
      6.332  0.3558E+03  0.1261E+04
      6.383  0.3677E+03  0.1280E+04
      6.435  0.3812E+03  0.1300E+04
      6.487  0.3842E+03  0.1320E+04
      6.539  0.3905E+03  0.1340E+04
      6.591  0.4083E+03  0.1361E+04
      6.643  0.4233E+03  0.1383E+04
      6.695  0.4282E+03  0.1405E+04
      6.746  0.4259E+03  0.1427E+04
      6.798  0.4148E+03  0.1449E+04
      6.850  0.3942E+03  0.1469E+04
      6.902  0.3747E+03  0.1489E+04
      6.954  0.3668E+03  0.1508E+04
      7.006  0.3638E+03  0.1527E+04
      7.058  0.3667E+03  0.1546E+04
      7.109  0.3884E+03  0.1566E+04
      7.161  0.4132E+03  0.1587E+04
      7.213  0.4221E+03  0.1609E+04
      7.265  0.4226E+03  0.1631E+04
      7.317  0.4150E+03  0.1653E+04
      7.369  0.3911E+03  0.1673E+04
      7.421  0.3615E+03  0.1692E+04
      7.472  0.3415E+03  0.1709E+04
      7.524  0.3330E+03  0.1727E+04
      7.576  0.3293E+03  0.1744E+04
      7.628  0.3188E+03  0.1760E+04
      7.680  0.2980E+03  0.1776E+04
      7.732  0.2789E+03  0.1790E+04
      7.784  0.2693E+03  0.1804E+04
      7.835  0.2641E+03  0.1818E+04
      7.887  0.2584E+03  0.1831E+04
      7.939  0.2495E+03  0.1844E+04
      7.991  0.2430E+03  0.1857E+04
      8.043  0.2432E+03  0.1869E+04
      8.095  0.2400E+03  0.1882E+04
      8.147  0.2321E+03  0.1894E+04
      8.198  0.2289E+03  0.1906E+04
      8.250  0.2327E+03  0.1918E+04
      8.302  0.2374E+03  0.1930E+04
      8.354  0.2391E+03  0.1943E+04
      8.406  0.2375E+03  0.1955E+04
      8.458  0.2299E+03  0.1967E+04
      8.510  0.2195E+03  0.1978E+04
      8.561  0.2126E+03  0.1989E+04
      8.613  0.2079E+03  0.2000E+04
      8.665  0.2008E+03  0.2010E+04
      8.717  0.1924E+03  0.2020E+04
      8.769  0.1840E+03  0.2030E+04
      8.821  0.1794E+03  0.2039E+04
      8.873  0.1862E+03  0.2049E+04
      8.924  0.2096E+03  0.2060E+04
      8.976  0.2337E+03  0.2072E+04
      9.028  0.2373E+03  0.2084E+04
      9.080  0.2254E+03  0.2096E+04
      9.132  0.2088E+03  0.2107E+04
      9.184  0.1893E+03  0.2117E+04
      9.236  0.1786E+03  0.2126E+04
      9.288  0.1938E+03  0.2136E+04
      9.339  0.2249E+03  0.2147E+04
      9.391  0.2424E+03  0.2160E+04
      9.443  0.2429E+03  0.2173E+04
      9.495  0.2446E+03  0.2185E+04
      9.547  0.2448E+03  0.2198E+04
      9.599  0.2449E+03  0.2211E+04
      9.651  0.2691E+03  0.2225E+04
      9.702  0.3126E+03  0.2241E+04
      9.754  0.3353E+03  0.2258E+04
      9.806  0.3281E+03  0.2275E+04
      9.858  0.3174E+03  0.2292E+04
      9.910  0.3151E+03  0.2308E+04
      9.962  0.3202E+03  0.2325E+04
     10.014  0.3391E+03  0.2342E+04
     10.065  0.3746E+03  0.2362E+04
     10.117  0.4094E+03  0.2383E+04
     10.169  0.4272E+03  0.2405E+04
     10.221  0.4351E+03  0.2428E+04
     10.273  0.4465E+03  0.2451E+04
     10.325  0.4641E+03  0.2475E+04
     10.377  0.4825E+03  0.2500E+04
     10.428  0.4937E+03  0.2526E+04
     10.480  0.4886E+03  0.2551E+04
     10.532  0.4557E+03  0.2574E+04
     10.584  0.3989E+03  0.2595E+04
     10.636  0.3331E+03  0.2612E+04
     10.688  0.2544E+03  0.2626E+04
     10.740  0.1565E+03  0.2634E+04
     10.791  0.6345E+02  0.2637E+04
     10.843  0.8894E+01  0.2638E+04
     10.895 -0.5383E+01  0.2637E+04
     10.947 -0.3327E+01  0.2637E+04
     10.999 -0.8465E+00  0.2637E+04
     11.051 -0.1254E+00  0.2637E+04
     11.103 -0.1229E-01  0.2637E+04
     11.154 -0.8406E-03  0.2637E+04
     11.206 -0.3997E-04  0.2637E+04
     11.258 -0.3447E-04  0.2637E+04
     11.310 -0.6168E-03  0.2637E+04
     11.362 -0.6100E-02  0.2637E+04
     11.414 -0.2913E-01  0.2637E+04
     11.466 -0.4009E-01  0.2637E+04
     11.517  0.1582E+00  0.2637E+04
     11.569  0.6572E+00  0.2637E+04
     11.621  0.8961E+00  0.2637E+04
     11.673  0.4914E+00  0.2637E+04
     11.725  0.1872E-01  0.2637E+04
     11.777 -0.3352E-01  0.2637E+04
     11.829  0.3218E+00  0.2637E+04
     11.880  0.7663E+00  0.2637E+04
     11.932  0.1278E+01  0.2637E+04
     11.984  0.2264E+01  0.2637E+04
     12.036  0.2586E+01  0.2637E+04
     12.088  0.1485E+01  0.2638E+04
     12.140  0.6882E+00  0.2638E+04
     12.192  0.7624E+00  0.2638E+04
     12.243  0.1111E+01  0.2638E+04
     12.295  0.1961E+01  0.2638E+04
     12.347  0.2960E+01  0.2638E+04
     12.399  0.3303E+01  0.2638E+04
     12.451  0.2881E+01  0.2638E+04
     12.503  0.1951E+01  0.2638E+04
     12.555  0.1591E+01  0.2638E+04
     12.606  0.2449E+01  0.2639E+04
     12.658  0.3678E+01  0.2639E+04
     12.710  0.4390E+01  0.2639E+04
     12.762  0.3752E+01  0.2639E+04
     12.814  0.2428E+01  0.2639E+04
     12.866  0.2173E+01  0.2639E+04
     12.918  0.2378E+01  0.2640E+04
     12.970  0.1822E+01  0.2640E+04
     13.021  0.1158E+01  0.2640E+04
     13.073  0.8863E+00  0.2640E+04
     13.125  0.8050E+00  0.2640E+04
     13.177  0.9569E+00  0.2640E+04
     13.229  0.1139E+01  0.2640E+04
     13.281  0.1081E+01  0.2640E+04
     13.333  0.6602E+00  0.2640E+04
     13.384  0.1547E+00  0.2640E+04
     13.436 -0.4379E-01  0.2640E+04
     13.488 -0.3251E-01  0.2640E+04
     13.540 -0.7121E-02  0.2640E+04
     13.592 -0.7536E-03  0.2640E+04
     13.644 -0.4258E-04  0.2640E+04
     13.696 -0.1334E-05  0.2640E+04
     13.747 -0.2361E-07  0.2640E+04
     13.799 -0.2386E-09  0.2640E+04
     13.851 -0.1384E-11  0.2640E+04
     13.903 -0.4757E-14  0.2640E+04
     13.955  0.0000E+00  0.2640E+04
     14.007  0.0000E+00  0.2640E+04
     14.059  0.0000E+00  0.2640E+04
     14.110  0.0000E+00  0.2640E+04
     14.162  0.0000E+00  0.2640E+04
     14.214  0.0000E+00  0.2640E+04
     14.266  0.0000E+00  0.2640E+04
