 256 256   0   0
  0.1418917E+02  0.1588033E-08  0.1692661E-08  0.1693229E-08  0.5000000E-15
  1.000000000000000E-004
  CAR 
 Ir_Ru                                   
     14.26324518     -1.29193339  301      9.45684808      1.00000000
     -1.292  0.0000E+00  0.0000E+00
     -1.240  0.0000E+00  0.0000E+00
     -1.188  0.0000E+00  0.0000E+00
     -1.136 -0.2740E-30 -0.1421E-31
     -1.085 -0.1249E-26 -0.6476E-28
     -1.033 -0.3311E-23 -0.1717E-24
     -0.981 -0.5102E-20 -0.2647E-21
     -0.929 -0.4566E-17 -0.2370E-18
     -0.877 -0.2311E-14 -0.1201E-15
     -0.825 -0.6887E-12 -0.3583E-13
     -0.773 -0.1189E-09 -0.6203E-11
     -0.722 -0.1183E-07 -0.6194E-09
     -0.670 -0.6745E-06 -0.3559E-07
     -0.618 -0.2194E-04 -0.1173E-05
     -0.566 -0.4038E-03 -0.2211E-04
     -0.514 -0.4169E-02 -0.2383E-03
     -0.462 -0.2388E-01 -0.1476E-02
     -0.410 -0.7441E-01 -0.5334E-02
     -0.359 -0.1027E+00 -0.1066E-01
     -0.307  0.1957E+00 -0.5123E-03
     -0.255  0.1606E+01  0.8275E-01
     -0.203  0.4354E+01  0.3085E+00
     -0.151  0.6341E+01  0.6373E+00
     -0.099  0.6425E+01  0.9704E+00
     -0.048  0.6939E+01  0.1330E+01
      0.004  0.8820E+01  0.1788E+01
      0.056  0.1114E+02  0.2365E+01
      0.108  0.1357E+02  0.3068E+01
      0.160  0.1436E+02  0.3813E+01
      0.212  0.1177E+02  0.4423E+01
      0.264  0.1005E+02  0.4944E+01
      0.315  0.1415E+02  0.5678E+01
      0.367  0.2026E+02  0.6728E+01
      0.419  0.2249E+02  0.7894E+01
      0.471  0.2265E+02  0.9068E+01
      0.523  0.2349E+02  0.1029E+02
      0.575  0.2260E+02  0.1146E+02
      0.627  0.2047E+02  0.1252E+02
      0.678  0.2097E+02  0.1361E+02
      0.730  0.2050E+02  0.1467E+02
      0.782  0.1482E+02  0.1544E+02
      0.834  0.8967E+01  0.1590E+02
      0.886  0.7954E+01  0.1632E+02
      0.938  0.1148E+02  0.1691E+02
      0.989  0.1853E+02  0.1787E+02
      1.041  0.2753E+02  0.1930E+02
      1.093  0.3335E+02  0.2103E+02
      1.145  0.3325E+02  0.2275E+02
      1.197  0.2902E+02  0.2426E+02
      1.249  0.2302E+02  0.2545E+02
      1.301  0.1954E+02  0.2646E+02
      1.352  0.2153E+02  0.2758E+02
      1.404  0.2694E+02  0.2898E+02
      1.456  0.3024E+02  0.3054E+02
      1.508  0.2982E+02  0.3209E+02
      1.560  0.2933E+02  0.3361E+02
      1.612  0.3042E+02  0.3519E+02
      1.664  0.3118E+02  0.3681E+02
      1.715  0.3199E+02  0.3846E+02
      1.767  0.3482E+02  0.4027E+02
      1.819  0.3883E+02  0.4228E+02
      1.871  0.4506E+02  0.4462E+02
      1.923  0.5416E+02  0.4743E+02
      1.975  0.5927E+02  0.5050E+02
      2.027  0.5510E+02  0.5336E+02
      2.078  0.5047E+02  0.5597E+02
      2.130  0.6052E+02  0.5911E+02
      2.182  0.8537E+02  0.6354E+02
      2.234  0.1078E+03  0.6913E+02
      2.286  0.1193E+03  0.7531E+02
      2.338  0.1255E+03  0.8182E+02
      2.389  0.1312E+03  0.8862E+02
      2.441  0.1370E+03  0.9572E+02
      2.493  0.1461E+03  0.1033E+03
      2.545  0.1630E+03  0.1117E+03
      2.597  0.1818E+03  0.1212E+03
      2.649  0.1943E+03  0.1313E+03
      2.701  0.2059E+03  0.1419E+03
      2.752  0.2227E+03  0.1535E+03
      2.804  0.2309E+03  0.1654E+03
      2.856  0.2250E+03  0.1771E+03
      2.908  0.2270E+03  0.1889E+03
      2.960  0.2441E+03  0.2015E+03
      3.012  0.2577E+03  0.2149E+03
      3.064  0.2601E+03  0.2284E+03
      3.115  0.2604E+03  0.2419E+03
      3.167  0.2636E+03  0.2556E+03
      3.219  0.2721E+03  0.2697E+03
      3.271  0.2866E+03  0.2845E+03
      3.323  0.3056E+03  0.3004E+03
      3.375  0.3231E+03  0.3171E+03
      3.426  0.3306E+03  0.3343E+03
      3.478  0.3283E+03  0.3513E+03
      3.530  0.3219E+03  0.3680E+03
      3.582  0.3183E+03  0.3845E+03
      3.634  0.3167E+03  0.4009E+03
      3.686  0.3113E+03  0.4170E+03
      3.738  0.3054E+03  0.4329E+03
      3.789  0.3014E+03  0.4485E+03
      3.841  0.2972E+03  0.4639E+03
      3.893  0.2936E+03  0.4791E+03
      3.945  0.2893E+03  0.4941E+03
      3.997  0.2774E+03  0.5085E+03
      4.049  0.2667E+03  0.5224E+03
      4.101  0.2741E+03  0.5366E+03
      4.152  0.2927E+03  0.5517E+03
      4.204  0.3025E+03  0.5674E+03
      4.256  0.3049E+03  0.5832E+03
      4.308  0.3116E+03  0.5994E+03
      4.360  0.3186E+03  0.6159E+03
      4.412  0.3212E+03  0.6326E+03
      4.463  0.3234E+03  0.6493E+03
      4.515  0.3216E+03  0.6660E+03
      4.567  0.3108E+03  0.6821E+03
      4.619  0.2981E+03  0.6976E+03
      4.671  0.2934E+03  0.7128E+03
      4.723  0.2975E+03  0.7282E+03
      4.775  0.3051E+03  0.7440E+03
      4.826  0.3165E+03  0.7605E+03
      4.878  0.3304E+03  0.7776E+03
      4.930  0.3374E+03  0.7951E+03
      4.982  0.3442E+03  0.8129E+03
      5.034  0.3570E+03  0.8314E+03
      5.086  0.3652E+03  0.8504E+03
      5.138  0.3645E+03  0.8693E+03
      5.189  0.3564E+03  0.8878E+03
      5.241  0.3374E+03  0.9052E+03
      5.293  0.3063E+03  0.9211E+03
      5.345  0.2659E+03  0.9349E+03
      5.397  0.2223E+03  0.9464E+03
      5.449  0.1869E+03  0.9561E+03
      5.500  0.1725E+03  0.9651E+03
      5.552  0.1864E+03  0.9747E+03
      5.604  0.2230E+03  0.9863E+03
      5.656  0.2704E+03  0.1000E+04
      5.708  0.3204E+03  0.1017E+04
      5.760  0.3637E+03  0.1036E+04
      5.812  0.3930E+03  0.1056E+04
      5.863  0.4094E+03  0.1077E+04
      5.915  0.4186E+03  0.1099E+04
      5.967  0.4251E+03  0.1121E+04
      6.019  0.4282E+03  0.1143E+04
      6.071  0.4182E+03  0.1165E+04
      6.123  0.3945E+03  0.1185E+04
      6.175  0.3734E+03  0.1205E+04
      6.226  0.3620E+03  0.1224E+04
      6.278  0.3559E+03  0.1242E+04
      6.330  0.3557E+03  0.1261E+04
      6.382  0.3673E+03  0.1280E+04
      6.434  0.3811E+03  0.1299E+04
      6.486  0.3843E+03  0.1319E+04
      6.538  0.3900E+03  0.1339E+04
      6.589  0.4074E+03  0.1361E+04
      6.641  0.4229E+03  0.1383E+04
      6.693  0.4283E+03  0.1405E+04
      6.745  0.4263E+03  0.1427E+04
      6.797  0.4154E+03  0.1448E+04
      6.849  0.3948E+03  0.1469E+04
      6.900  0.3750E+03  0.1488E+04
      6.952  0.3670E+03  0.1507E+04
      7.004  0.3642E+03  0.1526E+04
      7.056  0.3666E+03  0.1545E+04
      7.108  0.3875E+03  0.1565E+04
      7.160  0.4125E+03  0.1587E+04
      7.212  0.4217E+03  0.1609E+04
      7.263  0.4225E+03  0.1630E+04
      7.315  0.4157E+03  0.1652E+04
      7.367  0.3923E+03  0.1672E+04
      7.419  0.3623E+03  0.1691E+04
      7.471  0.3419E+03  0.1709E+04
      7.523  0.3333E+03  0.1726E+04
      7.575  0.3297E+03  0.1743E+04
      7.626  0.3194E+03  0.1760E+04
      7.678  0.2986E+03  0.1775E+04
      7.730  0.2793E+03  0.1790E+04
      7.782  0.2694E+03  0.1804E+04
      7.834  0.2643E+03  0.1817E+04
      7.886  0.2587E+03  0.1831E+04
      7.937  0.2498E+03  0.1844E+04
      7.989  0.2431E+03  0.1856E+04
      8.041  0.2432E+03  0.1869E+04
      8.093  0.2403E+03  0.1881E+04
      8.145  0.2323E+03  0.1894E+04
      8.197  0.2286E+03  0.1905E+04
      8.249  0.2324E+03  0.1917E+04
      8.300  0.2374E+03  0.1930E+04
      8.352  0.2392E+03  0.1942E+04
      8.404  0.2377E+03  0.1954E+04
      8.456  0.2304E+03  0.1966E+04
      8.508  0.2200E+03  0.1978E+04
      8.560  0.2129E+03  0.1989E+04
      8.612  0.2079E+03  0.2000E+04
      8.663  0.2009E+03  0.2010E+04
      8.715  0.1927E+03  0.2020E+04
      8.767  0.1843E+03  0.2030E+04
      8.819  0.1794E+03  0.2039E+04
      8.871  0.1857E+03  0.2049E+04
      8.923  0.2087E+03  0.2059E+04
      8.974  0.2331E+03  0.2071E+04
      9.026  0.2375E+03  0.2084E+04
      9.078  0.2259E+03  0.2095E+04
      9.130  0.2094E+03  0.2106E+04
      9.182  0.1900E+03  0.2116E+04
      9.234  0.1786E+03  0.2125E+04
      9.286  0.1928E+03  0.2135E+04
      9.337  0.2239E+03  0.2147E+04
      9.389  0.2421E+03  0.2160E+04
      9.441  0.2430E+03  0.2172E+04
      9.493  0.2445E+03  0.2185E+04
      9.545  0.2448E+03  0.2198E+04
      9.597  0.2446E+03  0.2210E+04
      9.649  0.2677E+03  0.2224E+04
      9.700  0.3111E+03  0.2240E+04
      9.752  0.3351E+03  0.2258E+04
      9.804  0.3287E+03  0.2275E+04
      9.856  0.3177E+03  0.2291E+04
      9.908  0.3150E+03  0.2307E+04
      9.960  0.3197E+03  0.2324E+04
     10.011  0.3379E+03  0.2342E+04
     10.063  0.3729E+03  0.2361E+04
     10.115  0.4082E+03  0.2382E+04
     10.167  0.4267E+03  0.2404E+04
     10.219  0.4347E+03  0.2427E+04
     10.271  0.4461E+03  0.2450E+04
     10.323  0.4635E+03  0.2474E+04
     10.374  0.4818E+03  0.2499E+04
     10.426  0.4936E+03  0.2524E+04
     10.478  0.4898E+03  0.2550E+04
     10.530  0.4583E+03  0.2574E+04
     10.582  0.4021E+03  0.2594E+04
     10.634  0.3365E+03  0.2612E+04
     10.686  0.2585E+03  0.2625E+04
     10.737  0.1607E+03  0.2634E+04
     10.789  0.6642E+02  0.2637E+04
     10.841  0.9990E+01  0.2638E+04
     10.893 -0.5365E+01  0.2637E+04
     10.945 -0.3464E+01  0.2637E+04
     10.997 -0.8969E+00  0.2637E+04
     11.049 -0.1345E+00  0.2637E+04
     11.100 -0.1337E-01  0.2637E+04
     11.152 -0.9324E-03  0.2637E+04
     11.204 -0.4429E-04  0.2637E+04
     11.256 -0.1339E-05  0.2637E+04
     11.308 -0.2446E-07  0.2637E+04
     11.360 -0.2631E-09  0.2637E+04
     11.411 -0.1687E-11  0.2637E+04
     11.463 -0.1006E-10  0.2637E+04
     11.515 -0.1476E-08  0.2637E+04
     11.567 -0.1251E-06  0.2637E+04
     11.619 -0.6084E-05  0.2637E+04
     11.671 -0.1683E-03  0.2637E+04
     11.723 -0.2601E-02  0.2637E+04
     11.774 -0.2157E-01  0.2637E+04
     11.826 -0.8548E-01  0.2637E+04
     11.878 -0.7659E-01  0.2637E+04
     11.930  0.5117E+00  0.2637E+04
     11.982  0.1776E+01  0.2637E+04
     12.034  0.2436E+01  0.2637E+04
     12.086  0.2015E+01  0.2637E+04
     12.137  0.1734E+01  0.2638E+04
     12.189  0.1507E+01  0.2638E+04
     12.241  0.1251E+01  0.2638E+04
     12.293  0.2179E+01  0.2638E+04
     12.345  0.3327E+01  0.2638E+04
     12.397  0.3235E+01  0.2638E+04
     12.448  0.2627E+01  0.2638E+04
     12.500  0.1950E+01  0.2638E+04
     12.552  0.1531E+01  0.2638E+04
     12.604  0.1799E+01  0.2639E+04
     12.656  0.2748E+01  0.2639E+04
     12.708  0.4074E+01  0.2639E+04
     12.760  0.4195E+01  0.2639E+04
     12.811  0.3050E+01  0.2639E+04
     12.863  0.2585E+01  0.2639E+04
     12.915  0.2624E+01  0.2640E+04
     12.967  0.1979E+01  0.2640E+04
     13.019  0.1242E+01  0.2640E+04
     13.071  0.8179E+00  0.2640E+04
     13.123  0.5181E+00  0.2640E+04
     13.174  0.7494E+00  0.2640E+04
     13.226  0.1309E+01  0.2640E+04
     13.278  0.1347E+01  0.2640E+04
     13.330  0.7420E+00  0.2640E+04
     13.382  0.1411E+00  0.2640E+04
     13.434 -0.5493E-01  0.2640E+04
     13.485 -0.3458E-01  0.2640E+04
     13.537 -0.7283E-02  0.2640E+04
     13.589 -0.7585E-03  0.2640E+04
     13.641 -0.4253E-04  0.2640E+04
     13.693 -0.1328E-05  0.2640E+04
     13.745 -0.2346E-07  0.2640E+04
     13.797 -0.2368E-09  0.2640E+04
     13.848 -0.1374E-11  0.2640E+04
     13.900 -0.4758E-14  0.2640E+04
     13.952  0.0000E+00  0.2640E+04
     14.004  0.0000E+00  0.2640E+04
     14.056  0.0000E+00  0.2640E+04
     14.108  0.0000E+00  0.2640E+04
     14.160  0.0000E+00  0.2640E+04
     14.211  0.0000E+00  0.2640E+04
     14.263  0.0000E+00  0.2640E+04
