 256 256   0   0
  0.1418917E+02  0.1588033E-08  0.1692661E-08  0.1693229E-08  0.5000000E-15
  1.000000000000000E-004
  CAR 
 Ir_Ru                                   
     14.26329002     -1.29162684  301      9.45701893      1.00000000
     -1.292  0.0000E+00  0.0000E+00
     -1.240  0.0000E+00  0.0000E+00
     -1.188  0.0000E+00  0.0000E+00
     -1.136 -0.2739E-30 -0.1420E-31
     -1.084 -0.1248E-26 -0.6473E-28
     -1.032 -0.3309E-23 -0.1716E-24
     -0.981 -0.5098E-20 -0.2645E-21
     -0.929 -0.4562E-17 -0.2368E-18
     -0.877 -0.2309E-14 -0.1200E-15
     -0.825 -0.6881E-12 -0.3580E-13
     -0.773 -0.1188E-09 -0.6198E-11
     -0.721 -0.1182E-07 -0.6190E-09
     -0.669 -0.6740E-06 -0.3556E-07
     -0.618 -0.2192E-04 -0.1172E-05
     -0.566 -0.4036E-03 -0.2210E-04
     -0.514 -0.4166E-02 -0.2381E-03
     -0.462 -0.2386E-01 -0.1475E-02
     -0.410 -0.7437E-01 -0.5332E-02
     -0.358 -0.1026E+00 -0.1065E-01
     -0.306  0.1954E+00 -0.5201E-03
     -0.255  0.1605E+01  0.8268E-01
     -0.203  0.4352E+01  0.3083E+00
     -0.151  0.6340E+01  0.6371E+00
     -0.099  0.6425E+01  0.9702E+00
     -0.047  0.6936E+01  0.1330E+01
      0.005  0.8815E+01  0.1787E+01
      0.056  0.1113E+02  0.2364E+01
      0.108  0.1356E+02  0.3067E+01
      0.160  0.1437E+02  0.3812E+01
      0.212  0.1177E+02  0.4423E+01
      0.264  0.1004E+02  0.4943E+01
      0.316  0.1411E+02  0.5675E+01
      0.368  0.2023E+02  0.6724E+01
      0.419  0.2250E+02  0.7890E+01
      0.471  0.2267E+02  0.9066E+01
      0.523  0.2349E+02  0.1028E+02
      0.575  0.2260E+02  0.1146E+02
      0.627  0.2047E+02  0.1252E+02
      0.679  0.2096E+02  0.1360E+02
      0.731  0.2049E+02  0.1467E+02
      0.782  0.1483E+02  0.1544E+02
      0.834  0.8980E+01  0.1590E+02
      0.886  0.7946E+01  0.1631E+02
      0.938  0.1147E+02  0.1691E+02
      0.990  0.1854E+02  0.1787E+02
      1.042  0.2752E+02  0.1930E+02
      1.093  0.3331E+02  0.2102E+02
      1.145  0.3323E+02  0.2275E+02
      1.197  0.2905E+02  0.2425E+02
      1.249  0.2308E+02  0.2545E+02
      1.301  0.1954E+02  0.2646E+02
      1.353  0.2148E+02  0.2758E+02
      1.405  0.2692E+02  0.2897E+02
      1.456  0.3029E+02  0.3054E+02
      1.508  0.2989E+02  0.3209E+02
      1.560  0.2933E+02  0.3361E+02
      1.612  0.3035E+02  0.3519E+02
      1.664  0.3110E+02  0.3680E+02
      1.716  0.3194E+02  0.3846E+02
      1.768  0.3482E+02  0.4026E+02
      1.819  0.3886E+02  0.4228E+02
      1.871  0.4506E+02  0.4461E+02
      1.923  0.5417E+02  0.4742E+02
      1.975  0.5930E+02  0.5050E+02
      2.027  0.5513E+02  0.5335E+02
      2.079  0.5046E+02  0.5597E+02
      2.130  0.6045E+02  0.5911E+02
      2.182  0.8528E+02  0.6353E+02
      2.234  0.1077E+03  0.6911E+02
      2.286  0.1193E+03  0.7530E+02
      2.338  0.1255E+03  0.8180E+02
      2.390  0.1311E+03  0.8860E+02
      2.442  0.1370E+03  0.9571E+02
      2.493  0.1462E+03  0.1033E+03
      2.545  0.1630E+03  0.1117E+03
      2.597  0.1818E+03  0.1212E+03
      2.649  0.1943E+03  0.1312E+03
      2.701  0.2059E+03  0.1419E+03
      2.753  0.2227E+03  0.1535E+03
      2.805  0.2308E+03  0.1654E+03
      2.856  0.2249E+03  0.1771E+03
      2.908  0.2269E+03  0.1888E+03
      2.960  0.2439E+03  0.2015E+03
      3.012  0.2575E+03  0.2148E+03
      3.064  0.2600E+03  0.2283E+03
      3.116  0.2604E+03  0.2418E+03
      3.167  0.2636E+03  0.2555E+03
      3.219  0.2721E+03  0.2696E+03
      3.271  0.2869E+03  0.2845E+03
      3.323  0.3061E+03  0.3003E+03
      3.375  0.3236E+03  0.3171E+03
      3.427  0.3309E+03  0.3343E+03
      3.479  0.3284E+03  0.3513E+03
      3.530  0.3219E+03  0.3680E+03
      3.582  0.3184E+03  0.3845E+03
      3.634  0.3169E+03  0.4009E+03
      3.686  0.3116E+03  0.4171E+03
      3.738  0.3055E+03  0.4329E+03
      3.790  0.3013E+03  0.4486E+03
      3.841  0.2971E+03  0.4640E+03
      3.893  0.2935E+03  0.4792E+03
      3.945  0.2892E+03  0.4942E+03
      3.997  0.2773E+03  0.5086E+03
      4.049  0.2666E+03  0.5224E+03
      4.101  0.2741E+03  0.5366E+03
      4.153  0.2928E+03  0.5518E+03
      4.204  0.3026E+03  0.5675E+03
      4.256  0.3050E+03  0.5833E+03
      4.308  0.3116E+03  0.5994E+03
      4.360  0.3185E+03  0.6160E+03
      4.412  0.3212E+03  0.6326E+03
      4.464  0.3235E+03  0.6494E+03
      4.516  0.3216E+03  0.6661E+03
      4.567  0.3107E+03  0.6822E+03
      4.619  0.2981E+03  0.6976E+03
      4.671  0.2934E+03  0.7128E+03
      4.723  0.2976E+03  0.7283E+03
      4.775  0.3052E+03  0.7441E+03
      4.827  0.3166E+03  0.7605E+03
      4.878  0.3303E+03  0.7776E+03
      4.930  0.3372E+03  0.7951E+03
      4.982  0.3441E+03  0.8130E+03
      5.034  0.3571E+03  0.8315E+03
      5.086  0.3654E+03  0.8504E+03
      5.138  0.3647E+03  0.8693E+03
      5.190  0.3564E+03  0.8878E+03
      5.241  0.3372E+03  0.9053E+03
      5.293  0.3059E+03  0.9212E+03
      5.345  0.2656E+03  0.9349E+03
      5.397  0.2221E+03  0.9465E+03
      5.449  0.1868E+03  0.9561E+03
      5.501  0.1724E+03  0.9651E+03
      5.553  0.1863E+03  0.9747E+03
      5.604  0.2228E+03  0.9863E+03
      5.656  0.2705E+03  0.1000E+04
      5.708  0.3209E+03  0.1017E+04
      5.760  0.3640E+03  0.1036E+04
      5.812  0.3930E+03  0.1056E+04
      5.864  0.4093E+03  0.1077E+04
      5.915  0.4185E+03  0.1099E+04
      5.967  0.4250E+03  0.1121E+04
      6.019  0.4282E+03  0.1143E+04
      6.071  0.4183E+03  0.1165E+04
      6.123  0.3946E+03  0.1186E+04
      6.175  0.3734E+03  0.1205E+04
      6.227  0.3619E+03  0.1224E+04
      6.278  0.3559E+03  0.1242E+04
      6.330  0.3559E+03  0.1261E+04
      6.382  0.3675E+03  0.1280E+04
      6.434  0.3811E+03  0.1299E+04
      6.486  0.3842E+03  0.1319E+04
      6.538  0.3900E+03  0.1340E+04
      6.590  0.4077E+03  0.1361E+04
      6.641  0.4230E+03  0.1383E+04
      6.693  0.4281E+03  0.1405E+04
      6.745  0.4260E+03  0.1427E+04
      6.797  0.4155E+03  0.1448E+04
      6.849  0.3951E+03  0.1469E+04
      6.901  0.3752E+03  0.1488E+04
      6.952  0.3668E+03  0.1507E+04
      7.004  0.3637E+03  0.1526E+04
      7.056  0.3663E+03  0.1545E+04
      7.108  0.3876E+03  0.1565E+04
      7.160  0.4127E+03  0.1587E+04
      7.212  0.4219E+03  0.1609E+04
      7.264  0.4226E+03  0.1630E+04
      7.315  0.4155E+03  0.1652E+04
      7.367  0.3920E+03  0.1672E+04
      7.419  0.3623E+03  0.1691E+04
      7.471  0.3419E+03  0.1709E+04
      7.523  0.3331E+03  0.1726E+04
      7.575  0.3295E+03  0.1743E+04
      7.627  0.3193E+03  0.1760E+04
      7.678  0.2986E+03  0.1775E+04
      7.730  0.2792E+03  0.1790E+04
      7.782  0.2695E+03  0.1804E+04
      7.834  0.2644E+03  0.1817E+04
      7.886  0.2587E+03  0.1831E+04
      7.938  0.2497E+03  0.1844E+04
      7.989  0.2431E+03  0.1856E+04
      8.041  0.2432E+03  0.1869E+04
      8.093  0.2403E+03  0.1881E+04
      8.145  0.2324E+03  0.1894E+04
      8.197  0.2288E+03  0.1905E+04
      8.249  0.2326E+03  0.1917E+04
      8.301  0.2373E+03  0.1930E+04
      8.352  0.2390E+03  0.1942E+04
      8.404  0.2376E+03  0.1954E+04
      8.456  0.2303E+03  0.1966E+04
      8.508  0.2198E+03  0.1978E+04
      8.560  0.2128E+03  0.1989E+04
      8.612  0.2079E+03  0.2000E+04
      8.664  0.2009E+03  0.2010E+04
      8.715  0.1927E+03  0.2020E+04
      8.767  0.1844E+03  0.2030E+04
      8.819  0.1795E+03  0.2039E+04
      8.871  0.1857E+03  0.2049E+04
      8.923  0.2086E+03  0.2059E+04
      8.975  0.2331E+03  0.2071E+04
      9.026  0.2374E+03  0.2084E+04
      9.078  0.2258E+03  0.2095E+04
      9.130  0.2094E+03  0.2106E+04
      9.182  0.1900E+03  0.2116E+04
      9.234  0.1786E+03  0.2125E+04
      9.286  0.1927E+03  0.2135E+04
      9.338  0.2238E+03  0.2147E+04
      9.389  0.2421E+03  0.2160E+04
      9.441  0.2430E+03  0.2172E+04
      9.493  0.2445E+03  0.2185E+04
      9.545  0.2449E+03  0.2198E+04
      9.597  0.2446E+03  0.2210E+04
      9.649  0.2676E+03  0.2224E+04
      9.701  0.3110E+03  0.2240E+04
      9.752  0.3350E+03  0.2258E+04
      9.804  0.3286E+03  0.2275E+04
      9.856  0.3177E+03  0.2291E+04
      9.908  0.3151E+03  0.2307E+04
      9.960  0.3198E+03  0.2324E+04
     10.012  0.3379E+03  0.2342E+04
     10.063  0.3730E+03  0.2361E+04
     10.115  0.4082E+03  0.2382E+04
     10.167  0.4266E+03  0.2404E+04
     10.219  0.4345E+03  0.2427E+04
     10.271  0.4460E+03  0.2450E+04
     10.323  0.4639E+03  0.2474E+04
     10.375  0.4833E+03  0.2499E+04
     10.426  0.4964E+03  0.2525E+04
     10.478  0.4931E+03  0.2550E+04
     10.530  0.4609E+03  0.2574E+04
     10.582  0.4029E+03  0.2595E+04
     10.634  0.3350E+03  0.2612E+04
     10.686  0.2547E+03  0.2626E+04
     10.738  0.1561E+03  0.2634E+04
     10.789  0.6288E+02  0.2637E+04
     10.841  0.8409E+01  0.2637E+04
     10.893 -0.5573E+01  0.2637E+04
     10.945 -0.3332E+01  0.2637E+04
     10.997 -0.8274E+00  0.2637E+04
     11.049 -0.1185E+00  0.2637E+04
     11.100 -0.1103E-01  0.2637E+04
     11.152 -0.7057E-03  0.2637E+04
     11.204 -0.3046E-04  0.2637E+04
     11.256 -0.8391E-06  0.2637E+04
     11.308 -0.1406E-07  0.2637E+04
     11.360 -0.1394E-09  0.2637E+04
     11.412 -0.8088E-12  0.2637E+04
     11.463 -0.9288E-12  0.2637E+04
     11.515 -0.1661E-09  0.2637E+04
     11.567 -0.1713E-07  0.2637E+04
     11.619 -0.1010E-05  0.2637E+04
     11.671 -0.3374E-04  0.2637E+04
     11.723 -0.6286E-03  0.2637E+04
     11.775 -0.6330E-02  0.2637E+04
     11.826 -0.3188E-01  0.2637E+04
     11.878 -0.5780E-01  0.2637E+04
     11.930  0.1090E+00  0.2637E+04
     11.982  0.6692E+00  0.2637E+04
     12.034  0.1258E+01  0.2637E+04
     12.086  0.1321E+01  0.2637E+04
     12.137  0.1214E+01  0.2637E+04
     12.189  0.1907E+01  0.2637E+04
     12.241  0.3506E+01  0.2637E+04
     12.293  0.4861E+01  0.2638E+04
     12.345  0.4789E+01  0.2638E+04
     12.397  0.3627E+01  0.2638E+04
     12.449  0.2695E+01  0.2638E+04
     12.500  0.2470E+01  0.2638E+04
     12.552  0.2739E+01  0.2638E+04
     12.604  0.2887E+01  0.2639E+04
     12.656  0.2922E+01  0.2639E+04
     12.708  0.3592E+01  0.2639E+04
     12.760  0.3637E+01  0.2639E+04
     12.811  0.2370E+01  0.2639E+04
     12.863  0.1745E+01  0.2639E+04
     12.915  0.2267E+01  0.2640E+04
     12.967  0.2253E+01  0.2640E+04
     13.019  0.1435E+01  0.2640E+04
     13.071  0.9568E+00  0.2640E+04
     13.123  0.9292E+00  0.2640E+04
     13.174  0.1033E+01  0.2640E+04
     13.226  0.1125E+01  0.2640E+04
     13.278  0.1058E+01  0.2640E+04
     13.330  0.6534E+00  0.2640E+04
     13.382  0.1544E+00  0.2640E+04
     13.434 -0.4346E-01  0.2640E+04
     13.486 -0.3234E-01  0.2640E+04
     13.537 -0.7079E-02  0.2640E+04
     13.589 -0.7486E-03  0.2640E+04
     13.641 -0.4226E-04  0.2640E+04
     13.693 -0.1323E-05  0.2640E+04
     13.745 -0.2341E-07  0.2640E+04
     13.797 -0.2365E-09  0.2640E+04
     13.848 -0.1372E-11  0.2640E+04
     13.900 -0.4758E-14  0.2640E+04
     13.952  0.0000E+00  0.2640E+04
     14.004  0.0000E+00  0.2640E+04
     14.056  0.0000E+00  0.2640E+04
     14.108  0.0000E+00  0.2640E+04
     14.160  0.0000E+00  0.2640E+04
     14.211  0.0000E+00  0.2640E+04
     14.263  0.0000E+00  0.2640E+04
