 256 256   0   0
  0.1418917E+02  0.1588033E-08  0.1692661E-08  0.1693229E-08  0.5000000E-15
  1.000000000000000E-004
  CAR 
 Ir_Ru                                   
     14.25503988     -1.29203572  301      9.45692974      1.00000000
     -1.292  0.0000E+00  0.0000E+00
     -1.240  0.0000E+00  0.0000E+00
     -1.188  0.0000E+00  0.0000E+00
     -1.137 -0.2704E-30 -0.1401E-31
     -1.085 -0.1228E-26 -0.6367E-28
     -1.033 -0.3248E-23 -0.1684E-24
     -0.981 -0.4993E-20 -0.2589E-21
     -0.929 -0.4461E-17 -0.2314E-18
     -0.877 -0.2254E-14 -0.1170E-15
     -0.826 -0.6717E-12 -0.3493E-13
     -0.774 -0.1160E-09 -0.6047E-11
     -0.722 -0.1154E-07 -0.6043E-09
     -0.670 -0.6591E-06 -0.3476E-07
     -0.618 -0.2148E-04 -0.1148E-05
     -0.567 -0.3963E-03 -0.2169E-04
     -0.515 -0.4104E-02 -0.2344E-03
     -0.463 -0.2360E-01 -0.1457E-02
     -0.411 -0.7388E-01 -0.5286E-02
     -0.359 -0.1031E+00 -0.1063E-01
     -0.307  0.1890E+00 -0.8323E-03
     -0.256  0.1583E+01  0.8121E-01
     -0.204  0.4323E+01  0.3053E+00
     -0.152  0.6331E+01  0.6334E+00
     -0.100  0.6427E+01  0.9664E+00
     -0.048  0.6922E+01  0.1325E+01
      0.004  0.8789E+01  0.1781E+01
      0.055  0.1110E+02  0.2356E+01
      0.107  0.1354E+02  0.3057E+01
      0.159  0.1438E+02  0.3803E+01
      0.211  0.1183E+02  0.4415E+01
      0.263  0.1003E+02  0.4935E+01
      0.314  0.1401E+02  0.5661E+01
      0.366  0.2015E+02  0.6706E+01
      0.418  0.2250E+02  0.7872E+01
      0.470  0.2268E+02  0.9047E+01
      0.522  0.2349E+02  0.1026E+02
      0.574  0.2262E+02  0.1144E+02
      0.625  0.2048E+02  0.1250E+02
      0.677  0.2094E+02  0.1358E+02
      0.729  0.2055E+02  0.1465E+02
      0.781  0.1496E+02  0.1542E+02
      0.833  0.9070E+01  0.1589E+02
      0.885  0.7969E+01  0.1631E+02
      0.936  0.1145E+02  0.1690E+02
      0.988  0.1845E+02  0.1786E+02
      1.040  0.2739E+02  0.1928E+02
      1.092  0.3321E+02  0.2100E+02
      1.144  0.3323E+02  0.2272E+02
      1.195  0.2914E+02  0.2423E+02
      1.247  0.2316E+02  0.2543E+02
      1.299  0.1954E+02  0.2644E+02
      1.351  0.2140E+02  0.2755E+02
      1.403  0.2681E+02  0.2894E+02
      1.455  0.3027E+02  0.3051E+02
      1.506  0.2993E+02  0.3206E+02
      1.558  0.2930E+02  0.3358E+02
      1.610  0.3028E+02  0.3515E+02
      1.662  0.3108E+02  0.3676E+02
      1.714  0.3189E+02  0.3841E+02
      1.766  0.3470E+02  0.4021E+02
      1.817  0.3870E+02  0.4221E+02
      1.869  0.4483E+02  0.4454E+02
      1.921  0.5393E+02  0.4733E+02
      1.973  0.5928E+02  0.5040E+02
      2.025  0.5531E+02  0.5327E+02
      2.076  0.5042E+02  0.5588E+02
      2.128  0.5985E+02  0.5899E+02
      2.180  0.8446E+02  0.6336E+02
      2.232  0.1072E+03  0.6892E+02
      2.284  0.1189E+03  0.7508E+02
      2.336  0.1252E+03  0.8157E+02
      2.387  0.1309E+03  0.8835E+02
      2.439  0.1368E+03  0.9545E+02
      2.491  0.1458E+03  0.1030E+03
      2.543  0.1624E+03  0.1114E+03
      2.595  0.1813E+03  0.1208E+03
      2.647  0.1939E+03  0.1309E+03
      2.698  0.2052E+03  0.1415E+03
      2.750  0.2220E+03  0.1530E+03
      2.802  0.2308E+03  0.1650E+03
      2.854  0.2251E+03  0.1766E+03
      2.906  0.2263E+03  0.1884E+03
      2.957  0.2431E+03  0.2010E+03
      3.009  0.2572E+03  0.2143E+03
      3.061  0.2601E+03  0.2278E+03
      3.113  0.2604E+03  0.2413E+03
      3.165  0.2634E+03  0.2549E+03
      3.217  0.2716E+03  0.2690E+03
      3.268  0.2859E+03  0.2838E+03
      3.320  0.3049E+03  0.2996E+03
      3.372  0.3228E+03  0.3163E+03
      3.424  0.3307E+03  0.3335E+03
      3.476  0.3286E+03  0.3505E+03
      3.528  0.3222E+03  0.3672E+03
      3.579  0.3184E+03  0.3837E+03
      3.631  0.3168E+03  0.4001E+03
      3.683  0.3117E+03  0.4163E+03
      3.735  0.3057E+03  0.4321E+03
      3.787  0.3016E+03  0.4477E+03
      3.838  0.2973E+03  0.4631E+03
      3.890  0.2935E+03  0.4784E+03
      3.942  0.2896E+03  0.4934E+03
      3.994  0.2783E+03  0.5078E+03
      4.046  0.2669E+03  0.5216E+03
      4.098  0.2733E+03  0.5358E+03
      4.149  0.2919E+03  0.5509E+03
      4.201  0.3022E+03  0.5666E+03
      4.253  0.3044E+03  0.5823E+03
      4.305  0.3107E+03  0.5984E+03
      4.357  0.3179E+03  0.6149E+03
      4.409  0.3209E+03  0.6316E+03
      4.460  0.3233E+03  0.6483E+03
      4.512  0.3220E+03  0.6650E+03
      4.564  0.3116E+03  0.6811E+03
      4.616  0.2987E+03  0.6966E+03
      4.668  0.2934E+03  0.7118E+03
      4.720  0.2972E+03  0.7272E+03
      4.771  0.3045E+03  0.7430E+03
      4.823  0.3157E+03  0.7594E+03
      4.875  0.3298E+03  0.7765E+03
      4.927  0.3370E+03  0.7939E+03
      4.979  0.3432E+03  0.8117E+03
      5.030  0.3561E+03  0.8302E+03
      5.082  0.3651E+03  0.8491E+03
      5.134  0.3648E+03  0.8680E+03
      5.186  0.3571E+03  0.8865E+03
      5.238  0.3389E+03  0.9041E+03
      5.290  0.3086E+03  0.9201E+03
      5.341  0.2688E+03  0.9340E+03
      5.393  0.2253E+03  0.9457E+03
      5.445  0.1890E+03  0.9555E+03
      5.497  0.1727E+03  0.9644E+03
      5.549  0.1845E+03  0.9740E+03
      5.601  0.2198E+03  0.9854E+03
      5.652  0.2669E+03  0.9992E+03
      5.704  0.3172E+03  0.1016E+04
      5.756  0.3612E+03  0.1034E+04
      5.808  0.3914E+03  0.1055E+04
      5.860  0.4083E+03  0.1076E+04
      5.911  0.4179E+03  0.1097E+04
      5.963  0.4247E+03  0.1119E+04
      6.015  0.4284E+03  0.1142E+04
      6.067  0.4198E+03  0.1163E+04
      6.119  0.3967E+03  0.1184E+04
      6.171  0.3749E+03  0.1203E+04
      6.222  0.3627E+03  0.1222E+04
      6.274  0.3562E+03  0.1241E+04
      6.326  0.3554E+03  0.1259E+04
      6.378  0.3661E+03  0.1278E+04
      6.430  0.3804E+03  0.1298E+04
      6.482  0.3841E+03  0.1318E+04
      6.533  0.3889E+03  0.1338E+04
      6.585  0.4059E+03  0.1359E+04
      6.637  0.4219E+03  0.1381E+04
      6.689  0.4278E+03  0.1403E+04
      6.741  0.4263E+03  0.1425E+04
      6.792  0.4166E+03  0.1447E+04
      6.844  0.3968E+03  0.1467E+04
      6.896  0.3765E+03  0.1487E+04
      6.948  0.3673E+03  0.1506E+04
      7.000  0.3643E+03  0.1525E+04
      7.052  0.3657E+03  0.1544E+04
      7.103  0.3852E+03  0.1563E+04
      7.155  0.4110E+03  0.1585E+04
      7.207  0.4215E+03  0.1607E+04
      7.259  0.4226E+03  0.1629E+04
      7.311  0.4168E+03  0.1650E+04
      7.363  0.3947E+03  0.1671E+04
      7.414  0.3647E+03  0.1689E+04
      7.466  0.3433E+03  0.1707E+04
      7.518  0.3337E+03  0.1725E+04
      7.570  0.3300E+03  0.1742E+04
      7.622  0.3208E+03  0.1758E+04
      7.673  0.3008E+03  0.1774E+04
      7.725  0.2808E+03  0.1788E+04
      7.777  0.2702E+03  0.1802E+04
      7.829  0.2648E+03  0.1816E+04
      7.881  0.2593E+03  0.1830E+04
      7.933  0.2506E+03  0.1843E+04
      7.984  0.2434E+03  0.1855E+04
      8.036  0.2431E+03  0.1868E+04
      8.088  0.2409E+03  0.1880E+04
      8.140  0.2330E+03  0.1892E+04
      8.192  0.2288E+03  0.1904E+04
      8.244  0.2320E+03  0.1916E+04
      8.295  0.2370E+03  0.1929E+04
      8.347  0.2390E+03  0.1941E+04
      8.399  0.2380E+03  0.1953E+04
      8.451  0.2313E+03  0.1965E+04
      8.503  0.2209E+03  0.1977E+04
      8.554  0.2134E+03  0.1988E+04
      8.606  0.2086E+03  0.1999E+04
      8.658  0.2018E+03  0.2009E+04
      8.710  0.1936E+03  0.2019E+04
      8.762  0.1851E+03  0.2029E+04
      8.814  0.1796E+03  0.2038E+04
      8.865  0.1842E+03  0.2047E+04
      8.917  0.2057E+03  0.2058E+04
      8.969  0.2314E+03  0.2070E+04
      9.021  0.2381E+03  0.2082E+04
      9.073  0.2274E+03  0.2094E+04
      9.125  0.2113E+03  0.2105E+04
      9.176  0.1920E+03  0.2115E+04
      9.228  0.1788E+03  0.2124E+04
      9.280  0.1899E+03  0.2134E+04
      9.332  0.2207E+03  0.2146E+04
      9.384  0.2413E+03  0.2158E+04
      9.435  0.2431E+03  0.2171E+04
      9.487  0.2441E+03  0.2183E+04
      9.539  0.2452E+03  0.2196E+04
      9.591  0.2440E+03  0.2209E+04
      9.643  0.2636E+03  0.2222E+04
      9.695  0.3065E+03  0.2238E+04
      9.746  0.3341E+03  0.2256E+04
      9.798  0.3301E+03  0.2273E+04
      9.850  0.3185E+03  0.2289E+04
      9.902  0.3150E+03  0.2306E+04
      9.954  0.3188E+03  0.2322E+04
     10.006  0.3350E+03  0.2339E+04
     10.057  0.3686E+03  0.2359E+04
     10.109  0.4050E+03  0.2380E+04
     10.161  0.4254E+03  0.2402E+04
     10.213  0.4337E+03  0.2424E+04
     10.265  0.4443E+03  0.2447E+04
     10.316  0.4611E+03  0.2471E+04
     10.368  0.4798E+03  0.2496E+04
     10.420  0.4926E+03  0.2521E+04
     10.472  0.4911E+03  0.2547E+04
     10.524  0.4631E+03  0.2571E+04
     10.576  0.4090E+03  0.2592E+04
     10.627  0.3441E+03  0.2610E+04
     10.679  0.2686E+03  0.2624E+04
     10.731  0.1736E+03  0.2633E+04
     10.783  0.7706E+02  0.2637E+04
     10.835  0.1459E+02  0.2638E+04
     10.887 -0.4992E+01  0.2637E+04
     10.938 -0.3951E+01  0.2637E+04
     10.990 -0.1106E+01  0.2637E+04
     11.042 -0.1730E+00  0.2637E+04
     11.094 -0.1727E-01  0.2637E+04
     11.146 -0.1176E-02  0.2637E+04
     11.197 -0.5439E-04  0.2637E+04
     11.249 -0.1624E-05  0.2637E+04
     11.301 -0.2976E-07  0.2637E+04
     11.353 -0.3242E-09  0.2637E+04
     11.405 -0.2124E-11  0.2637E+04
     11.457 -0.1281E-10  0.2637E+04
     11.508 -0.1754E-08  0.2637E+04
     11.560 -0.1383E-06  0.2637E+04
     11.612 -0.6239E-05  0.2637E+04
     11.664 -0.1595E-03  0.2637E+04
     11.716 -0.2268E-02  0.2637E+04
     11.768 -0.1721E-01  0.2637E+04
     11.819 -0.6112E-01  0.2637E+04
     11.871 -0.3498E-01  0.2637E+04
     11.923  0.3994E+00  0.2637E+04
     11.975  0.1235E+01  0.2637E+04
     12.027  0.1631E+01  0.2637E+04
     12.078  0.1375E+01  0.2637E+04
     12.130  0.1379E+01  0.2637E+04
     12.182  0.1910E+01  0.2637E+04
     12.234  0.2507E+01  0.2638E+04
     12.286  0.3061E+01  0.2638E+04
     12.338  0.3666E+01  0.2638E+04
     12.389  0.3815E+01  0.2638E+04
     12.441  0.3173E+01  0.2638E+04
     12.493  0.2039E+01  0.2638E+04
     12.545  0.1424E+01  0.2638E+04
     12.597  0.2192E+01  0.2639E+04
     12.649  0.3387E+01  0.2639E+04
     12.700  0.4136E+01  0.2639E+04
     12.752  0.4036E+01  0.2639E+04
     12.804  0.3019E+01  0.2639E+04
     12.856  0.2417E+01  0.2639E+04
     12.908  0.2363E+01  0.2640E+04
     12.959  0.1845E+01  0.2640E+04
     13.011  0.1212E+01  0.2640E+04
     13.063  0.9290E+00  0.2640E+04
     13.115  0.8152E+00  0.2640E+04
     13.167  0.9632E+00  0.2640E+04
     13.219  0.1207E+01  0.2640E+04
     13.270  0.1144E+01  0.2640E+04
     13.322  0.6668E+00  0.2640E+04
     13.374  0.1450E+00  0.2640E+04
     13.426 -0.4689E-01  0.2640E+04
     13.478 -0.3255E-01  0.2640E+04
     13.530 -0.7017E-02  0.2640E+04
     13.581 -0.7369E-03  0.2640E+04
     13.633 -0.4144E-04  0.2640E+04
     13.685 -0.1295E-05  0.2640E+04
     13.737 -0.2287E-07  0.2640E+04
     13.789 -0.2309E-09  0.2640E+04
     13.840 -0.1340E-11  0.2640E+04
     13.892 -0.4761E-14  0.2640E+04
     13.944  0.0000E+00  0.2640E+04
     13.996  0.0000E+00  0.2640E+04
     14.048  0.0000E+00  0.2640E+04
     14.100  0.0000E+00  0.2640E+04
     14.151  0.0000E+00  0.2640E+04
     14.203  0.0000E+00  0.2640E+04
     14.255  0.0000E+00  0.2640E+04
