       N       E                     dE             d eps       ncg     rms          rms(c)
RMM:   1    -0.248452647335E+04   -0.24845E+04   -0.63965E+02 50305   0.284E+01    0.720E+01
RMM:   2    -0.239906850059E+04    0.85458E+02   -0.34436E+02 51478   0.199E+01    0.539E+01
RMM:   3    -0.236980048007E+04    0.29268E+02   -0.25479E+02 50222   0.153E+01    0.420E+01
RMM:   4    -0.233330746882E+04    0.36493E+02   -0.10592E+02 50273   0.102E+01    0.232E+01
RMM:   5    -0.232318460265E+04    0.10123E+02   -0.17240E+01 51455   0.348E+00    0.917E+00
RMM:   6    -0.232158700569E+04    0.15976E+01   -0.39822E+00 64788   0.129E+00    0.368E+00
RMM:   7    -0.232118559029E+04    0.40142E+00   -0.12830E+00 53545   0.113E+00    0.341E+00
RMM:   8    -0.232089105428E+04    0.29454E+00   -0.61516E-01 54255   0.828E-01    0.269E+00
RMM:   9    -0.232070992033E+04    0.18113E+00   -0.19355E-01 53567   0.422E-01    0.146E+00
RMM:  10    -0.232067339416E+04    0.36526E-01   -0.10744E-01 59761   0.248E-01    0.130E+00
RMM:  11    -0.232063997086E+04    0.33423E-01   -0.84615E-02 59504   0.231E-01    0.850E-01
RMM:  12    -0.232062623561E+04    0.13735E-01   -0.24415E-02 59493   0.111E-01    0.336E-01
RMM:  13    -0.232062491547E+04    0.13201E-02   -0.61841E-03 67928   0.476E-02    0.186E-01
RMM:  14    -0.232062487490E+04    0.40570E-04   -0.21020E-03 61123   0.361E-02    0.147E-01
RMM:  15    -0.232062494691E+04   -0.72008E-04   -0.13538E-03 60224   0.304E-02    0.121E-01
RMM:  16    -0.232062475592E+04    0.19098E-03   -0.54037E-04 59571   0.189E-02    0.601E-02
RMM:  17    -0.232062474001E+04    0.15915E-04   -0.18479E-04 61088   0.102E-02
   1 F= -.23206247E+04 E0= -.23206247E+04  d E =-.259137E-03
