 256 256   0   0
  0.1419206E+02  0.1537080E-08  0.1537218E-08  0.1537636E-08  0.5000000E-15
  1.000000000000000E-004
  CAR 
 Ir_Ru                                   
     12.68727010     -1.29512999  301      9.24210665      1.00000000
     -1.295  0.0000E+00  0.0000E+00
     -1.249  0.0000E+00  0.0000E+00
     -1.202  0.0000E+00  0.0000E+00
     -1.155  0.0000E+00  0.0000E+00
     -1.109 -0.2764E-28 -0.1288E-29
     -1.062 -0.4127E-25 -0.1925E-26
     -1.015 -0.3975E-22 -0.1855E-23
     -0.969 -0.2470E-19 -0.1153E-20
     -0.922 -0.9902E-17 -0.4627E-18
     -0.876 -0.2485E-14 -0.1163E-15
     -0.829 -0.4121E-12 -0.1932E-13
     -0.782 -0.4401E-10 -0.2071E-11
     -0.736 -0.3028E-08 -0.1432E-09
     -0.689 -0.1343E-06 -0.6404E-08
     -0.643 -0.3847E-05 -0.1857E-06
     -0.596 -0.7134E-04 -0.3511E-05
     -0.549 -0.8589E-03 -0.4354E-04
     -0.503 -0.6716E-02 -0.3566E-03
     -0.456 -0.3370E-01 -0.1927E-02
     -0.410 -0.1023E+00 -0.6696E-02
     -0.363 -0.1375E+00 -0.1310E-01
     -0.316  0.2266E+00 -0.2541E-02
     -0.270  0.1516E+01  0.6812E-01
     -0.223  0.3547E+01  0.2334E+00
     -0.177  0.5075E+01  0.4700E+00
     -0.130  0.5736E+01  0.7373E+00
     -0.083  0.7339E+01  0.1079E+01
     -0.037  0.1021E+02  0.1555E+01
      0.010  0.1102E+02  0.2069E+01
      0.057  0.9143E+01  0.2495E+01
      0.103  0.9397E+01  0.2933E+01
      0.150  0.1318E+02  0.3547E+01
      0.196  0.1592E+02  0.4289E+01
      0.243  0.1605E+02  0.5037E+01
      0.290  0.1674E+02  0.5817E+01
      0.336  0.1850E+02  0.6680E+01
      0.383  0.1833E+02  0.7534E+01
      0.429  0.1743E+02  0.8347E+01
      0.476  0.1983E+02  0.9271E+01
      0.523  0.2339E+02  0.1036E+02
      0.569  0.2405E+02  0.1148E+02
      0.616  0.2227E+02  0.1252E+02
      0.662  0.1870E+02  0.1339E+02
      0.709  0.1406E+02  0.1405E+02
      0.756  0.1114E+02  0.1457E+02
      0.802  0.1072E+02  0.1507E+02
      0.849  0.1114E+02  0.1558E+02
      0.895  0.1216E+02  0.1615E+02
      0.942  0.1466E+02  0.1683E+02
      0.989  0.1836E+02  0.1769E+02
      1.035  0.2291E+02  0.1876E+02
      1.082  0.2811E+02  0.2007E+02
      1.128  0.3126E+02  0.2153E+02
      1.175  0.2972E+02  0.2291E+02
      1.222  0.2587E+02  0.2412E+02
      1.268  0.2304E+02  0.2519E+02
      1.315  0.2093E+02  0.2617E+02
      1.362  0.2000E+02  0.2710E+02
      1.408  0.2162E+02  0.2811E+02
      1.455  0.2408E+02  0.2923E+02
      1.501  0.2568E+02  0.3042E+02
      1.548  0.2899E+02  0.3178E+02
      1.595  0.3511E+02  0.3341E+02
      1.641  0.3872E+02  0.3522E+02
      1.688  0.3786E+02  0.3698E+02
      1.734  0.3932E+02  0.3881E+02
      1.781  0.4556E+02  0.4094E+02
      1.828  0.4932E+02  0.4324E+02
      1.874  0.4780E+02  0.4546E+02
      1.921  0.4732E+02  0.4767E+02
      1.967  0.5096E+02  0.5004E+02
      2.014  0.5413E+02  0.5257E+02
      2.061  0.5548E+02  0.5515E+02
      2.107  0.6141E+02  0.5802E+02
      2.154  0.7466E+02  0.6150E+02
      2.200  0.8953E+02  0.6567E+02
      2.247  0.1033E+03  0.7048E+02
      2.294  0.1180E+03  0.7598E+02
      2.340  0.1311E+03  0.8209E+02
      2.387  0.1382E+03  0.8853E+02
      2.434  0.1432E+03  0.9521E+02
      2.480  0.1524E+03  0.1023E+03
      2.527  0.1610E+03  0.1098E+03
      2.573  0.1617E+03  0.1174E+03
      2.620  0.1614E+03  0.1249E+03
      2.667  0.1690E+03  0.1328E+03
      2.713  0.1785E+03  0.1411E+03
      2.760  0.1849E+03  0.1497E+03
      2.806  0.1981E+03  0.1589E+03
      2.853  0.2233E+03  0.1693E+03
      2.900  0.2479E+03  0.1809E+03
      2.946  0.2563E+03  0.1928E+03
      2.993  0.2495E+03  0.2045E+03
      3.039  0.2468E+03  0.2160E+03
      3.086  0.2624E+03  0.2282E+03
      3.133  0.2868E+03  0.2416E+03
      3.179  0.3014E+03  0.2556E+03
      3.226  0.3039E+03  0.2698E+03
      3.272  0.3052E+03  0.2840E+03
      3.319  0.3086E+03  0.2984E+03
      3.366  0.3111E+03  0.3129E+03
      3.412  0.3142E+03  0.3275E+03
      3.459  0.3214E+03  0.3425E+03
      3.505  0.3331E+03  0.3580E+03
      3.552  0.3439E+03  0.3741E+03
      3.599  0.3468E+03  0.3902E+03
      3.645  0.3449E+03  0.4063E+03
      3.692  0.3488E+03  0.4226E+03
      3.739  0.3577E+03  0.4392E+03
      3.785  0.3592E+03  0.4560E+03
      3.832  0.3522E+03  0.4724E+03
      3.878  0.3478E+03  0.4886E+03
      3.925  0.3497E+03  0.5049E+03
      3.972  0.3506E+03  0.5212E+03
      4.018  0.3413E+03  0.5371E+03
      4.065  0.3226E+03  0.5522E+03
      4.111  0.3067E+03  0.5665E+03
      4.158  0.2975E+03  0.5803E+03
      4.205  0.2872E+03  0.5937E+03
      4.251  0.2710E+03  0.6063E+03
      4.298  0.2534E+03  0.6182E+03
      4.344  0.2426E+03  0.6295E+03
      4.391  0.2454E+03  0.6409E+03
      4.438  0.2579E+03  0.6529E+03
      4.484  0.2617E+03  0.6651E+03
      4.531  0.2505E+03  0.6768E+03
      4.577  0.2478E+03  0.6884E+03
      4.624  0.2675E+03  0.7008E+03
      4.671  0.2923E+03  0.7144E+03
      4.717  0.3070E+03  0.7288E+03
      4.764  0.3137E+03  0.7434E+03
      4.811  0.3134E+03  0.7580E+03
      4.857  0.3046E+03  0.7722E+03
      4.904  0.2899E+03  0.7857E+03
      4.950  0.2785E+03  0.7987E+03
      4.997  0.2814E+03  0.8118E+03
      5.044  0.2955E+03  0.8256E+03
      5.090  0.3079E+03  0.8399E+03
      5.137  0.3091E+03  0.8543E+03
      5.183  0.2975E+03  0.8682E+03
      5.230  0.2856E+03  0.8815E+03
      5.277  0.2846E+03  0.8948E+03
      5.323  0.2905E+03  0.9083E+03
      5.370  0.2974E+03  0.9222E+03
      5.416  0.3018E+03  0.9362E+03
      5.463  0.2984E+03  0.9501E+03
      5.510  0.2886E+03  0.9636E+03
      5.556  0.2869E+03  0.9770E+03
      5.603  0.3032E+03  0.9911E+03
      5.649  0.3218E+03  0.1006E+04
      5.696  0.3252E+03  0.1021E+04
      5.743  0.3201E+03  0.1036E+04
      5.789  0.3200E+03  0.1051E+04
      5.836  0.3264E+03  0.1066E+04
      5.883  0.3370E+03  0.1082E+04
      5.929  0.3504E+03  0.1098E+04
      5.976  0.3656E+03  0.1115E+04
      6.022  0.3791E+03  0.1133E+04
      6.069  0.3855E+03  0.1151E+04
      6.116  0.3875E+03  0.1169E+04
      6.162  0.3917E+03  0.1187E+04
      6.209  0.3988E+03  0.1206E+04
      6.255  0.4100E+03  0.1225E+04
      6.302  0.4277E+03  0.1245E+04
      6.349  0.4468E+03  0.1266E+04
      6.395  0.4574E+03  0.1287E+04
      6.442  0.4571E+03  0.1308E+04
      6.488  0.4532E+03  0.1330E+04
      6.535  0.4499E+03  0.1350E+04
      6.582  0.4453E+03  0.1371E+04
      6.628  0.4389E+03  0.1392E+04
      6.675  0.4316E+03  0.1412E+04
      6.721  0.4246E+03  0.1432E+04
      6.768  0.4166E+03  0.1451E+04
      6.815  0.4010E+03  0.1470E+04
      6.861  0.3761E+03  0.1487E+04
      6.908  0.3540E+03  0.1504E+04
      6.954  0.3441E+03  0.1520E+04
      7.001  0.3390E+03  0.1536E+04
      7.048  0.3273E+03  0.1551E+04
      7.094  0.3146E+03  0.1566E+04
      7.141  0.3137E+03  0.1580E+04
      7.188  0.3195E+03  0.1595E+04
      7.234  0.3130E+03  0.1610E+04
      7.281  0.2867E+03  0.1623E+04
      7.327  0.2552E+03  0.1635E+04
      7.374  0.2401E+03  0.1646E+04
      7.421  0.2492E+03  0.1658E+04
      7.467  0.2717E+03  0.1670E+04
      7.514  0.2846E+03  0.1684E+04
      7.560  0.2760E+03  0.1696E+04
      7.607  0.2581E+03  0.1708E+04
      7.654  0.2483E+03  0.1720E+04
      7.700  0.2577E+03  0.1732E+04
      7.747  0.2836E+03  0.1745E+04
      7.793  0.3058E+03  0.1760E+04
      7.840  0.3120E+03  0.1774E+04
      7.887  0.3087E+03  0.1788E+04
      7.933  0.3029E+03  0.1803E+04
      7.980  0.2959E+03  0.1816E+04
      8.026  0.2910E+03  0.1830E+04
      8.073  0.2961E+03  0.1844E+04
      8.120  0.3096E+03  0.1858E+04
      8.166  0.3171E+03  0.1873E+04
      8.213  0.3178E+03  0.1888E+04
      8.260  0.3304E+03  0.1903E+04
      8.306  0.3543E+03  0.1920E+04
      8.353  0.3622E+03  0.1937E+04
      8.399  0.3388E+03  0.1952E+04
      8.446  0.2988E+03  0.1966E+04
      8.493  0.2662E+03  0.1979E+04
      8.539  0.2558E+03  0.1991E+04
      8.586  0.2717E+03  0.2003E+04
      8.632  0.2961E+03  0.2017E+04
      8.679  0.3000E+03  0.2031E+04
      8.726  0.2835E+03  0.2044E+04
      8.772  0.2671E+03  0.2057E+04
      8.819  0.2566E+03  0.2069E+04
      8.865  0.2489E+03  0.2080E+04
      8.912  0.2450E+03  0.2092E+04
      8.959  0.2454E+03  0.2103E+04
      9.005  0.2539E+03  0.2115E+04
      9.052  0.2740E+03  0.2128E+04
      9.098  0.2839E+03  0.2141E+04
      9.145  0.2652E+03  0.2153E+04
      9.192  0.2402E+03  0.2165E+04
      9.238  0.2280E+03  0.2175E+04
      9.285  0.2196E+03  0.2185E+04
      9.331  0.2138E+03  0.2195E+04
      9.378  0.2224E+03  0.2206E+04
      9.425  0.2432E+03  0.2217E+04
      9.471  0.2628E+03  0.2229E+04
      9.518  0.2738E+03  0.2242E+04
      9.565  0.2773E+03  0.2255E+04
      9.611  0.2761E+03  0.2268E+04
      9.658  0.2707E+03  0.2280E+04
      9.704  0.2606E+03  0.2293E+04
      9.751  0.2432E+03  0.2304E+04
      9.798  0.2238E+03  0.2314E+04
      9.844  0.2197E+03  0.2325E+04
      9.891  0.2374E+03  0.2336E+04
      9.937  0.2651E+03  0.2348E+04
      9.984  0.2962E+03  0.2362E+04
     10.031  0.3284E+03  0.2377E+04
     10.077  0.3496E+03  0.2393E+04
     10.124  0.3459E+03  0.2410E+04
     10.170  0.3231E+03  0.2425E+04
     10.217  0.3102E+03  0.2439E+04
     10.264  0.3305E+03  0.2454E+04
     10.310  0.3898E+03  0.2473E+04
     10.357  0.4691E+03  0.2495E+04
     10.403  0.5195E+03  0.2519E+04
     10.450  0.5078E+03  0.2542E+04
     10.497  0.4479E+03  0.2563E+04
     10.543  0.3711E+03  0.2581E+04
     10.590  0.2997E+03  0.2595E+04
     10.637  0.2466E+03  0.2606E+04
     10.683  0.2114E+03  0.2616E+04
     10.730  0.1798E+03  0.2624E+04
     10.776  0.1405E+03  0.2631E+04
     10.823  0.9537E+02  0.2635E+04
     10.870  0.5466E+02  0.2638E+04
     10.916  0.2620E+02  0.2639E+04
     10.963  0.1019E+02  0.2639E+04
     11.009  0.3178E+01  0.2640E+04
     11.056  0.1483E+01  0.2640E+04
     11.103  0.1712E+01  0.2640E+04
     11.149  0.1503E+01  0.2640E+04
     11.196  0.6203E+00  0.2640E+04
     11.242 -0.2389E-02  0.2640E+04
     11.289 -0.1093E+00  0.2640E+04
     11.336 -0.4680E-01  0.2640E+04
     11.382 -0.9977E-02  0.2640E+04
     11.429 -0.3410E-02  0.2640E+04
     11.475 -0.1370E-01  0.2640E+04
     11.522 -0.4318E-01  0.2640E+04
     11.569 -0.3315E-01  0.2640E+04
     11.615  0.2116E+00  0.2640E+04
     11.662  0.7300E+00  0.2640E+04
     11.709  0.1025E+01  0.2640E+04
     11.755  0.7074E+00  0.2640E+04
     11.802  0.1940E+00  0.2640E+04
     11.848 -0.3673E-01  0.2640E+04
     11.895 -0.4181E-01  0.2640E+04
     11.942 -0.1275E-01  0.2640E+04
     11.988 -0.2040E-02  0.2640E+04
     12.035 -0.1919E-03  0.2640E+04
     12.081 -0.1106E-04  0.2640E+04
     12.128 -0.3992E-06  0.2640E+04
     12.175 -0.9108E-08  0.2640E+04
     12.221 -0.1323E-09  0.2640E+04
     12.268 -0.1229E-11  0.2640E+04
     12.314 -0.7444E-14  0.2640E+04
     12.361  0.0000E+00  0.2640E+04
     12.408  0.0000E+00  0.2640E+04
     12.454  0.0000E+00  0.2640E+04
     12.501  0.0000E+00  0.2640E+04
     12.547  0.0000E+00  0.2640E+04
     12.594  0.0000E+00  0.2640E+04
     12.641  0.0000E+00  0.2640E+04
     12.687  0.0000E+00  0.2640E+04
