  64  64   0   0
  0.1435566E+02  0.1091204E-08  0.1091204E-08  0.1091204E-08  0.5000000E-15
  1.000000000000000E-004
  CAR 
 Ir_Ru                                   
     15.01485061     -1.54127147  301      9.61563201      1.00000000
     -1.541  0.0000E+00  0.0000E+00
     -1.486  0.0000E+00  0.0000E+00
     -1.431  0.0000E+00  0.0000E+00
     -1.376 -0.3932E-30 -0.2170E-31
     -1.321 -0.2707E-26 -0.1494E-27
     -1.265 -0.1008E-22 -0.5566E-24
     -1.210 -0.2030E-19 -0.1121E-20
     -1.155 -0.2208E-16 -0.1220E-17
     -1.100 -0.1255E-13 -0.6936E-15
     -1.045 -0.3928E-11 -0.2175E-12
     -0.989 -0.6583E-09 -0.3655E-10
     -0.934 -0.5870E-07 -0.3276E-08
     -0.879 -0.2758E-05 -0.1555E-06
     -0.824 -0.6723E-04 -0.3866E-05
     -0.769 -0.8280E-03 -0.4956E-04
     -0.713 -0.4935E-02 -0.3219E-03
     -0.658 -0.1351E-01 -0.1068E-02
     -0.603 -0.1599E-01 -0.1950E-02
     -0.548  0.3579E-01  0.2470E-04
     -0.493  0.4121E+00  0.2277E-01
     -0.438  0.1269E+01  0.9280E-01
     -0.382  0.1616E+01  0.1820E+00
     -0.327  0.1085E+01  0.2419E+00
     -0.272  0.1125E+01  0.3040E+00
     -0.217  0.2188E+01  0.4247E+00
     -0.162  0.3719E+01  0.6300E+00
     -0.106  0.3875E+01  0.8438E+00
     -0.051  0.1826E+01  0.9446E+00
      0.004  0.4762E+00  0.9709E+00
      0.059  0.1682E+01  0.1064E+01
      0.114  0.4620E+01  0.1319E+01
      0.170  0.5712E+01  0.1634E+01
      0.225  0.3928E+01  0.1851E+01
      0.280  0.3274E+01  0.2031E+01
      0.335  0.4283E+01  0.2268E+01
      0.390  0.4580E+01  0.2520E+01
      0.445  0.2779E+01  0.2674E+01
      0.501  0.1008E+01  0.2729E+01
      0.556  0.2754E+01  0.2881E+01
      0.611  0.7779E+01  0.3311E+01
      0.666  0.9708E+01  0.3846E+01
      0.721  0.5724E+01  0.4162E+01
      0.777  0.3765E+01  0.4370E+01
      0.832  0.5860E+01  0.4694E+01
      0.887  0.6625E+01  0.5059E+01
      0.942  0.4343E+01  0.5299E+01
      0.997  0.1722E+01  0.5394E+01
      1.053  0.3066E+01  0.5563E+01
      1.108  0.7835E+01  0.5995E+01
      1.163  0.1052E+02  0.6576E+01
      1.218  0.1090E+02  0.7178E+01
      1.273  0.1037E+02  0.7750E+01
      1.328  0.8350E+01  0.8211E+01
      1.384  0.5959E+01  0.8540E+01
      1.439  0.6013E+01  0.8872E+01
      1.494  0.7589E+01  0.9290E+01
      1.549  0.6912E+01  0.9672E+01
      1.604  0.5349E+01  0.9967E+01
      1.660  0.7258E+01  0.1037E+02
      1.715  0.1270E+02  0.1107E+02
      1.770  0.1744E+02  0.1203E+02
      1.825  0.1811E+02  0.1303E+02
      1.880  0.1594E+02  0.1391E+02
      1.936  0.1324E+02  0.1464E+02
      1.991  0.1172E+02  0.1529E+02
      2.046  0.1166E+02  0.1593E+02
      2.101  0.1402E+02  0.1671E+02
      2.156  0.2268E+02  0.1796E+02
      2.211  0.3113E+02  0.1968E+02
      2.267  0.3363E+02  0.2153E+02
      2.322  0.3880E+02  0.2367E+02
      2.377  0.4323E+02  0.2606E+02
      2.432  0.3674E+02  0.2809E+02
      2.487  0.2964E+02  0.2972E+02
      2.543  0.2485E+02  0.3109E+02
      2.598  0.2042E+02  0.3222E+02
      2.653  0.2527E+02  0.3361E+02
      2.708  0.3605E+02  0.3560E+02
      2.763  0.4146E+02  0.3789E+02
      2.819  0.4778E+02  0.4053E+02
      2.874  0.5969E+02  0.4382E+02
      2.929  0.6536E+02  0.4743E+02
      2.984  0.6075E+02  0.5078E+02
      3.039  0.6138E+02  0.5417E+02
      3.094  0.7707E+02  0.5842E+02
      3.150  0.9421E+02  0.6362E+02
      3.205  0.1018E+03  0.6924E+02
      3.260  0.9791E+02  0.7464E+02
      3.315  0.9094E+02  0.7966E+02
      3.370  0.9005E+02  0.8463E+02
      3.426  0.8997E+02  0.8960E+02
      3.481  0.8744E+02  0.9442E+02
      3.536  0.8504E+02  0.9911E+02
      3.591  0.8844E+02  0.1040E+03
      3.646  0.9215E+02  0.1091E+03
      3.702  0.8652E+02  0.1139E+03
      3.757  0.7711E+02  0.1181E+03
      3.812  0.7774E+02  0.1224E+03
      3.867  0.8380E+02  0.1270E+03
      3.922  0.7491E+02  0.1312E+03
      3.977  0.6087E+02  0.1345E+03
      4.033  0.6905E+02  0.1383E+03
      4.088  0.8278E+02  0.1429E+03
      4.143  0.7682E+02  0.1471E+03
      4.198  0.6314E+02  0.1506E+03
      4.253  0.5223E+02  0.1535E+03
      4.309  0.4975E+02  0.1563E+03
      4.364  0.5999E+02  0.1596E+03
      4.419  0.6687E+02  0.1633E+03
      4.474  0.6027E+02  0.1666E+03
      4.529  0.5104E+02  0.1694E+03
      4.584  0.4791E+02  0.1720E+03
      4.640  0.5429E+02  0.1750E+03
      4.695  0.6902E+02  0.1788E+03
      4.750  0.8561E+02  0.1836E+03
      4.805  0.9054E+02  0.1886E+03
      4.860  0.7273E+02  0.1926E+03
      4.916  0.5644E+02  0.1957E+03
      4.971  0.6086E+02  0.1991E+03
      5.026  0.6963E+02  0.2029E+03
      5.081  0.7278E+02  0.2069E+03
      5.136  0.7380E+02  0.2110E+03
      5.192  0.7747E+02  0.2153E+03
      5.247  0.8260E+02  0.2198E+03
      5.302  0.8446E+02  0.2245E+03
      5.357  0.8676E+02  0.2293E+03
      5.412  0.8632E+02  0.2340E+03
      5.467  0.7415E+02  0.2381E+03
      5.523  0.6236E+02  0.2416E+03
      5.578  0.6352E+02  0.2451E+03
      5.633  0.8111E+02  0.2495E+03
      5.688  0.1059E+03  0.2554E+03
      5.743  0.1131E+03  0.2616E+03
      5.799  0.9600E+02  0.2669E+03
      5.854  0.6999E+02  0.2708E+03
      5.909  0.5913E+02  0.2741E+03
      5.964  0.6402E+02  0.2776E+03
      6.019  0.7053E+02  0.2815E+03
      6.075  0.7464E+02  0.2856E+03
      6.130  0.8362E+02  0.2902E+03
      6.185  0.1050E+03  0.2960E+03
      6.240  0.1189E+03  0.3026E+03
      6.295  0.1114E+03  0.3087E+03
      6.350  0.1075E+03  0.3147E+03
      6.406  0.1128E+03  0.3209E+03
      6.461  0.1090E+03  0.3269E+03
      6.516  0.1068E+03  0.3328E+03
      6.571  0.1178E+03  0.3393E+03
      6.626  0.1404E+03  0.3470E+03
      6.682  0.1480E+03  0.3552E+03
      6.737  0.1202E+03  0.3618E+03
      6.792  0.8983E+02  0.3668E+03
      6.847  0.8032E+02  0.3712E+03
      6.902  0.7831E+02  0.3756E+03
      6.958  0.7835E+02  0.3799E+03
      7.013  0.8169E+02  0.3844E+03
      7.068  0.8772E+02  0.3892E+03
      7.123  0.8980E+02  0.3942E+03
      7.178  0.7316E+02  0.3982E+03
      7.233  0.5626E+02  0.4013E+03
      7.289  0.6453E+02  0.4049E+03
      7.344  0.6839E+02  0.4087E+03
      7.399  0.5817E+02  0.4119E+03
      7.454  0.6320E+02  0.4154E+03
      7.509  0.7075E+02  0.4193E+03
      7.565  0.6407E+02  0.4228E+03
      7.620  0.5711E+02  0.4260E+03
      7.675  0.5762E+02  0.4291E+03
      7.730  0.6140E+02  0.4325E+03
      7.785  0.6656E+02  0.4362E+03
      7.841  0.7384E+02  0.4403E+03
      7.896  0.8153E+02  0.4448E+03
      7.951  0.7587E+02  0.4490E+03
      8.006  0.6638E+02  0.4526E+03
      8.061  0.7794E+02  0.4569E+03
      8.116  0.9370E+02  0.4621E+03
      8.172  0.8626E+02  0.4669E+03
      8.227  0.7562E+02  0.4710E+03
      8.282  0.7920E+02  0.4754E+03
      8.337  0.7728E+02  0.4797E+03
      8.392  0.6819E+02  0.4834E+03
      8.448  0.6128E+02  0.4868E+03
      8.503  0.5259E+02  0.4897E+03
      8.558  0.4719E+02  0.4923E+03
      8.613  0.4949E+02  0.4950E+03
      8.668  0.5819E+02  0.4983E+03
      8.724  0.7483E+02  0.5024E+03
      8.779  0.8375E+02  0.5070E+03
      8.834  0.8165E+02  0.5115E+03
      8.889  0.8435E+02  0.5162E+03
      8.944  0.8722E+02  0.5210E+03
      8.999  0.8055E+02  0.5254E+03
      9.055  0.7029E+02  0.5293E+03
      9.110  0.5823E+02  0.5325E+03
      9.165  0.4667E+02  0.5351E+03
      9.220  0.3589E+02  0.5371E+03
      9.275  0.3260E+02  0.5389E+03
      9.331  0.4451E+02  0.5413E+03
      9.386  0.5643E+02  0.5444E+03
      9.441  0.5608E+02  0.5475E+03
      9.496  0.5396E+02  0.5505E+03
      9.551  0.6622E+02  0.5542E+03
      9.607  0.8937E+02  0.5591E+03
      9.662  0.9743E+02  0.5645E+03
      9.717  0.8447E+02  0.5691E+03
      9.772  0.6634E+02  0.5728E+03
      9.827  0.5425E+02  0.5758E+03
      9.882  0.4653E+02  0.5784E+03
      9.938  0.4056E+02  0.5806E+03
      9.993  0.4462E+02  0.5831E+03
     10.048  0.5756E+02  0.5862E+03
     10.103  0.6573E+02  0.5899E+03
     10.158  0.7655E+02  0.5941E+03
     10.214  0.9410E+02  0.5993E+03
     10.269  0.9927E+02  0.6048E+03
     10.324  0.9737E+02  0.6101E+03
     10.379  0.9833E+02  0.6156E+03
     10.434  0.9507E+02  0.6208E+03
     10.490  0.9395E+02  0.6260E+03
     10.545  0.1004E+03  0.6315E+03
     10.600  0.1032E+03  0.6372E+03
     10.655  0.9641E+02  0.6426E+03
     10.710  0.8784E+02  0.6474E+03
     10.765  0.8487E+02  0.6521E+03
     10.821  0.8719E+02  0.6569E+03
     10.876  0.8432E+02  0.6616E+03
     10.931  0.6721E+02  0.6653E+03
     10.986  0.4471E+02  0.6677E+03
     11.041  0.3063E+02  0.6694E+03
     11.097  0.2288E+02  0.6707E+03
     11.152  0.1514E+02  0.6715E+03
     11.207  0.9752E+01  0.6721E+03
     11.262  0.6843E+01  0.6724E+03
     11.317  0.4434E+01  0.6727E+03
     11.373  0.3221E+01  0.6729E+03
     11.428  0.2517E+01  0.6730E+03
     11.483  0.1892E+01  0.6731E+03
     11.538  0.2570E+01  0.6732E+03
     11.593  0.4689E+01  0.6735E+03
     11.648  0.7048E+01  0.6739E+03
     11.704  0.7786E+01  0.6743E+03
     11.759  0.5641E+01  0.6746E+03
     11.814  0.3480E+01  0.6748E+03
     11.869  0.3100E+01  0.6750E+03
     11.924  0.2676E+01  0.6751E+03
     11.980  0.2467E+01  0.6753E+03
     12.035  0.3008E+01  0.6754E+03
     12.090  0.3323E+01  0.6756E+03
     12.145  0.2857E+01  0.6758E+03
     12.200  0.1593E+01  0.6759E+03
     12.255  0.2790E+00  0.6759E+03
     12.311 -0.1495E-01  0.6759E+03
     12.366  0.1373E+01  0.6760E+03
     12.421  0.3699E+01  0.6762E+03
     12.476  0.4917E+01  0.6764E+03
     12.531  0.4011E+01  0.6767E+03
     12.587  0.2339E+01  0.6768E+03
     12.642  0.1914E+01  0.6769E+03
     12.697  0.2801E+01  0.6770E+03
     12.752  0.4009E+01  0.6773E+03
     12.807  0.5226E+01  0.6776E+03
     12.863  0.5766E+01  0.6779E+03
     12.918  0.4853E+01  0.6781E+03
     12.973  0.3124E+01  0.6783E+03
     13.028  0.1742E+01  0.6784E+03
     13.083  0.1554E+01  0.6785E+03
     13.138  0.2253E+01  0.6786E+03
     13.194  0.1941E+01  0.6787E+03
     13.249  0.5460E+00  0.6788E+03
     13.304 -0.2252E+00  0.6787E+03
     13.359  0.3322E+00  0.6788E+03
     13.414  0.2153E+01  0.6789E+03
     13.470  0.3085E+01  0.6791E+03
     13.525  0.1866E+01  0.6792E+03
     13.580  0.1323E+01  0.6792E+03
     13.635  0.2070E+01  0.6793E+03
     13.690  0.1834E+01  0.6794E+03
     13.746  0.9448E+00  0.6795E+03
     13.801  0.8004E+00  0.6795E+03
     13.856  0.9568E+00  0.6796E+03
     13.911  0.1409E+01  0.6797E+03
     13.966  0.2395E+01  0.6798E+03
     14.021  0.2408E+01  0.6799E+03
     14.077  0.1169E+01  0.6800E+03
     14.132  0.1521E+00  0.6800E+03
     14.187 -0.9331E-01  0.6800E+03
     14.242 -0.4264E-01  0.6800E+03
     14.297 -0.7056E-02  0.6800E+03
     14.353 -0.5583E-03  0.6800E+03
     14.408 -0.2252E-04  0.6800E+03
     14.463 -0.4746E-06  0.6800E+03
     14.518 -0.5296E-08  0.6800E+03
     14.573 -0.3151E-10  0.6800E+03
     14.629 -0.1004E-12  0.6800E+03
     14.684  0.0000E+00  0.6800E+03
     14.739  0.0000E+00  0.6800E+03
     14.794  0.0000E+00  0.6800E+03
     14.849  0.0000E+00  0.6800E+03
     14.904  0.0000E+00  0.6800E+03
     14.960  0.0000E+00  0.6800E+03
     15.015  0.0000E+00  0.6800E+03
