<?xml version="1.0" encoding="ISO-8859-1"?>
<modeling>
 <generator>
  <i name="program" type="string">vasp </i>
  <i name="version" type="string">5.4.1  </i>
  <i name="subversion" type="string">24Jun15 (build Feb 03 2017 16:24:58) complex                          parallel </i>
  <i name="platform" type="string">IFC91_ompi </i>
  <i name="date" type="string">2018 06 25 </i>
  <i name="time" type="string">12:40:19 </i>
 </generator>
 <incar>
  <i type="string" name="SYSTEM"> Ir_Ru</i>
  <i type="int" name="ISTART">     0</i>
  <i type="string" name="PREC">accurate</i>
  <i type="string" name="ALGO"> Very_Fast</i>
  <i type="int" name="ICHARG">     2</i>
  <i type="int" name="NELMIN">     5</i>
  <i type="int" name="IBRION">    -1</i>
  <i name="EDIFFG">      0.00001000</i>
  <i type="int" name="ISIF">     2</i>
  <i type="string" name="LREAL"> AUTO</i>
  <i type="int" name="ISMEAR">     1</i>
  <i name="SIGMA">      0.10000000</i>
  <v type="int" name="KPOINT_BSE">    -1     0     0     0</v>
 </incar>
 <kpoints>
  <generation param="Gamma">
   <v type="int" name="divisions">       5        5        5 </v>
   <v name="usershift">      0.00000000       0.00000000       0.00000000 </v>
   <v name="genvec1">      0.20000000       0.00000000       0.00000000 </v>
   <v name="genvec2">      0.00000000       0.20000000       0.00000000 </v>
   <v name="genvec3">      0.00000000       0.00000000       0.20000000 </v>
   <v name="shift">      0.00000000       0.00000000       0.00000000 </v>
  </generation>
  <varray name="kpointlist" >
   <v>       0.00000000       0.00000000       0.00000000 </v>
   <v>       0.20000000       0.00000000       0.00000000 </v>
   <v>       0.40000000       0.00000000       0.00000000 </v>
   <v>       0.20000000       0.20000000       0.00000000 </v>
   <v>       0.40000000       0.20000000       0.00000000 </v>
   <v>      -0.40000000       0.20000000       0.00000000 </v>
   <v>      -0.20000000       0.20000000       0.00000000 </v>
   <v>       0.40000000       0.40000000       0.00000000 </v>
   <v>      -0.40000000       0.40000000       0.00000000 </v>
   <v>       0.20000000       0.00000000       0.20000000 </v>
   <v>       0.40000000       0.00000000       0.20000000 </v>
   <v>      -0.40000000       0.00000000       0.20000000 </v>
   <v>      -0.20000000       0.00000000       0.20000000 </v>
   <v>      -0.40000000       0.40000000       0.20000000 </v>
   <v>      -0.20000000       0.40000000       0.20000000 </v>
   <v>       0.40000000       0.00000000       0.40000000 </v>
   <v>      -0.40000000       0.00000000       0.40000000 </v>
   <v>      -0.40000000       0.20000000       0.40000000 </v>
  </varray>
  <varray name="weights" >
   <v>       0.00800000 </v>
   <v>       0.06400000 </v>
   <v>       0.06400000 </v>
   <v>       0.01600000 </v>
   <v>       0.06400000 </v>
   <v>       0.06400000 </v>
   <v>       0.03200000 </v>
   <v>       0.01600000 </v>
   <v>       0.03200000 </v>
   <v>       0.03200000 </v>
   <v>       0.12800000 </v>
   <v>       0.12800000 </v>
   <v>       0.06400000 </v>
   <v>       0.06400000 </v>
   <v>       0.06400000 </v>
   <v>       0.03200000 </v>
   <v>       0.06400000 </v>
   <v>       0.06400000 </v>
  </varray>
 </kpoints>
 <parameters>
  <separator name="general" >
   <i type="string" name="SYSTEM">Ir_Ru</i>
   <i type="logical" name="LCOMPAT"> F  </i>
  </separator>
  <separator name="electronic" >
   <i type="string" name="PREC">accura</i>
   <i name="ENMAX">    213.27600000</i>
   <i name="ENAUG">    333.49400000</i>
   <i name="EDIFF">      0.00010000</i>
   <i type="int" name="IALGO">    48</i>
   <i type="int" name="IWAVPR">    10</i>
   <i type="int" name="NBANDS">   340</i>
   <i name="NELECT">    560.00000000</i>
   <i type="int" name="TURBO">     0</i>
   <i type="int" name="IRESTART">     0</i>
   <i type="int" name="NREBOOT">     0</i>
   <i type="int" name="NMIN">     0</i>
   <i name="EREF">      0.00000000</i>
   <separator name="electronic smearing" >
    <i type="int" name="ISMEAR">     1</i>
    <i name="SIGMA">      0.10000000</i>
    <i name="KSPACING">      0.50000000</i>
    <i type="logical" name="KGAMMA"> T  </i>
   </separator>
   <separator name="electronic projectors" >
    <i type="logical" name="LREAL"> T  </i>
    <v name="ROPT">     -0.00025000     -0.00025000</v>
    <i type="int" name="LMAXPAW">  -100</i>
    <i type="int" name="LMAXMIX">     2</i>
    <i type="logical" name="NLSPLINE"> F  </i>
   </separator>
   <separator name="electronic startup" >
    <i type="int" name="ISTART">     0</i>
    <i type="int" name="ICHARG">     2</i>
    <i type="int" name="INIWAV">     1</i>
   </separator>
   <separator name="electronic spin" >
    <i type="int" name="ISPIN">     1</i>
    <i type="logical" name="LNONCOLLINEAR"> F  </i>
    <v name="MAGMOM">      1.00000000      1.00000000      1.00000000      1.00000000      1.00000000      1.00000000      1.00000000      1.00000000      1.00000000      1.00000000      1.00000000      1.00000000      1.00000000      1.00000000      1.00000000      1.00000000      1.00000000      1.00000000      1.00000000      1.00000000
      1.00000000      1.00000000      1.00000000      1.00000000      1.00000000      1.00000000      1.00000000      1.00000000      1.00000000      1.00000000      1.00000000      1.00000000      1.00000000      1.00000000      1.00000000      1.00000000      1.00000000      1.00000000      1.00000000      1.00000000
      1.00000000      1.00000000      1.00000000      1.00000000      1.00000000      1.00000000      1.00000000      1.00000000      1.00000000      1.00000000      1.00000000      1.00000000      1.00000000      1.00000000      1.00000000      1.00000000      1.00000000      1.00000000      1.00000000      1.00000000
      1.00000000      1.00000000      1.00000000      1.00000000</v>
    <i name="NUPDOWN">     -1.00000000</i>
    <i type="logical" name="LSORBIT"> F  </i>
    <v name="SAXIS">      0.00000000      0.00000000      1.00000000</v>
    <i type="logical" name="LSPIRAL"> F  </i>
    <v name="QSPIRAL">      0.00000000      0.00000000      0.00000000</v>
    <i type="logical" name="LZEROZ"> F  </i>
   </separator>
   <separator name="electronic exchange-correlation" >
    <i type="logical" name="LASPH"> F  </i>
    <i type="logical" name="LMETAGGA"> F  </i>
   </separator>
   <separator name="electronic convergence" >
    <i type="int" name="NELM">    60</i>
    <i type="int" name="NELMDL">   -12</i>
    <i type="int" name="NELMIN">     5</i>
    <i name="ENINI">    213.27600000</i>
    <separator name="electronic convergence detail" >
     <i type="logical" name="LDIAG"> T  </i>
     <i type="logical" name="LSUBROT"> F  </i>
     <i name="WEIMIN">      0.00000000</i>
     <i name="EBREAK">      0.00000000</i>
     <i name="DEPER">      0.30000000</i>
     <i type="int" name="NRMM">     4</i>
     <i name="TIME">      0.40000000</i>
    </separator>
   </separator>
   <separator name="electronic mixer" >
    <i name="AMIX">      0.40000000</i>
    <i name="BMIX">      1.00000000</i>
    <i name="AMIN">      0.10000000</i>
    <i name="AMIX_MAG">      1.60000000</i>
    <i name="BMIX_MAG">      1.00000000</i>
    <separator name="electronic mixer details" >
     <i type="int" name="IMIX">     4</i>
     <i type="logical" name="MIXFIRST"> F  </i>
     <i type="int" name="MAXMIX">   -45</i>
     <i name="WC">    100.00000000</i>
     <i type="int" name="INIMIX">     1</i>
     <i type="int" name="MIXPRE">     1</i>
     <i type="int" name="MREMOVE">     5</i>
    </separator>
   </separator>
   <separator name="electronic dipolcorrection" >
    <i type="logical" name="LDIPOL"> F  </i>
    <i type="logical" name="LMONO"> F  </i>
    <i type="int" name="IDIPOL">     0</i>
    <i name="EPSILON">      1.00000000</i>
    <v name="DIPOL">   -100.00000000   -100.00000000   -100.00000000</v>
    <i name="EFIELD">      0.00000000</i>
   </separator>
  </separator>
  <separator name="grids" >
   <i type="int" name="NGX">    54</i>
   <i type="int" name="NGY">    54</i>
   <i type="int" name="NGZ">    54</i>
   <i type="int" name="NGXF">   108</i>
   <i type="int" name="NGYF">   108</i>
   <i type="int" name="NGZF">   108</i>
   <i type="logical" name="ADDGRID"> F  </i>
  </separator>
  <separator name="ionic" >
   <i type="int" name="NSW">     0</i>
   <i type="int" name="IBRION">    -1</i>
   <i type="int" name="ISIF">     2</i>
   <i name="PSTRESS">      0.00000000</i>
   <i name="EDIFFG">      0.00001000</i>
   <i type="int" name="NFREE">     0</i>
   <i name="POTIM">      0.50000000</i>
   <i name="SMASS">     -3.00000000</i>
   <i name="SCALEE">      1.00000000</i>
  </separator>
  <separator name="ionic md" >
   <i name="TEBEG">      0.00010000</i>
   <i name="TEEND">      0.00010000</i>
   <i type="int" name="NBLOCK">     1</i>
   <i type="int" name="KBLOCK">     1</i>
   <i type="int" name="NPACO">   256</i>
   <i name="APACO">     16.00000000</i>
  </separator>
  <separator name="symmetry" >
   <i type="int" name="ISYM">     2</i>
   <i name="SYMPREC">      0.00001000</i>
  </separator>
  <separator name="dos" >
   <i type="logical" name="LORBIT"> F  </i>
   <v name="RWIGS">     -1.00000000     -1.00000000</v>
   <i type="int" name="NEDOS">   301</i>
   <i name="EMIN">     10.00000000</i>
   <i name="EMAX">    -10.00000000</i>
   <i name="EFERMI">      0.00000000</i>
  </separator>
  <separator name="writing" >
   <i type="int" name="NWRITE">     2</i>
   <i type="logical" name="LWAVE"> T  </i>
   <i type="logical" name="LCHARG"> T  </i>
   <i type="logical" name="LPARD"> F  </i>
   <i type="logical" name="LVTOT"> F  </i>
   <i type="logical" name="LVHAR"> F  </i>
   <i type="logical" name="LELF"> F  </i>
   <i type="logical" name="LOPTICS"> F  </i>
   <v name="STM">      0.00000000      0.00000000      0.00000000      0.00000000      0.00000000      0.00000000      0.00000000</v>
  </separator>
  <separator name="performance" >
   <i type="int" name="NPAR">    20</i>
   <i type="int" name="NSIM">     4</i>
   <i type="int" name="NBLK">    -1</i>
   <i type="logical" name="LPLANE"> T  </i>
   <i type="logical" name="LSCALAPACK"> T  </i>
   <i type="logical" name="LSCAAWARE"> F  </i>
   <i type="logical" name="LSCALU"> F  </i>
   <i type="logical" name="LASYNC"> F  </i>
   <i type="logical" name="LORBITALREAL"> F  </i>
  </separator>
  <separator name="miscellaneous" >
   <i type="int" name="IDIOT">     3</i>
   <i type="logical" name="LMUSIC"> F  </i>
   <v name="POMASS">    192.22000000    101.07000000</v>
   <v name="DARWINR">      0.00000000      0.00000000</v>
   <v name="DARWINV">      1.00000000      1.00000000</v>
   <i type="logical" name="LCORR"> T  </i>
  </separator>
  <i type="logical" name="GGA_COMPAT"> T  </i>
  <i type="logical" name="LBERRY"> F  </i>
  <i type="int" name="ICORELEVEL">     0</i>
  <i type="logical" name="LDAU"> F  </i>
  <i type="int" name="I_CONSTRAINED_M">     0</i>
  <separator name="electronic exchange-correlation" >
   <i type="string" name="GGA">--</i>
   <i type="int" name="VOSKOWN">     0</i>
   <i type="logical" name="LHFCALC"> F  </i>
   <i type="string" name="PRECFOCK"></i>
   <i type="logical" name="LSYMGRAD"> F  </i>
   <i type="logical" name="LHFONE"> F  </i>
   <i type="logical" name="LRHFCALC"> F  </i>
   <i type="logical" name="LTHOMAS"> F  </i>
   <i type="logical" name="LMODELHF"> F  </i>
   <i name="ENCUT4O">     -1.00000000</i>
   <i type="int" name="EXXOEP">     0</i>
   <i type="int" name="FOURORBIT">     0</i>
   <i name="AEXX">      0.00000000</i>
   <i name="HFALPHA">      0.00000000</i>
   <i name="MCALPHA">      0.00000000</i>
   <i name="ALDAX">      1.00000000</i>
   <i name="AGGAX">      1.00000000</i>
   <i name="ALDAC">      1.00000000</i>
   <i name="AGGAC">      1.00000000</i>
   <i type="int" name="NKREDX">     1</i>
   <i type="int" name="NKREDY">     1</i>
   <i type="int" name="NKREDZ">     1</i>
   <i type="logical" name="SHIFTRED"> F  </i>
   <i type="logical" name="ODDONLY"> F  </i>
   <i type="logical" name="EVENONLY"> F  </i>
   <i type="int" name="LMAXFOCK">     0</i>
   <i type="int" name="NMAXFOCKAE">     0</i>
   <i type="logical" name="LFOCKAEDFT"> F  </i>
   <i name="HFSCREEN">      0.00000000</i>
   <i name="HFSCREENC">      0.00000000</i>
   <i type="int" name="NBANDSGWLOW">     0</i>
  </separator>
  <separator name="vdW DFT" >
   <i type="logical" name="LUSE_VDW"> F  </i>
   <i name="Zab_VDW">     -0.84910000</i>
   <i name="PARAM1">      0.12340000</i>
   <i name="PARAM2">      1.00000000</i>
   <i name="PARAM3">      0.00000000</i>
  </separator>
  <separator name="model GW" >
   <i type="int" name="MODEL_GW">     0</i>
   <i name="MODEL_EPS0">      8.61339873</i>
   <i name="MODEL_ALPHA">      1.00000000</i>
  </separator>
  <separator name="linear response parameters" >
   <i type="logical" name="LEPSILON"> F  </i>
   <i type="logical" name="LRPA"> F  </i>
   <i type="logical" name="LNABLA"> F  </i>
   <i type="logical" name="LVEL"> F  </i>
   <i type="int" name="KINTER">     0</i>
   <i name="CSHIFT">      0.10000000</i>
   <i name="OMEGAMAX">     -1.00000000</i>
   <i name="DEG_THRESHOLD">      0.00200000</i>
  </separator>
  <separator name="orbital magnetization" >
   <i type="logical" name="NUCIND"> F  </i>
   <v name="MAGPOS">      0.00000000      0.00000000      0.00000000</v>
   <i type="logical" name="LNICSALL"> T  </i>
   <i type="logical" name="ORBITALMAG"> F  </i>
   <i type="logical" name="LMAGBLOCH"> F  </i>
   <i type="logical" name="LCHIMAG"> F  </i>
   <i type="logical" name="LGAUGE"> T  </i>
   <i type="int" name="MAGATOM">     0</i>
   <v name="MAGDIPOL">      0.00000000      0.00000000      0.00000000</v>
   <v name="AVECCONST">      0.00000000      0.00000000      0.00000000</v>
  </separator>
  <separator name="response functions" >
   <i type="logical" name="LADDER"> F  </i>
   <i type="logical" name="LFXC"> F  </i>
   <i type="logical" name="LHARTREE"> T  </i>
   <i type="int" name="IBSE">     0</i>
   <v type="int" name="KPOINT">    -1     0     0     0</v>
   <i type="logical" name="LTCTE"> F  </i>
   <i type="logical" name="LTETE"> F  </i>
   <i type="logical" name="LTRIPLET"> F  </i>
   <i type="logical" name="LFXCEPS"> F  </i>
   <i type="logical" name="LFXHEG"> F  </i>
   <i type="int" name="NATURALO">     0</i>
   <i type="logical" name="L2ORDER"> F  </i>
   <i type="logical" name="LUSEW"> F  </i>
   <i name="ENCUTGW">     -2.00000000</i>
   <i name="ENCUTGWSOFT">     -2.00000000</i>
   <i name="ENCUTLF">     -1.00000000</i>
   <i type="int" name="LMAXMP2">    -1</i>
   <i name="SCISSOR">      0.00000000</i>
   <i type="int" name="NOMEGA">     0</i>
   <i type="int" name="NOMEGAR">     0</i>
   <i type="int" name="NBANDSGW">    -1</i>
   <i type="int" name="NBANDSO">    -1</i>
   <i type="int" name="NBANDSV">    -1</i>
   <i type="int" name="NELM">     1</i>
   <i type="int" name="NELMHF">     1</i>
   <i type="int" name="DIM">     3</i>
   <i type="int" name="ANTIRES">     0</i>
   <i name="OMEGAMAX">    -30.00000000</i>
   <i name="OMEGAMIN">    -30.00000000</i>
   <i name="OMEGATL">   -200.00000000</i>
   <i type="int" name="OMEGAGRID">     0</i>
   <i name="CSHIFT">     -0.10000000</i>
   <i type="logical" name="SELFENERGY"> F  </i>
   <i type="logical" name="LSPECTRAL"> F  </i>
   <i type="logical" name="LSPECTRALGW"> F  </i>
   <i type="logical" name="LSINGLES"> F  </i>
   <i type="logical" name="LFERMIGW"> F  </i>
   <i type="logical" name="ODDONLYGW"> F  </i>
   <i type="logical" name="EVENONLYGW"> F  </i>
   <i type="int" name="NKREDLFX">     1</i>
   <i type="int" name="NKREDLFY">     1</i>
   <i type="int" name="NKREDLFZ">     1</i>
   <i type="int" name="MAXMEM">  1800</i>
   <i type="int" name="TELESCOPE">     0</i>
   <i type="int" name="TAUPAR">     1</i>
   <i type="int" name="OMEGAPAR">    -1</i>
   <i name="LAMBDA">      1.00000000</i>
  </separator>
  <separator name="External order field" >
   <i name="OFIELD_KAPPA">      0.00000000</i>
   <v name="OFIELD_K">      0.00000000      0.00000000      0.00000000</v>
   <i name="OFIELD_Q6_NEAR">      0.00000000</i>
   <i name="OFIELD_Q6_FAR">      0.00000000</i>
   <i name="OFIELD_A">      0.00000000</i>
  </separator>
 </parameters>
 <atominfo>
  <atoms>      64 </atoms>
  <types>       2 </types>
  <array name="atoms" >
   <dimension dim="1">ion</dimension>
   <field type="string">element</field>
   <field type="int">atomtype</field>
   <set>
    <rc><c>Ir</c><c>   1</c></rc>
    <rc><c>Ir</c><c>   1</c></rc>
    <rc><c>Ir</c><c>   1</c></rc>
    <rc><c>Ir</c><c>   1</c></rc>
    <rc><c>Ir</c><c>   1</c></rc>
    <rc><c>Ir</c><c>   1</c></rc>
    <rc><c>Ir</c><c>   1</c></rc>
    <rc><c>Ir</c><c>   1</c></rc>
    <rc><c>Ir</c><c>   1</c></rc>
    <rc><c>Ir</c><c>   1</c></rc>
    <rc><c>Ir</c><c>   1</c></rc>
    <rc><c>Ir</c><c>   1</c></rc>
    <rc><c>Ir</c><c>   1</c></rc>
    <rc><c>Ir</c><c>   1</c></rc>
    <rc><c>Ir</c><c>   1</c></rc>
    <rc><c>Ir</c><c>   1</c></rc>
    <rc><c>Ir</c><c>   1</c></rc>
    <rc><c>Ir</c><c>   1</c></rc>
    <rc><c>Ir</c><c>   1</c></rc>
    <rc><c>Ir</c><c>   1</c></rc>
    <rc><c>Ir</c><c>   1</c></rc>
    <rc><c>Ir</c><c>   1</c></rc>
    <rc><c>Ir</c><c>   1</c></rc>
    <rc><c>Ir</c><c>   1</c></rc>
    <rc><c>Ir</c><c>   1</c></rc>
    <rc><c>Ir</c><c>   1</c></rc>
    <rc><c>Ir</c><c>   1</c></rc>
    <rc><c>Ir</c><c>   1</c></rc>
    <rc><c>Ir</c><c>   1</c></rc>
    <rc><c>Ir</c><c>   1</c></rc>
    <rc><c>Ir</c><c>   1</c></rc>
    <rc><c>Ir</c><c>   1</c></rc>
    <rc><c>Ir</c><c>   1</c></rc>
    <rc><c>Ir</c><c>   1</c></rc>
    <rc><c>Ir</c><c>   1</c></rc>
    <rc><c>Ir</c><c>   1</c></rc>
    <rc><c>Ir</c><c>   1</c></rc>
    <rc><c>Ir</c><c>   1</c></rc>
    <rc><c>Ir</c><c>   1</c></rc>
    <rc><c>Ir</c><c>   1</c></rc>
    <rc><c>Ir</c><c>   1</c></rc>
    <rc><c>Ir</c><c>   1</c></rc>
    <rc><c>Ir</c><c>   1</c></rc>
    <rc><c>Ir</c><c>   1</c></rc>
    <rc><c>Ir</c><c>   1</c></rc>
    <rc><c>Ir</c><c>   1</c></rc>
    <rc><c>Ir</c><c>   1</c></rc>
    <rc><c>Ir</c><c>   1</c></rc>
    <rc><c>Ru</c><c>   2</c></rc>
    <rc><c>Ru</c><c>   2</c></rc>
    <rc><c>Ru</c><c>   2</c></rc>
    <rc><c>Ru</c><c>   2</c></rc>
    <rc><c>Ru</c><c>   2</c></rc>
    <rc><c>Ru</c><c>   2</c></rc>
    <rc><c>Ru</c><c>   2</c></rc>
    <rc><c>Ru</c><c>   2</c></rc>
    <rc><c>Ru</c><c>   2</c></rc>
    <rc><c>Ru</c><c>   2</c></rc>
    <rc><c>Ru</c><c>   2</c></rc>
    <rc><c>Ru</c><c>   2</c></rc>
    <rc><c>Ru</c><c>   2</c></rc>
    <rc><c>Ru</c><c>   2</c></rc>
    <rc><c>Ru</c><c>   2</c></rc>
    <rc><c>Ru</c><c>   2</c></rc>
   </set>
  </array>
  <array name="atomtypes" >
   <dimension dim="1">type</dimension>
   <field type="int">atomspertype</field>
   <field type="string">element</field>
   <field>mass</field>
   <field>valence</field>
   <field type="string">pseudopotential</field>
   <set>
    <rc><c>  48</c><c>Ir</c><c>    192.22000000</c><c>      9.00000000</c><c> PAW_PBE Ir 06Sep2000                   </c></rc>
    <rc><c>  16</c><c>Ru</c><c>    101.07000000</c><c>      8.00000000</c><c> PAW_PBE Ru 06Sep2000                   </c></rc>
   </set>
  </array>
 </atominfo>
 <structure name="initialpos" >
  <crystal>
   <varray name="basis" >
    <v>       7.71598000       0.00000000       7.71598000 </v>
    <v>       7.71598000       7.71598000       0.00000000 </v>
    <v>       0.00000000       7.71598000       7.71598000 </v>
   </varray>
   <i name="volume">    918.76253101 </i>
   <varray name="rec_basis" >
    <v>       0.06480058      -0.06480058       0.06480058 </v>
    <v>       0.06480058       0.06480058      -0.06480058 </v>
    <v>      -0.06480058       0.06480058       0.06480058 </v>
   </varray>
  </crystal>
  <varray name="positions" >
   <v>       0.25000000       0.25000000       0.00000000 </v>
   <v>       0.00000000       0.25000000       0.25000000 </v>
   <v>       0.25000000       0.00000000       0.25000000 </v>
   <v>       0.25000000       0.75000000       0.00000000 </v>
   <v>       0.00000000       0.75000000       0.25000000 </v>
   <v>       0.25000000       0.50000000       0.25000000 </v>
   <v>       0.75000000       0.25000000       0.00000000 </v>
   <v>       0.50000000       0.25000000       0.25000000 </v>
   <v>       0.75000000       0.00000000       0.25000000 </v>
   <v>       0.25000000       0.25000000       0.50000000 </v>
   <v>       0.00000000       0.25000000       0.75000000 </v>
   <v>       0.25000000       0.00000000       0.75000000 </v>
   <v>       0.50000000       0.50000000       0.25000000 </v>
   <v>       0.25000000       0.50000000       0.50000000 </v>
   <v>       0.50000000       0.25000000       0.50000000 </v>
   <v>       0.75000000       0.75000000       0.00000000 </v>
   <v>       0.50000000       0.75000000       0.25000000 </v>
   <v>       0.75000000       0.50000000       0.25000000 </v>
   <v>       0.25000000       0.75000000       0.50000000 </v>
   <v>       0.00000000       0.75000000       0.75000000 </v>
   <v>       0.25000000       0.50000000       0.75000000 </v>
   <v>       0.50000000       0.00000000       0.25000000 </v>
   <v>       0.25000000       0.00000000       0.50000000 </v>
   <v>       0.50000000       0.75000000       0.50000000 </v>
   <v>       0.75000000       0.25000000       0.50000000 </v>
   <v>       0.50000000       0.25000000       0.75000000 </v>
   <v>       0.75000000       0.00000000       0.75000000 </v>
   <v>       0.00000000       0.50000000       0.25000000 </v>
   <v>       0.75000000       0.50000000       0.50000000 </v>
   <v>       0.00000000       0.25000000       0.50000000 </v>
   <v>       0.50000000       0.50000000       0.75000000 </v>
   <v>       0.25000000       0.50000000       0.00000000 </v>
   <v>       0.50000000       0.25000000       0.00000000 </v>
   <v>       0.75000000       0.75000000       0.50000000 </v>
   <v>       0.50000000       0.75000000       0.75000000 </v>
   <v>       0.75000000       0.50000000       0.75000000 </v>
   <v>       0.00000000       0.00000000       0.25000000 </v>
   <v>       0.75000000       0.00000000       0.50000000 </v>
   <v>       0.00000000       0.75000000       0.50000000 </v>
   <v>       0.50000000       0.00000000       0.75000000 </v>
   <v>       0.25000000       0.00000000       0.00000000 </v>
   <v>       0.50000000       0.75000000       0.00000000 </v>
   <v>       0.00000000       0.50000000       0.75000000 </v>
   <v>       0.75000000       0.50000000       0.00000000 </v>
   <v>       0.00000000       0.25000000       0.00000000 </v>
   <v>       0.00000000       0.00000000       0.75000000 </v>
   <v>       0.75000000       0.00000000       0.00000000 </v>
   <v>       0.00000000       0.75000000       0.00000000 </v>
   <v>       0.25259250       0.25259250       0.24740750 </v>
   <v>       0.25000000       0.75000000       0.25000000 </v>
   <v>       0.75000000       0.25000000       0.25000000 </v>
   <v>       0.25000000       0.25000000       0.75000000 </v>
   <v>       0.50000000       0.50000000       0.50000000 </v>
   <v>       0.75000000       0.75000000       0.25000000 </v>
   <v>       0.25000000       0.75000000       0.75000000 </v>
   <v>       0.50000000       0.00000000       0.50000000 </v>
   <v>       0.75000000       0.25000000       0.75000000 </v>
   <v>       0.00000000       0.50000000       0.50000000 </v>
   <v>       0.50000000       0.50000000       0.00000000 </v>
   <v>       0.75000000       0.75000000       0.75000000 </v>
   <v>       0.00000000       0.00000000       0.50000000 </v>
   <v>       0.50000000       0.00000000       0.00000000 </v>
   <v>       0.00000000       0.50000000       0.00000000 </v>
   <v>       0.00000000       0.00000000       0.00000000 </v>
  </varray>
 </structure>
 <calculation>
  <scstep>
   <time name="diag">    3.53    3.54</time>
   <time name="diis">   10.58   10.78</time>
   <time name="orth">    0.57    0.57</time>
   <time name="total">   14.77   14.97</time>
   <energy>
    <i name="alphaZ">   4735.99265134 </i>
    <i name="ewald"> -41976.64739140 </i>
    <i name="hartreedc">  -2592.18652047 </i>
    <i name="XCdc">  -1327.88291876 </i>
    <i name="pawpsdc">  28056.69303391 </i>
    <i name="pawaedc"> -25314.08134661 </i>
    <i name="eentropy">     -0.00419423 </i>
    <i name="bandstr">   7894.80239216 </i>
    <i name="atom">  34166.71715293 </i>
    <i name="e_fr_energy">   3643.40285888 </i>
    <i name="e_wo_entrp">   3643.40705310 </i>
    <i name="e_0_energy">   3643.40425695 </i>
   </energy>
  </scstep>
  <scstep>
   <time name="diag">    3.52    3.53</time>
   <time name="diis">   10.54   10.88</time>
   <time name="orth">    0.57    0.57</time>
   <time name="total">   14.63   14.98</time>
   <energy>
    <i name="e_fr_energy">    406.62555406 </i>
    <i name="e_wo_entrp">    406.62598698 </i>
    <i name="e_0_energy">    406.62569837 </i>
   </energy>
  </scstep>
  <scstep>
   <time name="diag">    3.52    3.53</time>
   <time name="diis">   10.61   10.91</time>
   <time name="orth">    0.57    0.57</time>
   <time name="total">   14.70   15.01</time>
   <energy>
    <i name="e_fr_energy">   -233.17295011 </i>
    <i name="e_wo_entrp">   -233.15385972 </i>
    <i name="e_0_energy">   -233.16658665 </i>
   </energy>
  </scstep>
  <scstep>
   <time name="diag">    3.52    3.53</time>
   <time name="diis">   10.52   10.97</time>
   <time name="orth">    0.57    0.57</time>
   <time name="total">   14.61   15.06</time>
   <energy>
    <i name="e_fr_energy">   -446.82804810 </i>
    <i name="e_wo_entrp">   -446.83008806 </i>
    <i name="e_0_energy">   -446.82872809 </i>
   </energy>
  </scstep>
  <scstep>
   <time name="diag">    3.53    3.53</time>
   <time name="diis">   10.54   10.94</time>
   <time name="orth">    0.56    0.56</time>
   <time name="total">   14.63   15.04</time>
   <energy>
    <i name="e_fr_energy">   -520.79501601 </i>
    <i name="e_wo_entrp">   -520.78689942 </i>
    <i name="e_0_energy">   -520.79231048 </i>
   </energy>
  </scstep>
  <scstep>
   <time name="diag">    3.52    3.53</time>
   <time name="diis">   10.47   11.10</time>
   <time name="orth">    0.56    0.57</time>
   <time name="total">   14.56   15.20</time>
   <energy>
    <i name="e_fr_energy">   -558.88792325 </i>
    <i name="e_wo_entrp">   -558.87923038 </i>
    <i name="e_0_energy">   -558.88502563 </i>
   </energy>
  </scstep>
  <scstep>
   <time name="diag">    3.53    3.53</time>
   <time name="diis">   10.54   10.95</time>
   <time name="orth">    0.56    0.57</time>
   <time name="total">   14.63   15.05</time>
   <energy>
    <i name="e_fr_energy">   -578.91465158 </i>
    <i name="e_wo_entrp">   -578.90906265 </i>
    <i name="e_0_energy">   -578.91278860 </i>
   </energy>
  </scstep>
  <scstep>
   <time name="diag">    3.52    3.53</time>
   <time name="diis">   10.48   10.93</time>
   <time name="orth">    0.56    0.57</time>
   <time name="total">   14.57   15.03</time>
   <energy>
    <i name="e_fr_energy">   -590.88627175 </i>
    <i name="e_wo_entrp">   -590.87610239 </i>
    <i name="e_0_energy">   -590.88288196 </i>
   </energy>
  </scstep>
  <scstep>
   <time name="diag">    3.52    3.53</time>
   <time name="diis">   27.19   28.06</time>
   <time name="orth">    0.57    0.57</time>
   <time name="total">   31.29   32.16</time>
   <energy>
    <i name="e_fr_energy">   -609.54249328 </i>
    <i name="e_wo_entrp">   -609.53156937 </i>
    <i name="e_0_energy">   -609.53885198 </i>
   </energy>
  </scstep>
  <scstep>
   <time name="diag">    3.52    3.52</time>
   <time name="diis">   30.13   30.90</time>
   <time name="orth">    0.57    0.57</time>
   <time name="total">   34.22   34.99</time>
   <energy>
    <i name="e_fr_energy">   -611.94367051 </i>
    <i name="e_wo_entrp">   -611.94778143 </i>
    <i name="e_0_energy">   -611.94504081 </i>
   </energy>
  </scstep>
  <scstep>
   <time name="diag">    3.72    3.89</time>
   <time name="diis">   29.34   30.10</time>
   <time name="orth">    0.57    0.57</time>
   <time name="total">   33.63   34.56</time>
   <energy>
    <i name="e_fr_energy">   -612.44478458 </i>
    <i name="e_wo_entrp">   -612.45005312 </i>
    <i name="e_0_energy">   -612.44654076 </i>
   </energy>
  </scstep>
  <scstep>
   <time name="diag">    3.52    3.52</time>
   <time name="diis">   30.20   31.08</time>
   <time name="orth">    0.56    0.57</time>
   <time name="total">   35.26   36.15</time>
   <energy>
    <i name="e_fr_energy">   -612.51546868 </i>
    <i name="e_wo_entrp">   -612.52053102 </i>
    <i name="e_0_energy">   -612.51715613 </i>
   </energy>
  </scstep>
  <scstep>
   <time name="diag">    3.83    4.05</time>
   <time name="diis">   21.46   22.12</time>
   <time name="orth">    0.56    0.57</time>
   <time name="total">   26.91   27.81</time>
   <energy>
    <i name="e_fr_energy">   -582.01890130 </i>
    <i name="e_wo_entrp">   -581.98633818 </i>
    <i name="e_0_energy">   -582.00804693 </i>
   </energy>
  </scstep>
  <scstep>
   <time name="diag">    3.52    3.53</time>
   <time name="diis">   21.70   22.36</time>
   <time name="orth">    0.57    0.57</time>
   <time name="total">   26.82   27.49</time>
   <energy>
    <i name="e_fr_energy">   -584.60845455 </i>
    <i name="e_wo_entrp">   -584.55648687 </i>
    <i name="e_0_energy">   -584.59113199 </i>
   </energy>
  </scstep>
  <scstep>
   <time name="diag">    3.52    3.53</time>
   <time name="diis">   21.47   22.21</time>
   <time name="orth">    0.77    0.77</time>
   <time name="total">   26.79   27.55</time>
   <energy>
    <i name="e_fr_energy">   -574.27376741 </i>
    <i name="e_wo_entrp">   -574.21236784 </i>
    <i name="e_0_energy">   -574.25330089 </i>
   </energy>
  </scstep>
  <scstep>
   <time name="diag">    3.52    3.52</time>
   <time name="diis">   24.28   25.15</time>
   <time name="orth">    0.56    0.57</time>
   <time name="total">   29.40   30.27</time>
   <energy>
    <i name="e_fr_energy">   -574.19046473 </i>
    <i name="e_wo_entrp">   -574.13630439 </i>
    <i name="e_0_energy">   -574.17241128 </i>
   </energy>
  </scstep>
  <scstep>
   <time name="diag">    3.53    3.53</time>
   <time name="diis">   24.44   25.40</time>
   <time name="orth">    0.56    0.57</time>
   <time name="total">   29.57   31.30</time>
   <energy>
    <i name="e_fr_energy">   -574.15348665 </i>
    <i name="e_wo_entrp">   -574.09909297 </i>
    <i name="e_0_energy">   -574.13535542 </i>
   </energy>
  </scstep>
  <scstep>
   <time name="diag">    3.52    3.53</time>
   <time name="diis">   23.35   24.11</time>
   <time name="orth">    0.56    0.57</time>
   <time name="total">   28.45   29.23</time>
   <energy>
    <i name="e_fr_energy">   -574.11130389 </i>
    <i name="e_wo_entrp">   -574.05526040 </i>
    <i name="e_0_energy">   -574.09262273 </i>
   </energy>
  </scstep>
  <scstep>
   <time name="diag">    3.52    3.53</time>
   <time name="diis">   24.64   25.51</time>
   <time name="orth">    0.56    0.57</time>
   <time name="total">   29.78   30.65</time>
   <energy>
    <i name="e_fr_energy">   -574.10938728 </i>
    <i name="e_wo_entrp">   -574.05275153 </i>
    <i name="e_0_energy">   -574.09050870 </i>
   </energy>
  </scstep>
  <scstep>
   <time name="diag">    3.51    3.52</time>
   <time name="diis">   25.34   26.03</time>
   <time name="orth">    0.56    0.57</time>
   <time name="total">   30.45   31.15</time>
   <energy>
    <i name="e_fr_energy">   -574.10686976 </i>
    <i name="e_wo_entrp">   -574.05009653 </i>
    <i name="e_0_energy">   -574.08794535 </i>
   </energy>
  </scstep>
  <scstep>
   <time name="diag">    3.52    3.53</time>
   <time name="diis">   24.60   25.08</time>
   <time name="orth">    0.56    0.57</time>
   <time name="total">   29.71   30.21</time>
   <energy>
    <i name="e_fr_energy">   -574.10556006 </i>
    <i name="e_wo_entrp">   -574.04879067 </i>
    <i name="e_0_energy">   -574.08663693 </i>
   </energy>
  </scstep>
  <scstep>
   <time name="diag">    3.52    3.53</time>
   <time name="diis">   26.69   27.41</time>
   <time name="orth">    0.56    0.57</time>
   <time name="total">   31.80   32.53</time>
   <energy>
    <i name="e_fr_energy">   -574.10552640 </i>
    <i name="e_wo_entrp">   -574.04879249 </i>
    <i name="e_0_energy">   -574.08661510 </i>
   </energy>
  </scstep>
  <scstep>
   <time name="diag">    3.52    3.53</time>
   <time name="diis">   23.63   24.28</time>
   <time name="orth">    0.56    0.57</time>
   <time name="total">   28.74   29.42</time>
   <energy>
    <i name="e_fr_energy">   -574.10541664 </i>
    <i name="e_wo_entrp">   -574.04876027 </i>
    <i name="e_0_energy">   -574.08653118 </i>
   </energy>
  </scstep>
  <scstep>
   <time name="diag">    3.52    3.53</time>
   <time name="diis">   24.16   24.94</time>
   <time name="orth">    0.56    0.57</time>
   <time name="total">   28.31   29.10</time>
   <energy>
    <i name="alphaZ">   4735.99265134 </i>
    <i name="ewald"> -41976.64739140 </i>
    <i name="hartreedc">  -1990.34531047 </i>
    <i name="XCdc">  -1333.72805156 </i>
    <i name="pawpsdc">  31719.70773802 </i>
    <i name="pawaedc"> -29160.39838437 </i>
    <i name="eentropy">     -0.05661660 </i>
    <i name="bandstr">   3264.65282161 </i>
    <i name="atom">  34166.71715293 </i>
    <i name="e_fr_energy">   -574.10539051 </i>
    <i name="e_wo_entrp">   -574.04877391 </i>
    <i name="e_0_energy">   -574.08651831 </i>
   </energy>
  </scstep>
  <structure>
   <crystal>
    <varray name="basis" >
     <v>       7.71598000       0.00000000       7.71598000 </v>
     <v>       7.71598000       7.71598000       0.00000000 </v>
     <v>       0.00000000       7.71598000       7.71598000 </v>
    </varray>
    <i name="volume">    918.76253101 </i>
    <varray name="rec_basis" >
     <v>       0.06480058      -0.06480058       0.06480058 </v>
     <v>       0.06480058       0.06480058      -0.06480058 </v>
     <v>      -0.06480058       0.06480058       0.06480058 </v>
    </varray>
   </crystal>
   <varray name="positions" >
    <v>       0.25000000       0.25000000       0.00000000 </v>
    <v>       0.00000000       0.25000000       0.25000000 </v>
    <v>       0.25000000       0.00000000       0.25000000 </v>
    <v>       0.25000000       0.75000000       0.00000000 </v>
    <v>       0.00000000       0.75000000       0.25000000 </v>
    <v>       0.25000000       0.50000000       0.25000000 </v>
    <v>       0.75000000       0.25000000       0.00000000 </v>
    <v>       0.50000000       0.25000000       0.25000000 </v>
    <v>       0.75000000       0.00000000       0.25000000 </v>
    <v>       0.25000000       0.25000000       0.50000000 </v>
    <v>       0.00000000       0.25000000       0.75000000 </v>
    <v>       0.25000000       0.00000000       0.75000000 </v>
    <v>       0.50000000       0.50000000       0.25000000 </v>
    <v>       0.25000000       0.50000000       0.50000000 </v>
    <v>       0.50000000       0.25000000       0.50000000 </v>
    <v>       0.75000000       0.75000000       0.00000000 </v>
    <v>       0.50000000       0.75000000       0.25000000 </v>
    <v>       0.75000000       0.50000000       0.25000000 </v>
    <v>       0.25000000       0.75000000       0.50000000 </v>
    <v>       0.00000000       0.75000000       0.75000000 </v>
    <v>       0.25000000       0.50000000       0.75000000 </v>
    <v>       0.50000000       0.00000000       0.25000000 </v>
    <v>       0.25000000       0.00000000       0.50000000 </v>
    <v>       0.50000000       0.75000000       0.50000000 </v>
    <v>       0.75000000       0.25000000       0.50000000 </v>
    <v>       0.50000000       0.25000000       0.75000000 </v>
    <v>       0.75000000       0.00000000       0.75000000 </v>
    <v>       0.00000000       0.50000000       0.25000000 </v>
    <v>       0.75000000       0.50000000       0.50000000 </v>
    <v>       0.00000000       0.25000000       0.50000000 </v>
    <v>       0.50000000       0.50000000       0.75000000 </v>
    <v>       0.25000000       0.50000000       0.00000000 </v>
    <v>       0.50000000       0.25000000       0.00000000 </v>
    <v>       0.75000000       0.75000000       0.50000000 </v>
    <v>       0.50000000       0.75000000       0.75000000 </v>
    <v>       0.75000000       0.50000000       0.75000000 </v>
    <v>       0.00000000       0.00000000       0.25000000 </v>
    <v>       0.75000000       0.00000000       0.50000000 </v>
    <v>       0.00000000       0.75000000       0.50000000 </v>
    <v>       0.50000000       0.00000000       0.75000000 </v>
    <v>       0.25000000       0.00000000       0.00000000 </v>
    <v>       0.50000000       0.75000000       0.00000000 </v>
    <v>       0.00000000       0.50000000       0.75000000 </v>
    <v>       0.75000000       0.50000000       0.00000000 </v>
    <v>       0.00000000       0.25000000       0.00000000 </v>
    <v>       0.00000000       0.00000000       0.75000000 </v>
    <v>       0.75000000       0.00000000       0.00000000 </v>
    <v>       0.00000000       0.75000000       0.00000000 </v>
    <v>       0.25259250       0.25259250       0.24740750 </v>
    <v>       0.25000000       0.75000000       0.25000000 </v>
    <v>       0.75000000       0.25000000       0.25000000 </v>
    <v>       0.25000000       0.25000000       0.75000000 </v>
    <v>       0.50000000       0.50000000       0.50000000 </v>
    <v>       0.75000000       0.75000000       0.25000000 </v>
    <v>       0.25000000       0.75000000       0.75000000 </v>
    <v>       0.50000000       0.00000000       0.50000000 </v>
    <v>       0.75000000       0.25000000       0.75000000 </v>
    <v>       0.00000000       0.50000000       0.50000000 </v>
    <v>       0.50000000       0.50000000       0.00000000 </v>
    <v>       0.75000000       0.75000000       0.75000000 </v>
    <v>       0.00000000       0.00000000       0.50000000 </v>
    <v>       0.50000000       0.00000000       0.00000000 </v>
    <v>       0.00000000       0.50000000       0.00000000 </v>
    <v>       0.00000000       0.00000000       0.00000000 </v>
   </varray>
  </structure>
  <varray name="forces" >
   <v>       0.00131813       0.00138769       0.00138769 </v>
   <v>       0.02688150       0.00000000       0.03458343 </v>
   <v>       0.02688150       0.03458343      -0.00000000 </v>
   <v>       0.01186098       0.00488568      -0.00488568 </v>
   <v>       0.00350201       0.00467322       0.00037032 </v>
   <v>       0.03471775       0.04528172      -0.00000000 </v>
   <v>       0.01186098      -0.00488568       0.00488568 </v>
   <v>       0.03471775       0.00000000       0.04528172 </v>
   <v>       0.00350201       0.00037032       0.00467322 </v>
   <v>       0.00131813      -0.00138769      -0.00138769 </v>
   <v>       0.00305288      -0.00469445      -0.00009404 </v>
   <v>       0.00305288      -0.00009404      -0.00469445 </v>
   <v>       0.01186098       0.00488568       0.00488568 </v>
   <v>       0.00350201       0.00467322      -0.00037032 </v>
   <v>       0.00350201      -0.00037032       0.00467322 </v>
   <v>      -0.00279168       0.00004617       0.00004617 </v>
   <v>       0.00305288       0.00469445      -0.00009404 </v>
   <v>       0.00305288      -0.00009404       0.00469445 </v>
   <v>       0.01064948       0.00419988      -0.00419988 </v>
   <v>      -0.00131041       0.00000000       0.00135748 </v>
   <v>       0.00350201       0.00037032      -0.00467322 </v>
   <v>       0.00131813       0.00138769      -0.00138769 </v>
   <v>       0.02688150       0.00000000      -0.03458343 </v>
   <v>       0.00305288       0.00009404      -0.00469445 </v>
   <v>       0.01064948      -0.00419988       0.00419988 </v>
   <v>       0.00350201      -0.00467322       0.00037032 </v>
   <v>      -0.00131041       0.00135748      -0.00000000 </v>
   <v>       0.00131813      -0.00138769       0.00138769 </v>
   <v>       0.00305288      -0.00469445       0.00009404 </v>
   <v>       0.02688150      -0.03458343      -0.00000000 </v>
   <v>       0.01186098      -0.00488568      -0.00488568 </v>
   <v>       0.03471775       0.00000000      -0.04528172 </v>
   <v>       0.03471775      -0.04528172      -0.00000000 </v>
   <v>      -0.00279168      -0.00004617      -0.00004617 </v>
   <v>      -0.00181074       0.00000000       0.00134206 </v>
   <v>      -0.00181074       0.00134206      -0.00000000 </v>
   <v>       0.01064948       0.00419988       0.00419988 </v>
   <v>      -0.00131041       0.00000000      -0.00135748 </v>
   <v>      -0.00131041      -0.00135748      -0.00000000 </v>
   <v>      -0.00279168       0.00004617      -0.00004617 </v>
   <v>       0.00305288       0.00469445       0.00009404 </v>
   <v>      -0.00181074      -0.00134206      -0.00000000 </v>
   <v>      -0.00279168      -0.00004617       0.00004617 </v>
   <v>      -0.00181074       0.00000000      -0.00134206 </v>
   <v>       0.00305288       0.00009404       0.00469445 </v>
   <v>       0.01064948      -0.00419988      -0.00419988 </v>
   <v>       0.00350201      -0.00467322      -0.00037032 </v>
   <v>       0.00350201      -0.00037032      -0.00467322 </v>
   <v>      -0.51047875       0.00000000      -0.00000000 </v>
   <v>       0.02849757       0.02760262      -0.00000000 </v>
   <v>       0.02849757       0.00000000       0.02760262 </v>
   <v>       0.00027252       0.00000000      -0.00000000 </v>
   <v>      -0.00011647       0.00000000      -0.00000000 </v>
   <v>       0.00027252       0.00000000      -0.00000000 </v>
   <v>       0.02849757       0.00000000      -0.02760262 </v>
   <v>      -0.01234467       0.00000000       0.00013894 </v>
   <v>       0.02849757      -0.02760262      -0.00000000 </v>
   <v>      -0.01234467       0.00013894      -0.00000000 </v>
   <v>       0.03683731       0.00000000      -0.00000000 </v>
   <v>       0.00445842       0.00000000      -0.00000000 </v>
   <v>       0.03376013       0.00000000      -0.00000000 </v>
   <v>      -0.01234467      -0.00013894      -0.00000000 </v>
   <v>      -0.01234467       0.00000000      -0.00013894 </v>
   <v>      -0.00011647       0.00000000      -0.00000000 </v>
  </varray>
  <varray name="stress" >
   <v>     -26.17382485       0.00000000       0.00000000 </v>
   <v>       0.00000000     -26.23046064       0.00000000 </v>
   <v>       0.00000000       0.00000000     -26.23046064 </v>
  </varray>
  <energy>
   <i name="e_fr_energy">   -574.10539051 </i>
   <i name="e_wo_entrp">   -574.08651831 </i>
   <i name="e_0_energy">     -0.05661660 </i>
  </energy>
  <time name="totalsc">  651.09  672.92</time>
  <eigenvalues>
   <array>
    <dimension dim="1">band</dimension>
    <dimension dim="2">kpoint</dimension>
    <dimension dim="3">spin</dimension>
    <field>eigene</field>
    <field>occ</field>
    <set>
     <set comment="spin 1">
      <set comment="kpoint 1">
       <r>   -0.5413    1.0000 </r>
       <r>    1.5173    1.0000 </r>
       <r>    1.5211    1.0000 </r>
       <r>    1.5211    1.0000 </r>
       <r>    1.5228    1.0000 </r>
       <r>    1.5239    1.0000 </r>
       <r>    1.5256    1.0000 </r>
       <r>    1.5256    1.0000 </r>
       <r>    1.5292    1.0000 </r>
       <r>    1.9011    1.0000 </r>
       <r>    1.9011    1.0000 </r>
       <r>    1.9011    1.0000 </r>
       <r>    2.0963    1.0000 </r>
       <r>    2.0963    1.0000 </r>
       <r>    2.0963    1.0000 </r>
       <r>    2.2650    1.0000 </r>
       <r>    2.4109    1.0000 </r>
       <r>    2.4111    1.0000 </r>
       <r>    2.6797    1.0000 </r>
       <r>    2.7547    1.0000 </r>
       <r>    2.7547    1.0000 </r>
       <r>    2.7548    1.0000 </r>
       <r>    2.8440    1.0000 </r>
       <r>    2.8442    1.0000 </r>
       <r>    2.8442    1.0000 </r>
       <r>    3.3329    1.0000 </r>
       <r>    3.3357    1.0000 </r>
       <r>    3.3357    1.0000 </r>
       <r>    3.3367    1.0000 </r>
       <r>    3.3386    1.0000 </r>
       <r>    3.3400    1.0000 </r>
       <r>    3.3400    1.0000 </r>
       <r>    3.3402    1.0000 </r>
       <r>    3.3404    1.0000 </r>
       <r>    3.3405    1.0000 </r>
       <r>    3.3407    1.0000 </r>
       <r>    3.3407    1.0000 </r>
       <r>    3.3436    1.0000 </r>
       <r>    3.3441    1.0000 </r>
       <r>    3.3441    1.0000 </r>
       <r>    3.3468    1.0000 </r>
       <r>    3.4216    1.0000 </r>
       <r>    3.4222    1.0000 </r>
       <r>    3.4222    1.0000 </r>
       <r>    3.4224    1.0000 </r>
       <r>    3.4243    1.0000 </r>
       <r>    3.4247    1.0000 </r>
       <r>    3.4247    1.0000 </r>
       <r>    3.4256    1.0000 </r>
       <r>    3.6736    1.0000 </r>
       <r>    3.6736    1.0000 </r>
       <r>    3.6736    1.0000 </r>
       <r>    3.6737    1.0000 </r>
       <r>    3.6737    1.0000 </r>
       <r>    3.6737    1.0000 </r>
       <r>    3.7070    1.0000 </r>
       <r>    3.7071    1.0000 </r>
       <r>    3.7071    1.0000 </r>
       <r>    3.9983    1.0000 </r>
       <r>    4.0006    1.0000 </r>
       <r>    4.0006    1.0000 </r>
       <r>    4.0190    1.0000 </r>
       <r>    4.0191    1.0000 </r>
       <r>    4.0208    1.0000 </r>
       <r>    4.1019    1.0000 </r>
       <r>    4.1024    1.0000 </r>
       <r>    4.1025    1.0000 </r>
       <r>    4.3816    1.0000 </r>
       <r>    4.3823    1.0000 </r>
       <r>    4.3831    1.0000 </r>
       <r>    4.3831    1.0000 </r>
       <r>    4.3847    1.0000 </r>
       <r>    4.3847    1.0000 </r>
       <r>    4.3854    1.0000 </r>
       <r>    4.3857    1.0000 </r>
       <r>    4.5691    1.0000 </r>
       <r>    4.5691    1.0000 </r>
       <r>    4.5697    1.0000 </r>
       <r>    4.5727    1.0000 </r>
       <r>    4.5728    1.0000 </r>
       <r>    4.5728    1.0000 </r>
       <r>    4.6344    1.0000 </r>
       <r>    4.6461    1.0000 </r>
       <r>    4.6462    1.0000 </r>
       <r>    4.6462    1.0000 </r>
       <r>    4.6494    1.0000 </r>
       <r>    4.6501    1.0000 </r>
       <r>    4.6502    1.0000 </r>
       <r>    4.6502    1.0000 </r>
       <r>    4.6504    1.0000 </r>
       <r>    4.6504    1.0000 </r>
       <r>    4.6504    1.0000 </r>
       <r>    4.6505    1.0000 </r>
       <r>    4.6542    1.0000 </r>
       <r>    4.6542    1.0000 </r>
       <r>    4.6543    1.0000 </r>
       <r>    4.6650    1.0000 </r>
       <r>    4.8986    1.0000 </r>
       <r>    4.8989    1.0000 </r>
       <r>    4.8989    1.0000 </r>
       <r>    5.0919    1.0000 </r>
       <r>    5.0919    1.0000 </r>
       <r>    5.0919    1.0000 </r>
       <r>    5.1030    1.0000 </r>
       <r>    5.1030    1.0000 </r>
       <r>    5.1032    1.0000 </r>
       <r>    5.1032    1.0000 </r>
       <r>    5.1032    1.0000 </r>
       <r>    5.1032    1.0000 </r>
       <r>    5.2930    1.0000 </r>
       <r>    5.2930    1.0000 </r>
       <r>    5.2931    1.0000 </r>
       <r>    5.2934    1.0000 </r>
       <r>    5.2935    1.0000 </r>
       <r>    5.2935    1.0000 </r>
       <r>    5.3558    1.0000 </r>
       <r>    5.3560    1.0000 </r>
       <r>    5.3560    1.0000 </r>
       <r>    5.3564    1.0000 </r>
       <r>    5.3564    1.0000 </r>
       <r>    5.3565    1.0000 </r>
       <r>    5.4135    1.0000 </r>
       <r>    5.4136    1.0000 </r>
       <r>    5.4136    1.0000 </r>
       <r>    5.4136    1.0000 </r>
       <r>    5.4140    1.0000 </r>
       <r>    5.4140    1.0000 </r>
       <r>    5.4395    1.0000 </r>
       <r>    5.4395    1.0000 </r>
       <r>    5.4395    1.0000 </r>
       <r>    5.6556    1.0000 </r>
       <r>    5.6592    1.0000 </r>
       <r>    5.6594    1.0000 </r>
       <r>    5.6594    1.0000 </r>
       <r>    5.6597    1.0000 </r>
       <r>    5.6597    1.0000 </r>
       <r>    5.6601    1.0000 </r>
       <r>    5.6644    1.0000 </r>
       <r>    5.8543    1.0000 </r>
       <r>    5.8543    1.0000 </r>
       <r>    5.8544    1.0000 </r>
       <r>    6.0724    1.0000 </r>
       <r>    6.0728    1.0000 </r>
       <r>    6.0734    1.0000 </r>
       <r>    6.0986    1.0000 </r>
       <r>    6.0986    1.0000 </r>
       <r>    6.0992    1.0000 </r>
       <r>    6.1944    1.0000 </r>
       <r>    6.1944    1.0000 </r>
       <r>    6.1954    1.0000 </r>
       <r>    6.2575    1.0000 </r>
       <r>    6.2583    1.0000 </r>
       <r>    6.2586    1.0000 </r>
       <r>    6.2586    1.0000 </r>
       <r>    6.2602    1.0000 </r>
       <r>    6.2603    1.0000 </r>
       <r>    6.2604    1.0000 </r>
       <r>    6.2604    1.0000 </r>
       <r>    6.2606    1.0000 </r>
       <r>    6.2607    1.0000 </r>
       <r>    6.2607    1.0000 </r>
       <r>    6.2607    1.0000 </r>
       <r>    6.2621    1.0000 </r>
       <r>    6.2624    1.0000 </r>
       <r>    6.2624    1.0000 </r>
       <r>    6.2628    1.0000 </r>
       <r>    6.3991    1.0000 </r>
       <r>    6.4006    1.0000 </r>
       <r>    6.6181    1.0000 </r>
       <r>    6.6181    1.0000 </r>
       <r>    6.6195    1.0000 </r>
       <r>    6.6229    1.0000 </r>
       <r>    6.6242    1.0000 </r>
       <r>    6.6244    1.0000 </r>
       <r>    6.6244    1.0000 </r>
       <r>    6.6244    1.0000 </r>
       <r>    6.6259    1.0000 </r>
       <r>    6.6259    1.0000 </r>
       <r>    6.6260    1.0000 </r>
       <r>    6.6267    1.0000 </r>
       <r>    6.6282    1.0000 </r>
       <r>    6.6298    1.0000 </r>
       <r>    6.6311    1.0000 </r>
       <r>    6.6311    1.0000 </r>
       <r>    6.8821    1.0000 </r>
       <r>    6.8821    1.0000 </r>
       <r>    6.8827    1.0000 </r>
       <r>    6.9447    1.0000 </r>
       <r>    6.9473    1.0000 </r>
       <r>    6.9473    1.0000 </r>
       <r>    6.9501    1.0000 </r>
       <r>    6.9506    1.0000 </r>
       <r>    6.9535    1.0000 </r>
       <r>    6.9535    1.0000 </r>
       <r>    6.9561    1.0000 </r>
       <r>    7.0913    1.0000 </r>
       <r>    7.0917    1.0000 </r>
       <r>    7.0920    1.0000 </r>
       <r>    7.3909    1.0000 </r>
       <r>    7.3909    1.0000 </r>
       <r>    7.3918    1.0000 </r>
       <r>    7.3919    1.0000 </r>
       <r>    7.3920    1.0000 </r>
       <r>    7.3920    1.0000 </r>
       <r>    7.3966    1.0000 </r>
       <r>    7.3976    1.0000 </r>
       <r>    7.3976    1.0000 </r>
       <r>    7.8307    1.0000 </r>
       <r>    7.8308    1.0000 </r>
       <r>    7.8308    1.0000 </r>
       <r>    7.8328    1.0000 </r>
       <r>    7.8337    1.0000 </r>
       <r>    7.8354    1.0000 </r>
       <r>    7.8355    1.0000 </r>
       <r>    7.8355    1.0000 </r>
       <r>    7.9551    1.0000 </r>
       <r>    7.9568    1.0000 </r>
       <r>    7.9568    1.0000 </r>
       <r>    7.9574    1.0000 </r>
       <r>    7.9575    1.0000 </r>
       <r>    7.9575    1.0000 </r>
       <r>    8.0454    1.0000 </r>
       <r>    8.0508    1.0000 </r>
       <r>    8.0508    1.0000 </r>
       <r>    8.0629    1.0000 </r>
       <r>    8.0650    1.0000 </r>
       <r>    8.0650    1.0000 </r>
       <r>    8.0721    1.0000 </r>
       <r>    8.0732    1.0000 </r>
       <r>    8.0734    1.0000 </r>
       <r>    8.0734    1.0000 </r>
       <r>    8.0734    1.0000 </r>
       <r>    8.0735    1.0000 </r>
       <r>    8.0736    1.0000 </r>
       <r>    8.0736    1.0000 </r>
       <r>    8.0738    1.0000 </r>
       <r>    8.0752    1.0000 </r>
       <r>    8.0834    1.0000 </r>
       <r>    8.0845    1.0000 </r>
       <r>    8.0845    1.0000 </r>
       <r>    8.1068    1.0000 </r>
       <r>    8.1073    1.0000 </r>
       <r>    8.1166    1.0000 </r>
       <r>    8.2821    1.0000 </r>
       <r>    8.2821    1.0000 </r>
       <r>    8.2823    1.0000 </r>
       <r>    8.2823    1.0000 </r>
       <r>    8.2833    1.0000 </r>
       <r>    8.2833    1.0000 </r>
       <r>    8.3910    1.0000 </r>
       <r>    8.3910    1.0000 </r>
       <r>    8.3911    1.0000 </r>
       <r>    8.4777    1.0000 </r>
       <r>    8.4789    1.0000 </r>
       <r>    8.4789    1.0000 </r>
       <r>    8.5904    1.0000 </r>
       <r>    8.5906    1.0000 </r>
       <r>    8.5918    1.0000 </r>
       <r>    8.7189    1.0000 </r>
       <r>    8.7191    1.0000 </r>
       <r>    8.7460    1.0000 </r>
       <r>    8.7460    1.0000 </r>
       <r>    8.7461    1.0000 </r>
       <r>    8.7463    1.0000 </r>
       <r>    8.7469    1.0000 </r>
       <r>    8.7469    1.0000 </r>
       <r>    8.9499    1.0000 </r>
       <r>    8.9509    1.0000 </r>
       <r>    8.9544    1.0000 </r>
       <r>    8.9544    1.0000 </r>
       <r>    8.9584    1.0000 </r>
       <r>    8.9584    1.0000 </r>
       <r>    8.9589    1.0000 </r>
       <r>    8.9597    1.0000 </r>
       <r>    8.9598    1.0000 </r>
       <r>    8.9603    1.0000 </r>
       <r>    8.9612    1.0000 </r>
       <r>    8.9612    1.0000 </r>
       <r>    8.9659    1.0000 </r>
       <r>    8.9659    1.0000 </r>
       <r>    8.9693    1.0000 </r>
       <r>    8.9703    1.0000 </r>
       <r>    9.0743    1.0000 </r>
       <r>    9.4876    1.0350 </r>
       <r>    9.4877    1.0350 </r>
       <r>    9.4877    1.0350 </r>
       <r>    9.5038    1.0335 </r>
       <r>    9.5038    1.0334 </r>
       <r>    9.5038    1.0334 </r>
       <r>    9.7590   -0.0305 </r>
       <r>    9.7591   -0.0304 </r>
       <r>    9.7592   -0.0304 </r>
       <r>   10.5850   -0.0000 </r>
       <r>   10.6000   -0.0000 </r>
       <r>   10.6001   -0.0000 </r>
       <r>   10.6004   -0.0000 </r>
       <r>   10.6898   -0.0000 </r>
       <r>   10.6901   -0.0000 </r>
       <r>   10.7166   -0.0000 </r>
       <r>   10.7168   -0.0000 </r>
       <r>   10.7171   -0.0000 </r>
       <r>   10.7491   -0.0000 </r>
       <r>   10.7502   -0.0000 </r>
       <r>   10.7618   -0.0000 </r>
       <r>   10.7626   -0.0000 </r>
       <r>   10.7627   -0.0000 </r>
       <r>   10.7633   -0.0000 </r>
       <r>   10.7642   -0.0000 </r>
       <r>   10.7644   -0.0000 </r>
       <r>   10.7655   -0.0000 </r>
       <r>   10.7744   -0.0000 </r>
       <r>   10.8717   -0.0000 </r>
       <r>   10.8725   -0.0000 </r>
       <r>   10.8731   -0.0000 </r>
       <r>   10.8741   -0.0000 </r>
       <r>   10.8745   -0.0000 </r>
       <r>   10.8747   -0.0000 </r>
       <r>   10.8749   -0.0000 </r>
       <r>   10.8750   -0.0000 </r>
       <r>   10.8752   -0.0000 </r>
       <r>   10.8756   -0.0000 </r>
       <r>   10.8767   -0.0000 </r>
       <r>   10.8775   -0.0000 </r>
       <r>   10.8780   -0.0000 </r>
       <r>   10.8814   -0.0000 </r>
       <r>   10.8823   -0.0000 </r>
       <r>   11.1352   -0.0000 </r>
       <r>   11.1846   -0.0000 </r>
       <r>   11.2162   -0.0000 </r>
       <r>   11.2578   -0.0000 </r>
       <r>   11.7891   -0.0000 </r>
       <r>   11.8161   -0.0000 </r>
       <r>   11.8244   -0.0000 </r>
       <r>   12.7565    0.0000 </r>
       <r>   13.4255    0.0000 </r>
       <r>   13.5640    0.0000 </r>
       <r>   13.6149    0.0000 </r>
       <r>   13.6803    0.0000 </r>
       <r>   13.7018    0.0000 </r>
       <r>   13.7133    0.0000 </r>
      </set>
      <set comment="kpoint 2">
       <r>   -0.4343    1.0000 </r>
       <r>    0.9500    1.0000 </r>
       <r>    1.4279    1.0000 </r>
       <r>    1.4302    1.0000 </r>
       <r>    1.4325    1.0000 </r>
       <r>    1.7728    1.0000 </r>
       <r>    1.7752    1.0000 </r>
       <r>    1.7773    1.0000 </r>
       <r>    1.8054    1.0000 </r>
       <r>    1.8068    1.0000 </r>
       <r>    1.8083    1.0000 </r>
       <r>    1.9312    1.0000 </r>
       <r>    2.1142    1.0000 </r>
       <r>    2.1908    1.0000 </r>
       <r>    2.1908    1.0000 </r>
       <r>    2.3378    1.0000 </r>
       <r>    2.4821    1.0000 </r>
       <r>    2.4823    1.0000 </r>
       <r>    2.7491    1.0000 </r>
       <r>    2.8585    1.0000 </r>
       <r>    2.8597    1.0000 </r>
       <r>    2.8610    1.0000 </r>
       <r>    2.9069    1.0000 </r>
       <r>    2.9133    1.0000 </r>
       <r>    2.9134    1.0000 </r>
       <r>    3.1731    1.0000 </r>
       <r>    3.1932    1.0000 </r>
       <r>    3.1936    1.0000 </r>
       <r>    3.2147    1.0000 </r>
       <r>    3.2150    1.0000 </r>
       <r>    3.2742    1.0000 </r>
       <r>    3.2767    1.0000 </r>
       <r>    3.2794    1.0000 </r>
       <r>    3.3157    1.0000 </r>
       <r>    3.3175    1.0000 </r>
       <r>    3.3193    1.0000 </r>
       <r>    3.3519    1.0000 </r>
       <r>    3.3523    1.0000 </r>
       <r>    3.3527    1.0000 </r>
       <r>    3.4329    1.0000 </r>
       <r>    3.4348    1.0000 </r>
       <r>    3.4357    1.0000 </r>
       <r>    3.4421    1.0000 </r>
       <r>    3.4433    1.0000 </r>
       <r>    3.4438    1.0000 </r>
       <r>    3.4485    1.0000 </r>
       <r>    3.4493    1.0000 </r>
       <r>    3.4504    1.0000 </r>
       <r>    3.4515    1.0000 </r>
       <r>    3.5395    1.0000 </r>
       <r>    3.5415    1.0000 </r>
       <r>    3.5436    1.0000 </r>
       <r>    3.6561    1.0000 </r>
       <r>    3.6568    1.0000 </r>
       <r>    3.6576    1.0000 </r>
       <r>    3.7024    1.0000 </r>
       <r>    3.7027    1.0000 </r>
       <r>    3.7029    1.0000 </r>
       <r>    3.8478    1.0000 </r>
       <r>    3.9577    1.0000 </r>
       <r>    3.9606    1.0000 </r>
       <r>    3.9619    1.0000 </r>
       <r>    3.9728    1.0000 </r>
       <r>    3.9738    1.0000 </r>
       <r>    3.9754    1.0000 </r>
       <r>    4.0358    1.0000 </r>
       <r>    4.0359    1.0000 </r>
       <r>    4.0707    1.0000 </r>
       <r>    4.0711    1.0000 </r>
       <r>    4.0719    1.0000 </r>
       <r>    4.2020    1.0000 </r>
       <r>    4.2031    1.0000 </r>
       <r>    4.2041    1.0000 </r>
       <r>    4.3689    1.0000 </r>
       <r>    4.3704    1.0000 </r>
       <r>    4.3720    1.0000 </r>
       <r>    4.4067    1.0000 </r>
       <r>    4.4076    1.0000 </r>
       <r>    4.4082    1.0000 </r>
       <r>    4.5195    1.0000 </r>
       <r>    4.5209    1.0000 </r>
       <r>    4.5230    1.0000 </r>
       <r>    4.5746    1.0000 </r>
       <r>    4.5749    1.0000 </r>
       <r>    4.5751    1.0000 </r>
       <r>    4.6913    1.0000 </r>
       <r>    4.6931    1.0000 </r>
       <r>    4.6951    1.0000 </r>
       <r>    4.7522    1.0000 </r>
       <r>    4.7534    1.0000 </r>
       <r>    4.7546    1.0000 </r>
       <r>    4.7867    1.0000 </r>
       <r>    4.7873    1.0000 </r>
       <r>    4.7885    1.0000 </r>
       <r>    4.8197    1.0000 </r>
       <r>    4.8203    1.0000 </r>
       <r>    4.8228    1.0000 </r>
       <r>    4.8703    1.0000 </r>
       <r>    4.8722    1.0000 </r>
       <r>    4.8745    1.0000 </r>
       <r>    4.9188    1.0000 </r>
       <r>    4.9976    1.0000 </r>
       <r>    4.9984    1.0000 </r>
       <r>    4.9990    1.0000 </r>
       <r>    5.1295    1.0000 </r>
       <r>    5.1298    1.0000 </r>
       <r>    5.1469    1.0000 </r>
       <r>    5.1477    1.0000 </r>
       <r>    5.1490    1.0000 </r>
       <r>    5.2366    1.0000 </r>
       <r>    5.2381    1.0000 </r>
       <r>    5.2395    1.0000 </r>
       <r>    5.2865    1.0000 </r>
       <r>    5.2879    1.0000 </r>
       <r>    5.2894    1.0000 </r>
       <r>    5.3932    1.0000 </r>
       <r>    5.3936    1.0000 </r>
       <r>    5.3944    1.0000 </r>
       <r>    5.4870    1.0000 </r>
       <r>    5.4878    1.0000 </r>
       <r>    5.4879    1.0000 </r>
       <r>    5.5256    1.0000 </r>
       <r>    5.5275    1.0000 </r>
       <r>    5.5297    1.0000 </r>
       <r>    5.6317    1.0000 </r>
       <r>    5.6334    1.0000 </r>
       <r>    5.6338    1.0000 </r>
       <r>    5.6462    1.0000 </r>
       <r>    5.6602    1.0000 </r>
       <r>    5.6624    1.0000 </r>
       <r>    5.6635    1.0000 </r>
       <r>    5.6790    1.0000 </r>
       <r>    5.6804    1.0000 </r>
       <r>    5.6820    1.0000 </r>
       <r>    5.7064    1.0000 </r>
       <r>    5.7067    1.0000 </r>
       <r>    5.7078    1.0000 </r>
       <r>    5.8200    1.0000 </r>
       <r>    5.8201    1.0000 </r>
       <r>    5.9259    1.0000 </r>
       <r>    5.9269    1.0000 </r>
       <r>    5.9280    1.0000 </r>
       <r>    5.9422    1.0000 </r>
       <r>    6.0058    1.0000 </r>
       <r>    6.0085    1.0000 </r>
       <r>    6.0605    1.0000 </r>
       <r>    6.0614    1.0000 </r>
       <r>    6.0636    1.0000 </r>
       <r>    6.1380    1.0000 </r>
       <r>    6.1466    1.0000 </r>
       <r>    6.1469    1.0000 </r>
       <r>    6.1925    1.0000 </r>
       <r>    6.1928    1.0000 </r>
       <r>    6.1936    1.0000 </r>
       <r>    6.2413    1.0000 </r>
       <r>    6.2417    1.0000 </r>
       <r>    6.2715    1.0000 </r>
       <r>    6.2722    1.0000 </r>
       <r>    6.2722    1.0000 </r>
       <r>    6.2726    1.0000 </r>
       <r>    6.2732    1.0000 </r>
       <r>    6.3650    1.0000 </r>
       <r>    6.3659    1.0000 </r>
       <r>    6.3675    1.0000 </r>
       <r>    6.4218    1.0000 </r>
       <r>    6.4231    1.0000 </r>
       <r>    6.5235    1.0000 </r>
       <r>    6.5239    1.0000 </r>
       <r>    6.5574    1.0000 </r>
       <r>    6.5592    1.0000 </r>
       <r>    6.5618    1.0000 </r>
       <r>    6.6286    1.0000 </r>
       <r>    6.6301    1.0000 </r>
       <r>    6.6323    1.0000 </r>
       <r>    6.6331    1.0000 </r>
       <r>    6.6352    1.0000 </r>
       <r>    6.6604    1.0000 </r>
       <r>    6.6621    1.0000 </r>
       <r>    6.6628    1.0000 </r>
       <r>    6.7201    1.0000 </r>
       <r>    6.7221    1.0000 </r>
       <r>    6.7235    1.0000 </r>
       <r>    6.7565    1.0000 </r>
       <r>    6.7580    1.0000 </r>
       <r>    6.7600    1.0000 </r>
       <r>    6.8468    1.0000 </r>
       <r>    6.8482    1.0000 </r>
       <r>    6.8491    1.0000 </r>
       <r>    6.9202    1.0000 </r>
       <r>    6.9381    1.0000 </r>
       <r>    6.9389    1.0000 </r>
       <r>    6.9450    1.0000 </r>
       <r>    6.9494    1.0000 </r>
       <r>    6.9515    1.0000 </r>
       <r>    6.9853    1.0000 </r>
       <r>    6.9855    1.0000 </r>
       <r>    6.9863    1.0000 </r>
       <r>    7.1590    1.0000 </r>
       <r>    7.2844    1.0000 </r>
       <r>    7.2849    1.0000 </r>
       <r>    7.2857    1.0000 </r>
       <r>    7.4474    1.0000 </r>
       <r>    7.4490    1.0000 </r>
       <r>    7.4506    1.0000 </r>
       <r>    7.4619    1.0000 </r>
       <r>    7.4622    1.0000 </r>
       <r>    7.4990    1.0000 </r>
       <r>    7.5120    1.0000 </r>
       <r>    7.5125    1.0000 </r>
       <r>    7.5147    1.0000 </r>
       <r>    7.6633    1.0000 </r>
       <r>    7.6642    1.0000 </r>
       <r>    7.6651    1.0000 </r>
       <r>    7.6843    1.0000 </r>
       <r>    7.6871    1.0000 </r>
       <r>    7.6896    1.0000 </r>
       <r>    7.8924    1.0000 </r>
       <r>    7.8946    1.0000 </r>
       <r>    7.8985    1.0000 </r>
       <r>    7.9301    1.0000 </r>
       <r>    7.9322    1.0000 </r>
       <r>    7.9374    1.0000 </r>
       <r>    7.9410    1.0000 </r>
       <r>    7.9477    1.0000 </r>
       <r>    7.9513    1.0000 </r>
       <r>    7.9670    1.0000 </r>
       <r>    7.9700    1.0000 </r>
       <r>    7.9739    1.0000 </r>
       <r>    8.1151    1.0000 </r>
       <r>    8.1175    1.0000 </r>
       <r>    8.1194    1.0000 </r>
       <r>    8.1673    1.0000 </r>
       <r>    8.1677    1.0000 </r>
       <r>    8.1681    1.0000 </r>
       <r>    8.2656    1.0000 </r>
       <r>    8.2698    1.0000 </r>
       <r>    8.2736    1.0000 </r>
       <r>    8.3254    1.0000 </r>
       <r>    8.3260    1.0000 </r>
       <r>    8.3261    1.0000 </r>
       <r>    8.3569    1.0000 </r>
       <r>    8.3605    1.0000 </r>
       <r>    8.3640    1.0000 </r>
       <r>    8.4052    1.0000 </r>
       <r>    8.4094    1.0000 </r>
       <r>    8.4140    1.0000 </r>
       <r>    8.5363    1.0000 </r>
       <r>    8.5364    1.0000 </r>
       <r>    8.5762    1.0000 </r>
       <r>    8.5765    1.0000 </r>
       <r>    8.5776    1.0000 </r>
       <r>    8.5842    1.0000 </r>
       <r>    8.6065    1.0000 </r>
       <r>    8.6869    1.0000 </r>
       <r>    8.6886    1.0000 </r>
       <r>    8.6956    1.0000 </r>
       <r>    8.6963    1.0000 </r>
       <r>    8.6986    1.0000 </r>
       <r>    8.7116    1.0000 </r>
       <r>    8.7140    1.0000 </r>
       <r>    8.7141    1.0000 </r>
       <r>    8.7533    1.0000 </r>
       <r>    8.7570    1.0000 </r>
       <r>    8.7611    1.0000 </r>
       <r>    8.7989    1.0000 </r>
       <r>    8.8021    1.0000 </r>
       <r>    8.8044    1.0000 </r>
       <r>    8.8757    1.0000 </r>
       <r>    8.8758    1.0000 </r>
       <r>    8.9179    1.0000 </r>
       <r>    8.9200    1.0000 </r>
       <r>    8.9214    1.0000 </r>
       <r>    8.9472    1.0000 </r>
       <r>    8.9479    1.0000 </r>
       <r>    9.0777    1.0000 </r>
       <r>    9.1121    1.0000 </r>
       <r>    9.1145    1.0000 </r>
       <r>    9.1169    1.0000 </r>
       <r>    9.1481    1.0000 </r>
       <r>    9.1517    1.0000 </r>
       <r>    9.1549    1.0000 </r>
       <r>    9.3497    1.0006 </r>
       <r>    9.3498    1.0006 </r>
       <r>    9.4661    1.0279 </r>
       <r>    9.4687    1.0290 </r>
       <r>    9.4729    1.0307 </r>
       <r>    9.4882    1.0351 </r>
       <r>    9.4902    1.0353 </r>
       <r>    9.4928    1.0355 </r>
       <r>    9.8867   -0.0004 </r>
       <r>    9.8874   -0.0004 </r>
       <r>    9.8880   -0.0004 </r>
       <r>   10.3173   -0.0000 </r>
       <r>   10.3174   -0.0000 </r>
       <r>   10.4640   -0.0000 </r>
       <r>   10.4730   -0.0000 </r>
       <r>   10.5577   -0.0000 </r>
       <r>   10.5583   -0.0000 </r>
       <r>   10.5590   -0.0000 </r>
       <r>   10.5696   -0.0000 </r>
       <r>   10.5697   -0.0000 </r>
       <r>   10.5840   -0.0000 </r>
       <r>   10.5841   -0.0000 </r>
       <r>   10.6114   -0.0000 </r>
       <r>   10.6511   -0.0000 </r>
       <r>   10.6513   -0.0000 </r>
       <r>   10.6515   -0.0000 </r>
       <r>   10.6919   -0.0000 </r>
       <r>   10.6945   -0.0000 </r>
       <r>   10.6950   -0.0000 </r>
       <r>   10.6995   -0.0000 </r>
       <r>   10.7016   -0.0000 </r>
       <r>   10.7020   -0.0000 </r>
       <r>   10.7092   -0.0000 </r>
       <r>   10.7316   -0.0000 </r>
       <r>   10.7323   -0.0000 </r>
       <r>   10.7654   -0.0000 </r>
       <r>   10.7678   -0.0000 </r>
       <r>   10.7699   -0.0000 </r>
       <r>   10.8207   -0.0000 </r>
       <r>   10.8236   -0.0000 </r>
       <r>   10.8245   -0.0000 </r>
       <r>   10.8308   -0.0000 </r>
       <r>   10.8315   -0.0000 </r>
       <r>   10.8328   -0.0000 </r>
       <r>   10.9303   -0.0000 </r>
       <r>   10.9400   -0.0000 </r>
       <r>   11.0379   -0.0000 </r>
       <r>   11.0625   -0.0000 </r>
       <r>   11.1021   -0.0000 </r>
       <r>   11.1456   -0.0000 </r>
       <r>   11.1692   -0.0000 </r>
       <r>   11.1743   -0.0000 </r>
       <r>   11.2150   -0.0000 </r>
       <r>   11.9980   -0.0000 </r>
       <r>   12.3945    0.0000 </r>
       <r>   12.4864    0.0000 </r>
       <r>   12.6999    0.0000 </r>
       <r>   12.8831    0.0000 </r>
       <r>   12.9987    0.0000 </r>
      </set>
      <set comment="kpoint 3">
       <r>   -0.1227    1.0000 </r>
       <r>    0.3612    1.0000 </r>
       <r>    1.4749    1.0000 </r>
       <r>    1.4772    1.0000 </r>
       <r>    1.4794    1.0000 </r>
       <r>    1.6231    1.0000 </r>
       <r>    1.6251    1.0000 </r>
       <r>    1.6272    1.0000 </r>
       <r>    2.1135    1.0000 </r>
       <r>    2.1426    1.0000 </r>
       <r>    2.1826    1.0000 </r>
       <r>    2.1848    1.0000 </r>
       <r>    2.1870    1.0000 </r>
       <r>    2.4596    1.0000 </r>
       <r>    2.4597    1.0000 </r>
       <r>    2.5437    1.0000 </r>
       <r>    2.6751    1.0000 </r>
       <r>    2.6754    1.0000 </r>
       <r>    2.7236    1.0000 </r>
       <r>    2.7258    1.0000 </r>
       <r>    2.7278    1.0000 </r>
       <r>    2.8451    1.0000 </r>
       <r>    2.8479    1.0000 </r>
       <r>    2.8480    1.0000 </r>
       <r>    2.9358    1.0000 </r>
       <r>    2.9361    1.0000 </r>
       <r>    2.9489    1.0000 </r>
       <r>    3.0599    1.0000 </r>
       <r>    3.0617    1.0000 </r>
       <r>    3.0636    1.0000 </r>
       <r>    3.0911    1.0000 </r>
       <r>    3.1245    1.0000 </r>
       <r>    3.1247    1.0000 </r>
       <r>    3.2045    1.0000 </r>
       <r>    3.2069    1.0000 </r>
       <r>    3.2093    1.0000 </r>
       <r>    3.2287    1.0000 </r>
       <r>    3.4044    1.0000 </r>
       <r>    3.4553    1.0000 </r>
       <r>    3.4560    1.0000 </r>
       <r>    3.4569    1.0000 </r>
       <r>    3.5008    1.0000 </r>
       <r>    3.5012    1.0000 </r>
       <r>    3.5624    1.0000 </r>
       <r>    3.5635    1.0000 </r>
       <r>    3.5640    1.0000 </r>
       <r>    3.5818    1.0000 </r>
       <r>    3.5830    1.0000 </r>
       <r>    3.5837    1.0000 </r>
       <r>    3.6020    1.0000 </r>
       <r>    3.6039    1.0000 </r>
       <r>    3.6054    1.0000 </r>
       <r>    3.6654    1.0000 </r>
       <r>    3.6685    1.0000 </r>
       <r>    3.6686    1.0000 </r>
       <r>    3.6698    1.0000 </r>
       <r>    3.6707    1.0000 </r>
       <r>    3.6731    1.0000 </r>
       <r>    3.7547    1.0000 </r>
       <r>    3.7566    1.0000 </r>
       <r>    3.7586    1.0000 </r>
       <r>    3.8085    1.0000 </r>
       <r>    3.8103    1.0000 </r>
       <r>    3.8119    1.0000 </r>
       <r>    3.9093    1.0000 </r>
       <r>    3.9119    1.0000 </r>
       <r>    3.9143    1.0000 </r>
       <r>    3.9268    1.0000 </r>
       <r>    3.9277    1.0000 </r>
       <r>    3.9283    1.0000 </r>
       <r>    4.0084    1.0000 </r>
       <r>    4.0104    1.0000 </r>
       <r>    4.0127    1.0000 </r>
       <r>    4.0460    1.0000 </r>
       <r>    4.0478    1.0000 </r>
       <r>    4.0495    1.0000 </r>
       <r>    4.2923    1.0000 </r>
       <r>    4.2927    1.0000 </r>
       <r>    4.2927    1.0000 </r>
       <r>    4.4136    1.0000 </r>
       <r>    4.4145    1.0000 </r>
       <r>    4.4149    1.0000 </r>
       <r>    4.4565    1.0000 </r>
       <r>    4.4580    1.0000 </r>
       <r>    4.4594    1.0000 </r>
       <r>    4.5134    1.0000 </r>
       <r>    4.5143    1.0000 </r>
       <r>    4.5156    1.0000 </r>
       <r>    4.7631    1.0000 </r>
       <r>    4.7633    1.0000 </r>
       <r>    4.7635    1.0000 </r>
       <r>    4.9427    1.0000 </r>
       <r>    4.9431    1.0000 </r>
       <r>    4.9432    1.0000 </r>
       <r>    4.9588    1.0000 </r>
       <r>    4.9612    1.0000 </r>
       <r>    4.9640    1.0000 </r>
       <r>    5.0073    1.0000 </r>
       <r>    5.0074    1.0000 </r>
       <r>    5.0097    1.0000 </r>
       <r>    5.0645    1.0000 </r>
       <r>    5.0666    1.0000 </r>
       <r>    5.0687    1.0000 </r>
       <r>    5.1450    1.0000 </r>
       <r>    5.1471    1.0000 </r>
       <r>    5.1482    1.0000 </r>
       <r>    5.1582    1.0000 </r>
       <r>    5.1601    1.0000 </r>
       <r>    5.1601    1.0000 </r>
       <r>    5.2626    1.0000 </r>
       <r>    5.2651    1.0000 </r>
       <r>    5.2677    1.0000 </r>
       <r>    5.3745    1.0000 </r>
       <r>    5.3762    1.0000 </r>
       <r>    5.3772    1.0000 </r>
       <r>    5.3787    1.0000 </r>
       <r>    5.4247    1.0000 </r>
       <r>    5.4254    1.0000 </r>
       <r>    5.4562    1.0000 </r>
       <r>    5.4569    1.0000 </r>
       <r>    5.4576    1.0000 </r>
       <r>    5.5075    1.0000 </r>
       <r>    5.5075    1.0000 </r>
       <r>    5.5082    1.0000 </r>
       <r>    5.5671    1.0000 </r>
       <r>    5.5690    1.0000 </r>
       <r>    5.5710    1.0000 </r>
       <r>    5.5880    1.0000 </r>
       <r>    5.5894    1.0000 </r>
       <r>    5.5913    1.0000 </r>
       <r>    5.6742    1.0000 </r>
       <r>    5.6742    1.0000 </r>
       <r>    5.7501    1.0000 </r>
       <r>    5.7984    1.0000 </r>
       <r>    5.9387    1.0000 </r>
       <r>    5.9399    1.0000 </r>
       <r>    5.9414    1.0000 </r>
       <r>    5.9876    1.0000 </r>
       <r>    5.9926    1.0000 </r>
       <r>    5.9948    1.0000 </r>
       <r>    5.9964    1.0000 </r>
       <r>    6.0636    1.0000 </r>
       <r>    6.0641    1.0000 </r>
       <r>    6.0641    1.0000 </r>
       <r>    6.0925    1.0000 </r>
       <r>    6.0942    1.0000 </r>
       <r>    6.0966    1.0000 </r>
       <r>    6.1943    1.0000 </r>
       <r>    6.2371    1.0000 </r>
       <r>    6.2386    1.0000 </r>
       <r>    6.2424    1.0000 </r>
       <r>    6.2435    1.0000 </r>
       <r>    6.2439    1.0000 </r>
       <r>    6.2445    1.0000 </r>
       <r>    6.2458    1.0000 </r>
       <r>    6.2483    1.0000 </r>
       <r>    6.2492    1.0000 </r>
       <r>    6.2508    1.0000 </r>
       <r>    6.2521    1.0000 </r>
       <r>    6.3655    1.0000 </r>
       <r>    6.3659    1.0000 </r>
       <r>    6.3679    1.0000 </r>
       <r>    6.3680    1.0000 </r>
       <r>    6.3906    1.0000 </r>
       <r>    6.3907    1.0000 </r>
       <r>    6.3913    1.0000 </r>
       <r>    6.5196    1.0000 </r>
       <r>    6.5197    1.0000 </r>
       <r>    6.5203    1.0000 </r>
       <r>    6.5245    1.0000 </r>
       <r>    6.5252    1.0000 </r>
       <r>    6.5819    1.0000 </r>
       <r>    6.5827    1.0000 </r>
       <r>    6.6043    1.0000 </r>
       <r>    6.6707    1.0000 </r>
       <r>    6.6721    1.0000 </r>
       <r>    6.6742    1.0000 </r>
       <r>    6.7640    1.0000 </r>
       <r>    6.7928    1.0000 </r>
       <r>    6.7938    1.0000 </r>
       <r>    6.7960    1.0000 </r>
       <r>    6.8076    1.0000 </r>
       <r>    6.8110    1.0000 </r>
       <r>    6.8147    1.0000 </r>
       <r>    6.8188    1.0000 </r>
       <r>    6.8204    1.0000 </r>
       <r>    6.8206    1.0000 </r>
       <r>    6.8419    1.0000 </r>
       <r>    6.8457    1.0000 </r>
       <r>    6.8497    1.0000 </r>
       <r>    6.8893    1.0000 </r>
       <r>    6.8898    1.0000 </r>
       <r>    6.9526    1.0000 </r>
       <r>    6.9550    1.0000 </r>
       <r>    6.9565    1.0000 </r>
       <r>    7.0460    1.0000 </r>
       <r>    7.0464    1.0000 </r>
       <r>    7.0619    1.0000 </r>
       <r>    7.0625    1.0000 </r>
       <r>    7.0633    1.0000 </r>
       <r>    7.2899    1.0000 </r>
       <r>    7.2924    1.0000 </r>
       <r>    7.2945    1.0000 </r>
       <r>    7.4090    1.0000 </r>
       <r>    7.5040    1.0000 </r>
       <r>    7.5055    1.0000 </r>
       <r>    7.5071    1.0000 </r>
       <r>    7.5732    1.0000 </r>
       <r>    7.5744    1.0000 </r>
       <r>    7.5758    1.0000 </r>
       <r>    7.6948    1.0000 </r>
       <r>    7.6965    1.0000 </r>
       <r>    7.6980    1.0000 </r>
       <r>    7.7181    1.0000 </r>
       <r>    7.8102    1.0000 </r>
       <r>    7.8113    1.0000 </r>
       <r>    7.8145    1.0000 </r>
       <r>    7.8600    1.0000 </r>
       <r>    7.8666    1.0000 </r>
       <r>    7.8685    1.0000 </r>
       <r>    7.8748    1.0000 </r>
       <r>    7.8776    1.0000 </r>
       <r>    7.8844    1.0000 </r>
       <r>    7.9197    1.0000 </r>
       <r>    7.9198    1.0000 </r>
       <r>    7.9632    1.0000 </r>
       <r>    7.9633    1.0000 </r>
       <r>    8.0521    1.0000 </r>
       <r>    8.0560    1.0000 </r>
       <r>    8.0596    1.0000 </r>
       <r>    8.2228    1.0000 </r>
       <r>    8.2329    1.0000 </r>
       <r>    8.2359    1.0000 </r>
       <r>    8.2397    1.0000 </r>
       <r>    8.3178    1.0000 </r>
       <r>    8.3232    1.0000 </r>
       <r>    8.3273    1.0000 </r>
       <r>    8.3766    1.0000 </r>
       <r>    8.4061    1.0000 </r>
       <r>    8.4117    1.0000 </r>
       <r>    8.4119    1.0000 </r>
       <r>    8.4231    1.0000 </r>
       <r>    8.4263    1.0000 </r>
       <r>    8.4285    1.0000 </r>
       <r>    8.4316    1.0000 </r>
       <r>    8.4343    1.0000 </r>
       <r>    8.4404    1.0000 </r>
       <r>    8.4886    1.0000 </r>
       <r>    8.4899    1.0000 </r>
       <r>    8.4915    1.0000 </r>
       <r>    8.5567    1.0000 </r>
       <r>    8.5570    1.0000 </r>
       <r>    8.5667    1.0000 </r>
       <r>    8.5708    1.0000 </r>
       <r>    8.5745    1.0000 </r>
       <r>    8.6188    1.0000 </r>
       <r>    8.6188    1.0000 </r>
       <r>    8.7669    1.0000 </r>
       <r>    8.7676    1.0000 </r>
       <r>    8.7683    1.0000 </r>
       <r>    8.8221    1.0000 </r>
       <r>    8.8235    1.0000 </r>
       <r>    8.8249    1.0000 </r>
       <r>    9.1342    1.0000 </r>
       <r>    9.1342    1.0000 </r>
       <r>    9.3018    1.0000 </r>
       <r>    9.3030    1.0000 </r>
       <r>    9.3036    1.0000 </r>
       <r>    9.3100    1.0001 </r>
       <r>    9.3125    1.0001 </r>
       <r>    9.3158    1.0001 </r>
       <r>    9.3499    1.0006 </r>
       <r>    9.4073    1.0060 </r>
       <r>    9.4240    1.0104 </r>
       <r>    9.4248    1.0106 </r>
       <r>    9.4274    1.0115 </r>
       <r>    9.4285    1.0118 </r>
       <r>    9.4305    1.0125 </r>
       <r>    9.4315    1.0129 </r>
       <r>    9.5757    0.8099 </r>
       <r>    9.5758    0.8096 </r>
       <r>    9.6615    0.1535 </r>
       <r>    9.6644    0.1367 </r>
       <r>    9.6672    0.1215 </r>
       <r>    9.6824    0.0520 </r>
       <r>    9.6848    0.0431 </r>
       <r>    9.6860    0.0389 </r>
       <r>    9.8223   -0.0064 </r>
       <r>    9.8223   -0.0064 </r>
       <r>   10.0235   -0.0000 </r>
       <r>   10.0238   -0.0000 </r>
       <r>   10.0240   -0.0000 </r>
       <r>   10.0282   -0.0000 </r>
       <r>   10.1156   -0.0000 </r>
       <r>   10.1189   -0.0000 </r>
       <r>   10.1212   -0.0000 </r>
       <r>   10.1691   -0.0000 </r>
       <r>   10.1710   -0.0000 </r>
       <r>   10.1747   -0.0000 </r>
       <r>   10.1901   -0.0000 </r>
       <r>   10.1902   -0.0000 </r>
       <r>   10.2165   -0.0000 </r>
       <r>   10.2176   -0.0000 </r>
       <r>   10.2179   -0.0000 </r>
       <r>   10.2437   -0.0000 </r>
       <r>   10.2445   -0.0000 </r>
       <r>   10.2469   -0.0000 </r>
       <r>   10.2633   -0.0000 </r>
       <r>   10.2639   -0.0000 </r>
       <r>   10.5306   -0.0000 </r>
       <r>   10.5311   -0.0000 </r>
       <r>   10.5331   -0.0000 </r>
       <r>   10.6139   -0.0000 </r>
       <r>   10.6143   -0.0000 </r>
       <r>   10.6185   -0.0000 </r>
       <r>   10.6461   -0.0000 </r>
       <r>   10.6755   -0.0000 </r>
       <r>   10.6890   -0.0000 </r>
       <r>   10.6925   -0.0000 </r>
       <r>   10.7171   -0.0000 </r>
       <r>   10.7545   -0.0000 </r>
       <r>   10.7558   -0.0000 </r>
       <r>   10.7630   -0.0000 </r>
       <r>   10.7724   -0.0000 </r>
       <r>   10.7796   -0.0000 </r>
       <r>   10.8494   -0.0000 </r>
       <r>   10.8573   -0.0000 </r>
       <r>   10.8640   -0.0000 </r>
       <r>   10.8885   -0.0000 </r>
       <r>   10.8968   -0.0000 </r>
       <r>   10.9201   -0.0000 </r>
       <r>   10.9517   -0.0000 </r>
       <r>   10.9799   -0.0000 </r>
       <r>   11.0033   -0.0000 </r>
       <r>   12.4277    0.0000 </r>
       <r>   12.7029    0.0000 </r>
       <r>   12.8002    0.0000 </r>
       <r>   12.8405    0.0000 </r>
       <r>   12.9206    0.0000 </r>
       <r>   13.1322    0.0000 </r>
      </set>
      <set comment="kpoint 4">
[...]
      </set>
     </set>
    </set>
   </array>
  </eigenvalues>
  <separator name="orbital magnetization" >
   <v name="MAGDIPOLOUT">      0.00000000      0.00000000      0.00000000</v>
  </separator>
  <dos>
   <i name="efermi">      9.61563201 </i>
   <total>
    <array>
     <dimension dim="1">gridpoints</dimension>
     <dimension dim="2">spin</dimension>
     <field>energy</field>
     <field>total</field>
     <field>integrated</field>
     <set>
      <set comment="spin 1">
       <r>    -1.5413     0.0000     0.0000 </r>
       <r>    -1.4861     0.0000     0.0000 </r>
       <r>    -1.4309     0.0000     0.0000 </r>
       <r>    -1.3757    -0.0000    -0.0000 </r>
       <r>    -1.3205    -0.0000    -0.0000 </r>
       <r>    -1.2653    -0.0000    -0.0000 </r>
       <r>    -1.2101    -0.0000    -0.0000 </r>
       <r>    -1.1550    -0.0000    -0.0000 </r>
       <r>    -1.0998    -0.0000    -0.0000 </r>
       <r>    -1.0446    -0.0000    -0.0000 </r>
       <r>    -0.9894    -0.0000    -0.0000 </r>
       <r>    -0.9342    -0.0000    -0.0000 </r>
       <r>    -0.8790    -0.0000    -0.0000 </r>
       <r>    -0.8238    -0.0001    -0.0000 </r>
       <r>    -0.7687    -0.0008    -0.0000 </r>
       <r>    -0.7135    -0.0049    -0.0003 </r>
       <r>    -0.6583    -0.0135    -0.0011 </r>
       <r>    -0.6031    -0.0160    -0.0020 </r>
       <r>    -0.5479     0.0358     0.0000 </r>
       <r>    -0.4927     0.4121     0.0228 </r>
       <r>    -0.4375     1.2690     0.0928 </r>
       <r>    -0.3823     1.6164     0.1820 </r>
       <r>    -0.3272     1.0846     0.2419 </r>
       <r>    -0.2720     1.1252     0.3040 </r>
       <r>    -0.2168     2.1885     0.4247 </r>
       <r>    -0.1616     3.7190     0.6300 </r>
       <r>    -0.1064     3.8746     0.8438 </r>
       <r>    -0.0512     1.8261     0.9446 </r>
       <r>     0.0040     0.4762     0.9709 </r>
       <r>     0.0592     1.6818     1.0637 </r>
       <r>     0.1143     4.6198     1.3186 </r>
       <r>     0.1695     5.7116     1.6338 </r>
       <r>     0.2247     3.9283     1.8506 </r>
       <r>     0.2799     3.2741     2.0313 </r>
       <r>     0.3351     4.2828     2.2677 </r>
       <r>     0.3903     4.5801     2.5204 </r>
       <r>     0.4455     2.7792     2.6738 </r>
       <r>     0.5007     1.0081     2.7294 </r>
       <r>     0.5558     2.7539     2.8814 </r>
       <r>     0.6110     7.7788     3.3107 </r>
       <r>     0.6662     9.7080     3.8465 </r>
       <r>     0.7214     5.7240     4.1624 </r>
       <r>     0.7766     3.7653     4.3702 </r>
       <r>     0.8318     5.8602     4.6936 </r>
       <r>     0.8870     6.6246     5.0592 </r>
       <r>     0.9421     4.3428     5.2988 </r>
       <r>     0.9973     1.7216     5.3938 </r>
       <r>     1.0525     3.0660     5.5630 </r>
       <r>     1.1077     7.8355     5.9955 </r>
       <r>     1.1629    10.5223     6.5762 </r>
       <r>     1.2181    10.8976     7.1776 </r>
       <r>     1.2733    10.3728     7.7500 </r>
       <r>     1.3285     8.3503     8.2108 </r>
       <r>     1.3836     5.9588     8.5397 </r>
       <r>     1.4388     6.0129     8.8715 </r>
       <r>     1.4940     7.5890     9.2903 </r>
       <r>     1.5492     6.9119     9.6718 </r>
       <r>     1.6044     5.3493     9.9670 </r>
       <r>     1.6596     7.2584    10.3676 </r>
       <r>     1.7148    12.7024    11.0686 </r>
       <r>     1.7700    17.4443    12.0313 </r>
       <r>     1.8251    18.1136    13.0309 </r>
       <r>     1.8803    15.9409    13.9106 </r>
       <r>     1.9355    13.2433    14.6415 </r>
       <r>     1.9907    11.7245    15.2885 </r>
       <r>     2.0459    11.6579    15.9319 </r>
       <r>     2.1011    14.0172    16.7055 </r>
       <r>     2.1563    22.6773    17.9570 </r>
       <r>     2.2114    31.1331    19.6751 </r>
       <r>     2.2666    33.6343    21.5313 </r>
       <r>     2.3218    38.7951    23.6723 </r>
       <r>     2.3770    43.2276    26.0579 </r>
       <r>     2.4322    36.7426    28.0856 </r>
       <r>     2.4874    29.6433    29.7215 </r>
       <r>     2.5426    24.8469    31.0928 </r>
       <r>     2.5978    20.4154    32.2194 </r>
       <r>     2.6529    25.2702    33.6140 </r>
       <r>     2.7081    36.0486    35.6034 </r>
       <r>     2.7633    41.4614    37.8916 </r>
       <r>     2.8185    47.7765    40.5282 </r>
       <r>     2.8737    59.6915    43.8224 </r>
       <r>     2.9289    65.3577    47.4293 </r>
       <r>     2.9841    60.7549    50.7822 </r>
       <r>     3.0393    61.3823    54.1697 </r>
       <r>     3.0944    77.0685    58.4229 </r>
       <r>     3.1496    94.2145    63.6223 </r>
       <r>     3.2048   101.7891    69.2397 </r>
       <r>     3.2600    97.9103    74.6431 </r>
       <r>     3.3152    90.9405    79.6619 </r>
       <r>     3.3704    90.0481    84.6314 </r>
       <r>     3.4256    89.9679    89.5964 </r>
       <r>     3.4808    87.4377    94.4219 </r>
       <r>     3.5359    85.0381    99.1149 </r>
       <r>     3.5911    88.4416   103.9957 </r>
       <r>     3.6463    92.1488   109.0811 </r>
       <r>     3.7015    86.5212   113.8560 </r>
       <r>     3.7567    77.1066   118.1113 </r>
       <r>     3.8119    77.7404   122.4015 </r>
       <r>     3.8671    83.7983   127.0261 </r>
       <r>     3.9222    74.9107   131.1602 </r>
       <r>     3.9774    60.8687   134.5194 </r>
       <r>     4.0326    69.0466   138.3299 </r>
       <r>     4.0878    82.7794   142.8982 </r>
       <r>     4.1430    76.8239   147.1379 </r>
       <r>     4.1982    63.1375   150.6223 </r>
       <r>     4.2534    52.2340   153.5049 </r>
       <r>     4.3086    49.7515   156.2505 </r>
       <r>     4.3637    59.9867   159.5610 </r>
       <r>     4.4189    66.8686   163.2513 </r>
       <r>     4.4741    60.2732   166.5776 </r>
       <r>     4.5293    51.0446   169.3946 </r>
       <r>     4.5845    47.9070   172.0385 </r>
       <r>     4.6397    54.2853   175.0343 </r>
       <r>     4.6949    69.0209   178.8434 </r>
       <r>     4.7501    85.6062   183.5677 </r>
       <r>     4.8052    90.5378   188.5642 </r>
       <r>     4.8604    72.7341   192.5782 </r>
       <r>     4.9156    56.4433   195.6932 </r>
       <r>     4.9708    60.8594   199.0518 </r>
       <r>     5.0260    69.6256   202.8943 </r>
       <r>     5.0812    72.7830   206.9109 </r>
       <r>     5.1364    73.7970   210.9836 </r>
       <r>     5.1916    77.4687   215.2588 </r>
       <r>     5.2467    82.6014   219.8174 </r>
       <r>     5.3019    84.4605   224.4785 </r>
       <r>     5.3571    86.7619   229.2666 </r>
       <r>     5.4123    86.3158   234.0302 </r>
       <r>     5.4675    74.1470   238.1221 </r>
       <r>     5.5227    62.3558   241.5633 </r>
       <r>     5.5779    63.5167   245.0686 </r>
       <r>     5.6330    81.1054   249.5446 </r>
       <r>     5.6882   105.8535   255.3864 </r>
       <r>     5.7434   113.1401   261.6302 </r>
       <r>     5.7986    96.0017   266.9283 </r>
       <r>     5.8538    69.9945   270.7911 </r>
       <r>     5.9090    59.1298   274.0543 </r>
       <r>     5.9642    64.0244   277.5876 </r>
       <r>     6.0194    70.5259   281.4797 </r>
       <r>     6.0745    74.6435   285.5991 </r>
       <r>     6.1297    83.6239   290.2140 </r>
       <r>     6.1849   105.0334   296.0105 </r>
       <r>     6.2401   118.9199   302.5734 </r>
       <r>     6.2953   111.4407   308.7234 </r>
       <r>     6.3505   107.5447   314.6585 </r>
       <r>     6.4057   112.8416   320.8859 </r>
       <r>     6.4609   108.9835   326.9004 </r>
       <r>     6.5160   106.8265   332.7958 </r>
       <r>     6.5712   117.7549   339.2944 </r>
       <r>     6.6264   140.4451   347.0451 </r>
       <r>     6.6816   147.9960   355.2126 </r>
       <r>     6.7368   120.1732   361.8446 </r>
       <r>     6.7920    89.8294   366.8020 </r>
       <r>     6.8472    80.3161   371.2344 </r>
       <r>     6.9024    78.3136   375.5563 </r>
       <r>     6.9575    78.3521   379.8804 </r>
       <r>     7.0127    81.6924   384.3887 </r>
       <r>     7.0679    87.7214   389.2298 </r>
       <r>     7.1231    89.8010   394.1857 </r>
       <r>     7.1783    73.1626   398.2233 </r>
       <r>     7.2335    56.2612   401.3282 </r>
       <r>     7.2887    64.5251   404.8891 </r>
       <r>     7.3438    68.3902   408.6634 </r>
       <r>     7.3990    58.1709   411.8737 </r>
       <r>     7.4542    63.1972   415.3613 </r>
       <r>     7.5094    70.7504   419.2659 </r>
       <r>     7.5646    64.0743   422.8019 </r>
       <r>     7.6198    57.1093   425.9536 </r>
       <r>     7.6750    57.6195   429.1335 </r>
       <r>     7.7302    61.4008   432.5220 </r>
       <r>     7.7853    66.5583   436.1952 </r>
       <r>     7.8405    73.8388   440.2701 </r>
       <r>     7.8957    81.5255   444.7693 </r>
       <r>     7.9509    75.8677   448.9562 </r>
       <r>     8.0061    66.3838   452.6197 </r>
       <r>     8.0613    77.9448   456.9213 </r>
       <r>     8.1165    93.6979   462.0922 </r>
       <r>     8.1717    86.2623   466.8527 </r>
       <r>     8.2268    75.6188   471.0259 </r>
       <r>     8.2820    79.1970   475.3966 </r>
       <r>     8.3372    77.2826   479.6616 </r>
       <r>     8.3924    68.1879   483.4246 </r>
       <r>     8.4476    61.2764   486.8063 </r>
       <r>     8.5028    52.5943   489.7088 </r>
       <r>     8.5580    47.1949   492.3134 </r>
       <r>     8.6132    49.4854   495.0443 </r>
       <r>     8.6683    58.1875   498.2555 </r>
       <r>     8.7235    74.8330   502.3854 </r>
       <r>     8.7787    83.7476   507.0071 </r>
       <r>     8.8339    81.6474   511.5130 </r>
       <r>     8.8891    84.3507   516.1681 </r>
       <r>     8.9443    87.2225   520.9816 </r>
       <r>     8.9995    80.5528   525.4271 </r>
       <r>     9.0546    70.2905   529.3062 </r>
       <r>     9.1098    58.2345   532.5200 </r>
       <r>     9.1650    46.6667   535.0954 </r>
       <r>     9.2202    35.8876   537.0760 </r>
       <r>     9.2754    32.6014   538.8751 </r>
       <r>     9.3306    44.5137   541.3317 </r>
       <r>     9.3858    56.4306   544.4460 </r>
       <r>     9.4410    56.0800   547.5409 </r>
       <r>     9.4961    53.9563   550.5186 </r>
       <r>     9.5513    66.2165   554.1728 </r>
       <r>     9.6065    89.3658   559.1047 </r>
       <r>     9.6617    97.4311   564.4816 </r>
       <r>     9.7169    84.4736   569.1435 </r>
       <r>     9.7721    66.3399   572.8046 </r>
       <r>     9.8273    54.2481   575.7984 </r>
       <r>     9.8825    46.5290   578.3662 </r>
       <r>     9.9376    40.5588   580.6045 </r>
       <r>     9.9928    44.6229   583.0671 </r>
       <r>    10.0480    57.5630   586.2438 </r>
       <r>    10.1032    65.7269   589.8711 </r>
       <r>    10.1584    76.5464   594.0955 </r>
       <r>    10.2136    94.1020   599.2887 </r>
       <r>    10.2688    99.2749   604.7674 </r>
       <r>    10.3239    97.3655   610.1407 </r>
       <r>    10.3791    98.3284   615.5672 </r>
       <r>    10.4343    95.0716   620.8139 </r>
       <r>    10.4895    93.9547   625.9990 </r>
       <r>    10.5447   100.3877   631.5391 </r>
       <r>    10.5999   103.1695   637.2327 </r>
       <r>    10.6551    96.4139   642.5535 </r>
       <r>    10.7103    87.8433   647.4013 </r>
       <r>    10.7654    84.8725   652.0852 </r>
       <r>    10.8206    87.1878   656.8968 </r>
       <r>    10.8758    84.3205   661.5502 </r>
       <r>    10.9310    67.2062   665.2591 </r>
       <r>    10.9862    44.7067   667.7264 </r>
       <r>    11.0414    30.6320   669.4169 </r>
       <r>    11.0966    22.8751   670.6793 </r>
       <r>    11.1518    15.1364   671.5146 </r>
       <r>    11.2069     9.7519   672.0528 </r>
       <r>    11.2621     6.8428   672.4304 </r>
       <r>    11.3173     4.4338   672.6751 </r>
       <r>    11.3725     3.2208   672.8528 </r>
       <r>    11.4277     2.5170   672.9918 </r>
       <r>    11.4829     1.8919   673.0962 </r>
       <r>    11.5381     2.5700   673.2380 </r>
       <r>    11.5933     4.6885   673.4967 </r>
       <r>    11.6484     7.0484   673.8857 </r>
       <r>    11.7036     7.7864   674.3154 </r>
       <r>    11.7588     5.6409   674.6267 </r>
       <r>    11.8140     3.4797   674.8188 </r>
       <r>    11.8692     3.1001   674.9899 </r>
       <r>    11.9244     2.6763   675.1375 </r>
       <r>    11.9796     2.4673   675.2737 </r>
       <r>    12.0347     3.0082   675.4397 </r>
       <r>    12.0899     3.3225   675.6231 </r>
       <r>    12.1451     2.8566   675.7807 </r>
       <r>    12.2003     1.5934   675.8687 </r>
       <r>    12.2555     0.2790   675.8841 </r>
       <r>    12.3107    -0.0149   675.8832 </r>
       <r>    12.3659     1.3730   675.9590 </r>
       <r>    12.4211     3.6994   676.1632 </r>
       <r>    12.4762     4.9167   676.4345 </r>
       <r>    12.5314     4.0105   676.6558 </r>
       <r>    12.5866     2.3389   676.7849 </r>
       <r>    12.6418     1.9137   676.8905 </r>
       <r>    12.6970     2.8010   677.0451 </r>
       <r>    12.7522     4.0087   677.2663 </r>
       <r>    12.8074     5.2263   677.5548 </r>
       <r>    12.8626     5.7657   677.8730 </r>
       <r>    12.9177     4.8533   678.1408 </r>
       <r>    12.9729     3.1240   678.3132 </r>
       <r>    13.0281     1.7424   678.4094 </r>
       <r>    13.0833     1.5537   678.4951 </r>
       <r>    13.1385     2.2530   678.6194 </r>
       <r>    13.1937     1.9409   678.7266 </r>
       <r>    13.2489     0.5460   678.7567 </r>
       <r>    13.3041    -0.2252   678.7443 </r>
       <r>    13.3592     0.3322   678.7626 </r>
       <r>    13.4144     2.1535   678.8814 </r>
       <r>    13.4696     3.0847   679.0517 </r>
       <r>    13.5248     1.8663   679.1547 </r>
       <r>    13.5800     1.3226   679.2277 </r>
       <r>    13.6352     2.0697   679.3419 </r>
       <r>    13.6904     1.8339   679.4431 </r>
       <r>    13.7455     0.9448   679.4952 </r>
       <r>    13.8007     0.8004   679.5394 </r>
       <r>    13.8559     0.9568   679.5922 </r>
       <r>    13.9111     1.4091   679.6700 </r>
       <r>    13.9663     2.3951   679.8022 </r>
       <r>    14.0215     2.4076   679.9350 </r>
       <r>    14.0767     1.1689   679.9995 </r>
       <r>    14.1319     0.1521   680.0079 </r>
       <r>    14.1870    -0.0933   680.0028 </r>
       <r>    14.2422    -0.0426   680.0004 </r>
       <r>    14.2974    -0.0071   680.0000 </r>
       <r>    14.3526    -0.0006   680.0000 </r>
       <r>    14.4078    -0.0000   680.0000 </r>
       <r>    14.4630    -0.0000   680.0000 </r>
       <r>    14.5182    -0.0000   680.0000 </r>
       <r>    14.5734    -0.0000   680.0000 </r>
       <r>    14.6285    -0.0000   680.0000 </r>
       <r>    14.6837     0.0000   680.0000 </r>
       <r>    14.7389     0.0000   680.0000 </r>
       <r>    14.7941     0.0000   680.0000 </r>
       <r>    14.8493     0.0000   680.0000 </r>
       <r>    14.9045     0.0000   680.0000 </r>
       <r>    14.9597     0.0000   680.0000 </r>
       <r>    15.0149     0.0000   680.0000 </r>
      </set>
     </set>
    </array>
   </total>
  </dos>
 </calculation>
 <structure name="finalpos" >
  <crystal>
   <varray name="basis" >
    <v>       7.71598000       0.00000000       7.71598000 </v>
    <v>       7.71598000       7.71598000       0.00000000 </v>
    <v>       0.00000000       7.71598000       7.71598000 </v>
   </varray>
   <i name="volume">    918.76253101 </i>
   <varray name="rec_basis" >
    <v>       0.06480058      -0.06480058       0.06480058 </v>
    <v>       0.06480058       0.06480058      -0.06480058 </v>
    <v>      -0.06480058       0.06480058       0.06480058 </v>
   </varray>
  </crystal>
  <varray name="positions" >
   <v>       0.25000000       0.25000000       0.00000000 </v>
   <v>       0.00000000       0.25000000       0.25000000 </v>
   <v>       0.25000000       0.00000000       0.25000000 </v>
   <v>       0.25000000       0.75000000       0.00000000 </v>
   <v>       0.00000000       0.75000000       0.25000000 </v>
   <v>       0.25000000       0.50000000       0.25000000 </v>
   <v>       0.75000000       0.25000000       0.00000000 </v>
   <v>       0.50000000       0.25000000       0.25000000 </v>
   <v>       0.75000000       0.00000000       0.25000000 </v>
   <v>       0.25000000       0.25000000       0.50000000 </v>
   <v>       0.00000000       0.25000000       0.75000000 </v>
   <v>       0.25000000       0.00000000       0.75000000 </v>
   <v>       0.50000000       0.50000000       0.25000000 </v>
   <v>       0.25000000       0.50000000       0.50000000 </v>
   <v>       0.50000000       0.25000000       0.50000000 </v>
   <v>       0.75000000       0.75000000       0.00000000 </v>
   <v>       0.50000000       0.75000000       0.25000000 </v>
   <v>       0.75000000       0.50000000       0.25000000 </v>
   <v>       0.25000000       0.75000000       0.50000000 </v>
   <v>       0.00000000       0.75000000       0.75000000 </v>
   <v>       0.25000000       0.50000000       0.75000000 </v>
   <v>       0.50000000       0.00000000       0.25000000 </v>
   <v>       0.25000000       0.00000000       0.50000000 </v>
   <v>       0.50000000       0.75000000       0.50000000 </v>
   <v>       0.75000000       0.25000000       0.50000000 </v>
   <v>       0.50000000       0.25000000       0.75000000 </v>
   <v>       0.75000000       0.00000000       0.75000000 </v>
   <v>       0.00000000       0.50000000       0.25000000 </v>
   <v>       0.75000000       0.50000000       0.50000000 </v>
   <v>       0.00000000       0.25000000       0.50000000 </v>
   <v>       0.50000000       0.50000000       0.75000000 </v>
   <v>       0.25000000       0.50000000       0.00000000 </v>
   <v>       0.50000000       0.25000000       0.00000000 </v>
   <v>       0.75000000       0.75000000       0.50000000 </v>
   <v>       0.50000000       0.75000000       0.75000000 </v>
   <v>       0.75000000       0.50000000       0.75000000 </v>
   <v>       0.00000000       0.00000000       0.25000000 </v>
   <v>       0.75000000       0.00000000       0.50000000 </v>
   <v>       0.00000000       0.75000000       0.50000000 </v>
   <v>       0.50000000       0.00000000       0.75000000 </v>
   <v>       0.25000000       0.00000000       0.00000000 </v>
   <v>       0.50000000       0.75000000       0.00000000 </v>
   <v>       0.00000000       0.50000000       0.75000000 </v>
   <v>       0.75000000       0.50000000       0.00000000 </v>
   <v>       0.00000000       0.25000000       0.00000000 </v>
   <v>       0.00000000       0.00000000       0.75000000 </v>
   <v>       0.75000000       0.00000000       0.00000000 </v>
   <v>       0.00000000       0.75000000       0.00000000 </v>
   <v>       0.25259250       0.25259250       0.24740750 </v>
   <v>       0.25000000       0.75000000       0.25000000 </v>
   <v>       0.75000000       0.25000000       0.25000000 </v>
   <v>       0.25000000       0.25000000       0.75000000 </v>
   <v>       0.50000000       0.50000000       0.50000000 </v>
   <v>       0.75000000       0.75000000       0.25000000 </v>
   <v>       0.25000000       0.75000000       0.75000000 </v>
   <v>       0.50000000       0.00000000       0.50000000 </v>
   <v>       0.75000000       0.25000000       0.75000000 </v>
   <v>       0.00000000       0.50000000       0.50000000 </v>
   <v>       0.50000000       0.50000000       0.00000000 </v>
   <v>       0.75000000       0.75000000       0.75000000 </v>
   <v>       0.00000000       0.00000000       0.50000000 </v>
   <v>       0.50000000       0.00000000       0.00000000 </v>
   <v>       0.00000000       0.50000000       0.00000000 </v>
   <v>       0.00000000       0.00000000       0.00000000 </v>
  </varray>
 </structure>
</modeling>
