  64  64   0   0
  0.1440275E+02  0.8634272E-09  0.7725441E-09  0.1545032E-08  0.5000000E-15
  1.000000000000000E-004
  CAR 
 Ir_Ru                                   
     12.52153760     -1.69356396  301      9.67506673      1.00000000
     -1.694  0.0000E+00  0.0000E+00
     -1.646  0.0000E+00  0.0000E+00
     -1.599  0.0000E+00  0.0000E+00
     -1.551  0.0000E+00  0.0000E+00
     -1.504  0.0000E+00  0.0000E+00
     -1.457  0.0000E+00  0.0000E+00
     -1.409  0.0000E+00  0.0000E+00
     -1.362  0.0000E+00  0.0000E+00
     -1.314  0.0000E+00  0.0000E+00
     -1.267  0.0000E+00  0.0000E+00
     -1.220  0.0000E+00  0.0000E+00
     -1.172  0.0000E+00  0.0000E+00
     -1.125  0.0000E+00  0.0000E+00
     -1.078  0.0000E+00  0.0000E+00
     -1.030  0.0000E+00  0.0000E+00
     -0.983  0.0000E+00  0.0000E+00
     -0.935  0.0000E+00  0.0000E+00
     -0.888  0.0000E+00  0.0000E+00
     -0.841  0.0000E+00  0.0000E+00
     -0.793  0.0000E+00  0.0000E+00
     -0.746  0.0000E+00  0.0000E+00
     -0.699  0.0000E+00  0.0000E+00
     -0.651  0.2889E+00  0.4089E-02
     -0.604  0.1172E+01  0.3676E-01
     -0.556  0.1895E+01  0.1149E+00
     -0.509  0.1849E+01  0.2044E+00
     -0.462  0.1699E+01  0.2867E+00
     -0.414  0.1808E+01  0.3698E+00
     -0.367  0.1913E+01  0.4580E+00
     -0.319  0.1955E+01  0.5499E+00
     -0.272  0.1934E+01  0.6423E+00
     -0.225  0.1992E+01  0.7345E+00
     -0.177  0.2273E+01  0.8345E+00
     -0.130  0.2623E+01  0.9510E+00
     -0.083  0.2945E+01  0.1083E+01
     -0.035  0.3191E+01  0.1229E+01
      0.012  0.3734E+01  0.1388E+01
      0.060  0.4245E+01  0.1580E+01
      0.107  0.4195E+01  0.1782E+01
      0.154  0.4450E+01  0.1985E+01
      0.202  0.4848E+01  0.2207E+01
      0.249  0.4535E+01  0.2431E+01
      0.297  0.4096E+01  0.2636E+01
      0.344  0.3874E+01  0.2823E+01
      0.391  0.4018E+01  0.3009E+01
      0.439  0.4326E+01  0.3206E+01
      0.486  0.5024E+01  0.3425E+01
      0.533  0.6379E+01  0.3704E+01
      0.581  0.4645E+01  0.3948E+01
      0.628  0.4725E+01  0.4177E+01
      0.676  0.3772E+01  0.4373E+01
      0.723  0.4369E+01  0.4562E+01
      0.770  0.6978E+01  0.4839E+01
      0.818  0.6826E+01  0.5186E+01
      0.865  0.5900E+01  0.5477E+01
      0.913  0.5977E+01  0.5757E+01
      0.960  0.6345E+01  0.6048E+01
      1.007  0.6827E+01  0.6354E+01
      1.055  0.7378E+01  0.6695E+01
      1.102  0.5812E+01  0.7012E+01
      1.149  0.6513E+01  0.7296E+01
      1.197  0.5641E+01  0.7603E+01
      1.244  0.5393E+01  0.7858E+01
      1.292  0.7290E+01  0.8151E+01
      1.339  0.8991E+01  0.8542E+01
      1.386  0.9109E+01  0.8974E+01
      1.434  0.8820E+01  0.9401E+01
      1.481  0.8625E+01  0.9813E+01
      1.529  0.9084E+01  0.1023E+02
      1.576  0.9775E+01  0.1068E+02
      1.623  0.1054E+02  0.1115E+02
      1.671  0.1160E+02  0.1168E+02
      1.718  0.1232E+02  0.1225E+02
      1.765  0.1244E+02  0.1284E+02
      1.813  0.1234E+02  0.1344E+02
      1.860  0.1191E+02  0.1400E+02
      1.908  0.1353E+02  0.1461E+02
      1.955  0.1227E+02  0.1525E+02
      2.002  0.1347E+02  0.1583E+02
      2.050  0.1599E+02  0.1653E+02
      2.097  0.2042E+02  0.1737E+02
      2.145  0.2596E+02  0.1848E+02
      2.192  0.2931E+02  0.1982E+02
      2.239  0.2968E+02  0.2138E+02
      2.287  0.2731E+02  0.2280E+02
      2.334  0.3295E+02  0.2427E+02
      2.381  0.3919E+02  0.2599E+02
      2.429  0.3210E+02  0.2783E+02
      2.476  0.3876E+02  0.2962E+02
      2.524  0.4008E+02  0.3142E+02
      2.571  0.4202E+02  0.3350E+02
      2.618  0.4873E+02  0.3546E+02
      2.666  0.4891E+02  0.3788E+02
      2.713  0.4738E+02  0.4010E+02
      2.761  0.5304E+02  0.4252E+02
      2.808  0.5982E+02  0.4513E+02
      2.855  0.6127E+02  0.4801E+02
      2.903  0.6302E+02  0.5102E+02
      2.950  0.6525E+02  0.5415E+02
      2.997  0.6574E+02  0.5716E+02
      3.045  0.7385E+02  0.6038E+02
      3.092  0.7781E+02  0.6389E+02
      3.140  0.7426E+02  0.6743E+02
      3.187  0.7095E+02  0.7098E+02
      3.234  0.7679E+02  0.7444E+02
      3.282  0.7866E+02  0.7814E+02
      3.329  0.7263E+02  0.8183E+02
      3.376  0.8175E+02  0.8553E+02
      3.424  0.7891E+02  0.8928E+02
      3.471  0.7576E+02  0.9313E+02
      3.519  0.8401E+02  0.9691E+02
      3.566  0.8084E+02  0.1008E+03
      3.613  0.7609E+02  0.1045E+03
      3.661  0.7430E+02  0.1080E+03
      3.708  0.8006E+02  0.1117E+03
      3.756  0.8628E+02  0.1156E+03
      3.803  0.8365E+02  0.1195E+03
      3.850  0.7185E+02  0.1230E+03
      3.898  0.8226E+02  0.1265E+03
      3.945  0.7518E+02  0.1303E+03
      3.992  0.8013E+02  0.1339E+03
      4.040  0.8048E+02  0.1377E+03
      4.087  0.6895E+02  0.1412E+03
      4.135  0.6778E+02  0.1444E+03
      4.182  0.6015E+02  0.1475E+03
      4.229  0.6060E+02  0.1503E+03
      4.277  0.6536E+02  0.1534E+03
      4.324  0.6146E+02  0.1563E+03
      4.372  0.5816E+02  0.1590E+03
      4.419  0.4975E+02  0.1615E+03
      4.466  0.5517E+02  0.1640E+03
      4.514  0.6793E+02  0.1670E+03
      4.561  0.6607E+02  0.1702E+03
      4.608  0.6538E+02  0.1734E+03
      4.656  0.6912E+02  0.1766E+03
      4.703  0.7742E+02  0.1800E+03
      4.751  0.7824E+02  0.1837E+03
      4.798  0.7552E+02  0.1873E+03
      4.845  0.7968E+02  0.1909E+03
      4.893  0.7492E+02  0.1946E+03
      4.940  0.6332E+02  0.1979E+03
      4.988  0.6621E+02  0.2009E+03
      5.035  0.7764E+02  0.2042E+03
      5.082  0.7472E+02  0.2077E+03
      5.130  0.7944E+02  0.2112E+03
      5.177  0.7683E+02  0.2152E+03
      5.224  0.6380E+02  0.2186E+03
      5.272  0.6723E+02  0.2218E+03
      5.319  0.8302E+02  0.2253E+03
      5.367  0.7495E+02  0.2289E+03
      5.414  0.8512E+02  0.2324E+03
      5.461  0.7452E+02  0.2360E+03
      5.509  0.7587E+02  0.2397E+03
      5.556  0.8342E+02  0.2434E+03
      5.604  0.7991E+02  0.2472E+03
      5.651  0.8028E+02  0.2508E+03
      5.698  0.8480E+02  0.2548E+03
      5.746  0.8221E+02  0.2588E+03
      5.793  0.8387E+02  0.2628E+03
      5.840  0.8989E+02  0.2668E+03
      5.888  0.8661E+02  0.2709E+03
      5.935  0.8892E+02  0.2751E+03
      5.983  0.9388E+02  0.2795E+03
      6.030  0.8934E+02  0.2837E+03
      6.077  0.9411E+02  0.2881E+03
      6.125  0.9577E+02  0.2926E+03
      6.172  0.9742E+02  0.2972E+03
      6.220  0.9767E+02  0.3018E+03
      6.267  0.1070E+03  0.3067E+03
      6.314  0.1093E+03  0.3118E+03
      6.362  0.1093E+03  0.3169E+03
      6.409  0.1072E+03  0.3222E+03
      6.456  0.1100E+03  0.3274E+03
      6.504  0.1238E+03  0.3330E+03
      6.551  0.1127E+03  0.3388E+03
      6.599  0.1070E+03  0.3440E+03
      6.646  0.1091E+03  0.3492E+03
      6.693  0.1059E+03  0.3542E+03
      6.741  0.1076E+03  0.3591E+03
      6.788  0.1015E+03  0.3640E+03
      6.835  0.8915E+02  0.3685E+03
      6.883  0.8600E+02  0.3726E+03
      6.930  0.9065E+02  0.3768E+03
      6.978  0.8627E+02  0.3810E+03
      7.025  0.7812E+02  0.3850E+03
      7.072  0.7939E+02  0.3886E+03
      7.120  0.7610E+02  0.3923E+03
      7.167  0.6981E+02  0.3958E+03
      7.215  0.6955E+02  0.3990E+03
      7.262  0.7215E+02  0.4023E+03
      7.309  0.7047E+02  0.4057E+03
      7.357  0.6750E+02  0.4090E+03
      7.404  0.6360E+02  0.4121E+03
      7.451  0.5983E+02  0.4151E+03
      7.499  0.5969E+02  0.4179E+03
      7.546  0.6296E+02  0.4207E+03
      7.594  0.6044E+02  0.4237E+03
      7.641  0.6326E+02  0.4266E+03
      7.688  0.6484E+02  0.4296E+03
      7.736  0.6200E+02  0.4327E+03
      7.783  0.6668E+02  0.4357E+03
      7.831  0.6409E+02  0.4388E+03
      7.878  0.6540E+02  0.4419E+03
      7.925  0.7688E+02  0.4452E+03
      7.973  0.8391E+02  0.4490E+03
      8.020  0.8259E+02  0.4529E+03
      8.067  0.8388E+02  0.4569E+03
      8.115  0.8073E+02  0.4608E+03
      8.162  0.7585E+02  0.4644E+03
      8.210  0.7796E+02  0.4681E+03
      8.257  0.7883E+02  0.4717E+03
      8.304  0.7512E+02  0.4755E+03
      8.352  0.7403E+02  0.4789E+03
      8.399  0.7491E+02  0.4824E+03
      8.447  0.7933E+02  0.4860E+03
      8.494  0.7995E+02  0.4898E+03
      8.541  0.7489E+02  0.4935E+03
      8.589  0.7000E+02  0.4969E+03
      8.636  0.6361E+02  0.5001E+03
      8.683  0.5925E+02  0.5029E+03
      8.731  0.6336E+02  0.5058E+03
      8.778  0.6798E+02  0.5090E+03
      8.826  0.6767E+02  0.5121E+03
      8.873  0.6351E+02  0.5153E+03
      8.920  0.6839E+02  0.5183E+03
      8.968  0.6828E+02  0.5217E+03
      9.015  0.5827E+02  0.5247E+03
      9.063  0.6037E+02  0.5275E+03
      9.110  0.5401E+02  0.5303E+03
      9.157  0.5220E+02  0.5328E+03
      9.205  0.5772E+02  0.5354E+03
      9.252  0.5852E+02  0.5381E+03
      9.299  0.6307E+02  0.5410E+03
      9.347  0.6418E+02  0.5441E+03
      9.394  0.5891E+02  0.5470E+03
      9.442  0.5533E+02  0.5497E+03
      9.489  0.5812E+02  0.5524E+03
      9.536  0.6094E+02  0.5552E+03
      9.584  0.6244E+02  0.5581E+03
      9.631  0.6501E+02  0.5612E+03
      9.679  0.6220E+02  0.5642E+03
      9.726  0.5957E+02  0.5671E+03
      9.773  0.5721E+02  0.5698E+03
      9.821  0.5876E+02  0.5726E+03
      9.868  0.5862E+02  0.5753E+03
      9.915  0.5921E+02  0.5781E+03
      9.963  0.5973E+02  0.5809E+03
     10.010  0.6679E+02  0.5839E+03
     10.058  0.8039E+02  0.5875E+03
     10.105  0.7488E+02  0.5912E+03
     10.152  0.7362E+02  0.5946E+03
     10.200  0.7488E+02  0.5980E+03
     10.247  0.7324E+02  0.6015E+03
     10.295  0.8004E+02  0.6051E+03
     10.342  0.8872E+02  0.6090E+03
     10.389  0.9164E+02  0.6132E+03
     10.437  0.9893E+02  0.6176E+03
     10.484  0.1078E+03  0.6227E+03
     10.531  0.1084E+03  0.6278E+03
     10.579  0.1090E+03  0.6330E+03
     10.626  0.1129E+03  0.6383E+03
     10.674  0.1093E+03  0.6435E+03
     10.721  0.9214E+02  0.6481E+03
     10.768  0.9383E+02  0.6525E+03
     10.816  0.8606E+02  0.6569E+03
     10.863  0.7470E+02  0.6606E+03
     10.910  0.5690E+02  0.6639E+03
     10.958  0.5146E+02  0.6665E+03
     11.005  0.4652E+02  0.6688E+03
     11.053  0.4685E+02  0.6711E+03
     11.100  0.3741E+02  0.6731E+03
     11.147  0.2445E+02  0.6746E+03
     11.195  0.1181E+02  0.6754E+03
     11.242  0.5648E+01  0.6758E+03
     11.290  0.1319E+01  0.6760E+03
     11.337  0.3738E+00  0.6760E+03
     11.384  0.1427E+00  0.6760E+03
     11.432  0.3648E-01  0.6760E+03
     11.479  0.3827E-02  0.6760E+03
     11.526  0.0000E+00  0.6760E+03
     11.574  0.0000E+00  0.6760E+03
     11.621  0.0000E+00  0.6760E+03
     11.669  0.0000E+00  0.6760E+03
     11.716  0.0000E+00  0.6760E+03
     11.763  0.0000E+00  0.6760E+03
     11.811  0.0000E+00  0.6760E+03
     11.858  0.0000E+00  0.6760E+03
     11.906  0.0000E+00  0.6760E+03
     11.953  0.0000E+00  0.6760E+03
     12.000  0.0000E+00  0.6760E+03
     12.048  0.0000E+00  0.6760E+03
     12.095  0.0000E+00  0.6760E+03
     12.142  0.0000E+00  0.6760E+03
     12.190  0.0000E+00  0.6760E+03
     12.237  0.0000E+00  0.6760E+03
     12.285  0.0000E+00  0.6760E+03
     12.332  0.0000E+00  0.6760E+03
     12.379  0.0000E+00  0.6760E+03
     12.427  0.0000E+00  0.6760E+03
     12.474  0.0000E+00  0.6760E+03
     12.522  0.0000E+00  0.6760E+03
