       N       E                     dE             d eps       ncg     rms          rms(c)
DAV:   1     0.276739469142E+04    0.27674E+04   -0.14618E+05 51568   0.802E+02
DAV:   2    -0.345142766369E+03   -0.31125E+04   -0.29789E+04 52432   0.336E+02
DAV:   3    -0.584426764563E+03   -0.23928E+03   -0.21857E+03 73096   0.750E+01
DAV:   4    -0.602404386535E+03   -0.17978E+02   -0.17262E+02 75128   0.199E+01
DAV:   5    -0.603211225329E+03   -0.80684E+00   -0.78163E+00 76032   0.317E+00    0.375E+01
DAV:   6    -0.607986210357E+03   -0.47750E+01   -0.16609E+02 78704   0.421E+01    0.489E+01
DAV:   7    -0.585404856207E+03    0.22581E+02   -0.14721E+02 87918   0.542E+01    0.352E+01
DAV:   8    -0.586809084748E+03   -0.14042E+01   -0.13273E+02 94342   0.403E+01    0.363E+01
DAV:   9    -0.562242624218E+03    0.24566E+02   -0.65663E+01 90720   0.291E+01    0.924E+00
DAV:  10    -0.561908454260E+03    0.33417E+00   -0.95170E+00 80752   0.784E+00    0.437E+00
DAV:  11    -0.561804206158E+03    0.10425E+00   -0.17681E+00 81760   0.432E+00    0.344E+00
DAV:  12    -0.561624103695E+03    0.18010E+00   -0.57062E-01 81352   0.246E+00    0.212E+00
DAV:  13    -0.561591989017E+03    0.32115E-01   -0.21950E-01 82080   0.155E+00    0.173E+00
DAV:  14    -0.561576296814E+03    0.15692E-01   -0.24659E-01 81216   0.159E+00    0.186E+00
DAV:  15    -0.561533252017E+03    0.43045E-01   -0.14923E-01 81792   0.136E+00    0.913E-01
DAV:  16    -0.561526091945E+03    0.71601E-02   -0.31148E-02 82000   0.547E-01    0.529E-01
DAV:  17    -0.561523139632E+03    0.29523E-02   -0.13849E-02 82392   0.365E-01    0.261E-01
DAV:  18    -0.561522343269E+03    0.79636E-03   -0.52999E-03 81088   0.223E-01    0.155E-01
DAV:  19    -0.561522379803E+03   -0.36534E-04   -0.21997E-03 82160   0.148E-01    0.147E-01
DAV:  20    -0.561522062481E+03    0.31732E-03   -0.10075E-03 82408   0.108E-01    0.486E-02
DAV:  21    -0.561522042634E+03    0.19847E-04   -0.26709E-04 82848   0.536E-02
   1 F= -.56152204E+03 E0= -.56152152E+03  d E =-.561522E+03
       N       E                     dE             d eps       ncg     rms          rms(c)
DAV:   1    -0.943629933293E+03   -0.38211E+03   -0.23636E+04 51528   0.439E+02    0.128E+02
DAV:   2    -0.496445200011E+03    0.44718E+03   -0.76326E+02 59098   0.906E+01    0.609E+01
DAV:   3    -0.545876789421E+03   -0.49432E+02   -0.63470E+02 72664   0.137E+02    0.705E+01
DAV:   4    -0.382821709273E+03    0.16306E+03   -0.38646E+02 85014   0.114E+02    0.277E+01
DAV:   5    -0.370281006595E+03    0.12541E+02   -0.15722E+02 78308   0.469E+01    0.864E+00
DAV:   6    -0.371737632848E+03   -0.14566E+01   -0.16943E+01 68636   0.142E+01    0.644E+00
DAV:   7    -0.372230059268E+03   -0.49243E+00   -0.40248E+00 68382   0.993E+00    0.389E+00
DAV:   8    -0.372133331138E+03    0.96728E-01   -0.15638E+00 72632   0.774E+00    0.216E+00
DAV:   9    -0.372116222547E+03    0.17109E-01   -0.64840E-01 79224   0.394E+00    0.117E+00
DAV:  10    -0.372101944308E+03    0.14278E-01   -0.18099E-01 76300   0.185E+00    0.618E-01
DAV:  11    -0.372102605297E+03   -0.66099E-03   -0.45571E-02 70158   0.885E-01    0.416E-01
DAV:  12    -0.372105264243E+03   -0.26589E-02   -0.21694E-02 63748   0.601E-01    0.199E-01
DAV:  13    -0.372105930414E+03   -0.66617E-03   -0.46277E-03 65920   0.297E-01    0.106E-01
DAV:  14    -0.372106094279E+03   -0.16387E-03   -0.84434E-04 72528   0.118E-01    0.557E-02
DAV:  15    -0.372106104428E+03   -0.10148E-04   -0.28563E-04 69920   0.659E-02
   2 F= -.37210610E+03 E0= -.37210690E+03  d E =0.189416E+03
       N       E                     dE             d eps       ncg     rms          rms(c)
DAV:   1    -0.957460424042E+03   -0.58535E+03   -0.14443E+04 51818   0.348E+02    0.112E+02
DAV:   2    -0.100954762139E+04   -0.52087E+02   -0.15210E+03 79694   0.166E+02    0.112E+02
DAV:   3    -0.789029612121E+03    0.22052E+03   -0.10466E+03 87680   0.131E+02    0.870E+01
DAV:   4    -0.628835279955E+03    0.16019E+03   -0.74738E+02 91202   0.976E+01    0.501E+01
DAV:   5    -0.601797267081E+03    0.27038E+02   -0.36955E+02 84846   0.669E+01    0.390E+01
DAV:   6    -0.580024268913E+03    0.21773E+02   -0.15245E+02 82932   0.436E+01    0.194E+01
DAV:   7    -0.576575922330E+03    0.34483E+01   -0.31963E+01 86498   0.209E+01    0.122E+01
DAV:   8    -0.574356315488E+03    0.22196E+01   -0.72505E+00 80780   0.976E+00    0.739E+00
DAV:   9    -0.573545874867E+03    0.81044E+00   -0.18988E+00 64562   0.396E+00    0.470E+00
DAV:  10    -0.573168551913E+03    0.37732E+00   -0.14569E+00 64162   0.375E+00    0.321E+00
DAV:  11    -0.573039020611E+03    0.12953E+00   -0.12582E+00 69596   0.378E+00    0.286E+00
DAV:  12    -0.572925329010E+03    0.11369E+00   -0.57243E-01 70790   0.277E+00    0.112E+00
DAV:  13    -0.572913489798E+03    0.11839E-01   -0.11478E-01 78624   0.108E+00    0.852E-01
DAV:  14    -0.572900051380E+03    0.13438E-01   -0.53280E-02 74248   0.690E-01    0.443E-01
DAV:  15    -0.572898614843E+03    0.14365E-02   -0.19438E-02 73576   0.463E-01    0.216E-01
DAV:  16    -0.572900699491E+03   -0.20846E-02   -0.92294E-03 72568   0.294E-01    0.228E-01
DAV:  17    -0.572900629333E+03    0.70158E-04   -0.31558E-03 74744   0.210E-01    0.143E-01
DAV:  18    -0.572900491447E+03    0.13789E-03   -0.10752E-03 76376   0.108E-01    0.994E-02
DAV:  19    -0.572900380000E+03    0.11145E-03   -0.93054E-04 64136   0.955E-02    0.388E-02
DAV:  20    -0.572900374577E+03    0.54225E-05   -0.15839E-04 69944   0.444E-02
   3 F= -.57290037E+03 E0= -.57289978E+03  d E =-.113783E+02
       N       E                     dE             d eps       ncg     rms          rms(c)
DAV:   1    -0.573303173225E+03   -0.40279E+00   -0.81050E+00 52012   0.821E+00    0.248E+00
DAV:   2    -0.573177148437E+03    0.12602E+00   -0.63146E-01 68336   0.249E+00    0.221E+00
DAV:   3    -0.573220153074E+03   -0.43005E-01   -0.58928E-01 78670   0.358E+00    0.241E+00
DAV:   4    -0.573179960803E+03    0.40192E-01   -0.45237E-01 83800   0.314E+00    0.225E+00
DAV:   5    -0.573084911883E+03    0.95049E-01   -0.21618E-01 84812   0.186E+00    0.393E-01
DAV:   6    -0.573084283852E+03    0.62803E-03   -0.25658E-02 72384   0.454E-01    0.205E-01
DAV:   7    -0.573084041233E+03    0.24262E-03   -0.40936E-03 75320   0.197E-01    0.146E-01
DAV:   8    -0.573083963292E+03    0.77941E-04   -0.22823E-03 67792   0.164E-01    0.895E-02
DAV:   9    -0.573083995737E+03   -0.32445E-04   -0.69403E-04 75920   0.105E-01
   4 F= -.57308400E+03 E0= -.57308342E+03  d E =-.115620E+02
       N       E                     dE             d eps       ncg     rms          rms(c)
DAV:   1    -0.573311392331E+03   -0.22743E+00   -0.66127E+00 51902   0.745E+00    0.226E+00
DAV:   2    -0.573203883375E+03    0.10751E+00   -0.50910E-01 67824   0.226E+00    0.196E+00
DAV:   3    -0.573242517177E+03   -0.38634E-01   -0.47814E-01 78558   0.328E+00    0.219E+00
DAV:   4    -0.573204371680E+03    0.38145E-01   -0.37259E-01 82856   0.286E+00    0.200E+00
DAV:   5    -0.573129729108E+03    0.74643E-01   -0.17372E-01 83634   0.167E+00    0.334E-01
DAV:   6    -0.573129445665E+03    0.28344E-03   -0.20084E-02 72752   0.418E-01    0.197E-01
DAV:   7    -0.573129463959E+03   -0.18294E-04   -0.29073E-03 79512   0.223E-01    0.188E-01
DAV:   8    -0.573129102219E+03    0.36174E-03   -0.24241E-03 70832   0.187E-01    0.109E-01
DAV:   9    -0.573129121409E+03   -0.19190E-04   -0.14353E-03 65104   0.134E-01    0.686E-02
DAV:  10    -0.573129125690E+03   -0.42809E-05   -0.43700E-04 80184   0.741E-02
   5 F= -.57312913E+03 E0= -.57312856E+03  d E =-.116071E+02
       N       E                     dE             d eps       ncg     rms          rms(c)
DAV:   1    -0.573130461334E+03   -0.13399E-02   -0.32428E-02 52846   0.518E-01    0.143E-01
DAV:   2    -0.573130159027E+03    0.30231E-03   -0.24320E-03 71800   0.162E-01    0.148E-01
DAV:   3    -0.573130106447E+03    0.52580E-04   -0.19857E-03 79408   0.214E-01    0.125E-01
DAV:   4    -0.573130058164E+03    0.48283E-04   -0.15450E-03 84224   0.179E-01    0.134E-01
DAV:   5    -0.573129728392E+03    0.32977E-03   -0.82209E-04 82272   0.112E-01    0.327E-02
DAV:   6    -0.573129712559E+03    0.15833E-04   -0.10903E-04 75172   0.334E-02
   6 F= -.57312971E+03 E0= -.57312914E+03  d E =-.116077E+02
       N       E                     dE             d eps       ncg     rms          rms(c)
DAV:   1    -0.573130821847E+03   -0.10935E-02   -0.37668E-02 52382   0.562E-01    0.164E-01
DAV:   2    -0.573130282901E+03    0.53895E-03   -0.28892E-03 70136   0.174E-01    0.157E-01
DAV:   3    -0.573130350796E+03   -0.67894E-04   -0.25435E-03 79064   0.240E-01    0.151E-01
DAV:   4    -0.573130240784E+03    0.11001E-03   -0.19736E-03 85088   0.208E-01    0.151E-01
DAV:   5    -0.573129794483E+03    0.44630E-03   -0.99897E-04 84678   0.127E-01    0.308E-02
DAV:   6    -0.573129786215E+03    0.82683E-05   -0.12809E-04 73616   0.329E-02
   7 F= -.57312979E+03 E0= -.57312922E+03  d E =-.116077E+02
       N       E                     dE             d eps       ncg     rms          rms(c)
DAV:   1    -0.573130096471E+03   -0.30199E-03   -0.10333E-02 52324   0.295E-01    0.953E-02
DAV:   2    -0.573130013088E+03    0.83382E-04   -0.10021E-03 71360   0.113E-01    0.104E-01
DAV:   3    -0.573129939321E+03    0.73767E-04   -0.89324E-04 78464   0.148E-01    0.769E-02
DAV:   4    -0.573129932363E+03    0.69581E-05   -0.71676E-04 80824   0.112E-01    0.860E-02
DAV:   5    -0.573129814064E+03    0.11830E-03   -0.34877E-04 80312   0.720E-02    0.197E-02
DAV:   6    -0.573129810298E+03    0.37659E-05   -0.38665E-05 75672   0.221E-02
   8 F= -.57312981E+03 E0= -.57312924E+03  d E =-.116078E+02
       N       E                     dE             d eps       ncg     rms          rms(c)
DAV:   1    -0.573129942612E+03   -0.12855E-03   -0.38163E-03 52384   0.179E-01    0.588E-02
DAV:   2    -0.573129880135E+03    0.62477E-04   -0.34523E-04 68712   0.630E-02    0.562E-02
DAV:   3    -0.573129883859E+03   -0.37232E-05   -0.30804E-04 78064   0.874E-02    0.522E-02
DAV:   4    -0.573129863000E+03    0.20859E-04   -0.25097E-04 81832   0.706E-02    0.506E-02
DAV:   5    -0.573129814137E+03    0.48863E-04   -0.11757E-04 80504   0.422E-02
   9 F= -.57312981E+03 E0= -.57312924E+03  d E =-.116078E+02
       N       E                     dE             d eps       ncg     rms          rms(c)
DAV:   1    -0.573129834122E+03    0.28878E-04   -0.62831E-04 52444   0.721E-02    0.241E-02
DAV:   2    -0.573129826343E+03    0.77793E-05   -0.56894E-05 67500   0.260E-02    0.224E-02
DAV:   3    -0.573129826720E+03   -0.37733E-06   -0.53831E-05 77512   0.367E-02    0.211E-02
DAV:   4    -0.573129824057E+03    0.26630E-05   -0.42926E-05 79712   0.275E-02    0.200E-02
DAV:   5    -0.573129817843E+03    0.62138E-05   -0.18217E-05 75920   0.166E-02
  10 F= -.57312982E+03 E0= -.57312925E+03  d E =-.116078E+02
       N       E                     dE             d eps       ncg     rms          rms(c)
DAV:   1    -0.573198053111E+03   -0.68229E-01   -0.32754E+01 51376   0.799E+00    0.448E-01
DAV:   2    -0.573248407753E+03   -0.50355E-01   -0.51740E-01 65920   0.158E+00    0.612E-01
DAV:   3    -0.573245471555E+03    0.29362E-02   -0.28125E-02 77846   0.562E-01    0.446E-01
DAV:   4    -0.573243584710E+03    0.18868E-02   -0.60179E-03 76270   0.341E-01    0.370E-01
DAV:   5    -0.573242374336E+03    0.12104E-02   -0.32781E-03 79256   0.205E-01    0.338E-01
DAV:   6    -0.573241072951E+03    0.13014E-02   -0.12150E-02 78552   0.287E-01    0.250E-01
DAV:   7    -0.573240539940E+03    0.53301E-03   -0.56919E-03 83016   0.318E-01    0.194E-01
DAV:   8    -0.573239884457E+03    0.65548E-03   -0.21512E-03 81608   0.215E-01    0.804E-02
DAV:   9    -0.573239809301E+03    0.75156E-04   -0.73175E-04 83520   0.977E-02
  11 F= -.57323981E+03 E0= -.57323942E+03  d E =-.109991E+00
       N       E                     dE             d eps       ncg     rms          rms(c)
DAV:   1    -0.573240924258E+03   -0.10398E-02   -0.10621E+00 51378   0.144E+00    0.916E-02
DAV:   2    -0.573242728186E+03   -0.18039E-02   -0.18623E-02 68802   0.302E-01    0.131E-01
DAV:   3    -0.573242572338E+03    0.15585E-03   -0.14189E-03 77766   0.143E-01    0.877E-02
DAV:   4    -0.573242490812E+03    0.81526E-04   -0.33311E-04 77688   0.838E-02    0.680E-02
DAV:   5    -0.573242443238E+03    0.47574E-04   -0.12995E-04 80030   0.435E-02
  12 F= -.57324244E+03 E0= -.57324209E+03  d E =-.112625E+00
       N       E                     dE             d eps       ncg     rms          rms(c)
DAV:   1    -0.573248022356E+03   -0.55315E-02   -0.12752E+00 51376   0.189E+00    0.318E-01
DAV:   2    -0.573248905335E+03   -0.88298E-03   -0.39917E-02 67556   0.418E-01    0.300E-01
DAV:   3    -0.573248742585E+03    0.16275E-03   -0.89813E-03 80874   0.407E-01    0.284E-01
DAV:   4    -0.573248348394E+03    0.39419E-03   -0.57609E-03 83510   0.354E-01    0.267E-01
DAV:   5    -0.573246896982E+03    0.14514E-02   -0.43454E-03 80640   0.280E-01    0.993E-02
DAV:   6    -0.573246902993E+03   -0.60109E-05   -0.17168E-03 80380   0.144E-01    0.941E-02
DAV:   7    -0.573246789818E+03    0.11317E-03   -0.58051E-04 80808   0.919E-02    0.472E-02
DAV:   8    -0.573246760178E+03    0.29641E-04   -0.13195E-04 83448   0.487E-02
  13 F= -.57324676E+03 E0= -.57324637E+03  d E =-.431694E-02
       N       E                     dE             d eps       ncg     rms          rms(c)
DAV:   1    -0.573246964839E+03   -0.17502E-03   -0.53732E-02 51520   0.390E-01    0.652E-02
DAV:   2    -0.573247089541E+03   -0.12470E-03   -0.17668E-03 78430   0.112E-01    0.905E-02
DAV:   3    -0.573246962382E+03    0.12716E-03   -0.47004E-04 82542   0.105E-01    0.499E-02
DAV:   4    -0.573246939614E+03    0.22768E-04   -0.29756E-04 81408   0.634E-02    0.537E-02
DAV:   5    -0.573246890342E+03    0.49271E-04   -0.20994E-04 79968   0.522E-02
  14 F= -.57324689E+03 E0= -.57324650E+03  d E =-.444710E-02
       N       E                     dE             d eps       ncg     rms          rms(c)
DAV:   1    -0.573250394751E+03   -0.34551E-02   -0.47974E-01 51378   0.124E+00    0.253E-01
DAV:   2    -0.573250345012E+03    0.49739E-04   -0.17604E-02 72992   0.315E-01    0.250E-01
DAV:   3    -0.573250267697E+03    0.77314E-04   -0.54389E-03 84912   0.333E-01    0.227E-01
DAV:   4    -0.573249968845E+03    0.29885E-03   -0.41935E-03 80808   0.314E-01    0.211E-01
DAV:   5    -0.573249064023E+03    0.90482E-03   -0.25039E-03 79534   0.197E-01    0.492E-02
DAV:   6    -0.573249107199E+03   -0.43177E-04   -0.65313E-04 78840   0.878E-02
  15 F= -.57324911E+03 E0= -.57324871E+03  d E =-.221686E-02
       N       E                     dE             d eps       ncg     rms          rms(c)
DAV:   1    -0.573249252922E+03   -0.18890E-03   -0.33927E-02 51550   0.334E-01    0.639E-02
DAV:   2    -0.573249704846E+03   -0.45192E-03   -0.18213E-03 82632   0.165E-01    0.150E-01
DAV:   3    -0.573249229335E+03    0.47551E-03   -0.99331E-04 84204   0.150E-01    0.432E-02
DAV:   4    -0.573249230955E+03   -0.16201E-05   -0.30748E-04 81456   0.613E-02    0.457E-02
DAV:   5    -0.573249202387E+03    0.28568E-04   -0.17947E-04 77428   0.479E-02
  16 F= -.57324920E+03 E0= -.57324881E+03  d E =-.231204E-02
       N       E                     dE             d eps       ncg     rms          rms(c)
DAV:   1    -0.573249473967E+03   -0.24301E-03   -0.26845E-02 51456   0.237E-01    0.245E-02
DAV:   2    -0.573249559452E+03   -0.85485E-04   -0.65682E-04 77592   0.738E-02    0.527E-02
DAV:   3    -0.573249517541E+03    0.41911E-04   -0.10769E-04 78162   0.492E-02    0.236E-02
DAV:   4    -0.573249512091E+03    0.54501E-05   -0.30075E-05 81768   0.228E-02    0.184E-02
DAV:   5    -0.573249506043E+03    0.60475E-05   -0.13283E-05 69728   0.114E-02
  17 F= -.57324951E+03 E0= -.57324913E+03  d E =-.303657E-03
       N       E                     dE             d eps       ncg     rms          rms(c)
DAV:   1    -0.573249606441E+03   -0.94350E-04   -0.24061E-01 51376   0.703E-01    0.611E-02
DAV:   2    -0.573250029980E+03   -0.42354E-03   -0.49269E-03 74930   0.166E-01    0.731E-02
DAV:   3    -0.573249967869E+03    0.62111E-04   -0.26143E-04 77476   0.618E-02    0.520E-02
DAV:   4    -0.573249940301E+03    0.27568E-04   -0.93020E-05 81056   0.438E-02    0.450E-02
DAV:   5    -0.573249914659E+03    0.25642E-04   -0.98677E-05 82728   0.412E-02
  18 F= -.57324991E+03 E0= -.57324959E+03  d E =-.712272E-03
       N       E                     dE             d eps       ncg     rms          rms(c)
DAV:   1    -0.573249974415E+03   -0.34113E-04   -0.77210E-03 51618   0.194E-01    0.618E-02
DAV:   2    -0.573250179290E+03   -0.20488E-03   -0.12177E-03 81176   0.139E-01    0.132E-01
DAV:   3    -0.573249917797E+03    0.26149E-03   -0.79039E-04 90906   0.122E-01    0.501E-02
DAV:   4    -0.573249881564E+03    0.36233E-04   -0.20746E-04 87544   0.654E-02    0.320E-02
DAV:   5    -0.573249873962E+03    0.76020E-05   -0.14108E-04 80624   0.443E-02
  19 F= -.57324987E+03 E0= -.57324954E+03  d E =0.406969E-04
       N       E                     dE             d eps       ncg     rms          rms(c)
DAV:   1    -0.573249880900E+03    0.66373E-06   -0.13265E-03 52076   0.872E-02    0.240E-02
DAV:   2    -0.573249885067E+03   -0.41674E-05   -0.11227E-04 77710   0.363E-02    0.301E-02
DAV:   3    -0.573249875963E+03    0.91043E-05   -0.67450E-05 84696   0.388E-02    0.203E-02
DAV:   4    -0.573249873232E+03    0.27312E-05   -0.46235E-05 82992   0.289E-02    0.189E-02
DAV:   5    -0.573249869058E+03    0.41739E-05   -0.24359E-05 78424   0.185E-02
  20 F= -.57324987E+03 E0= -.57324954E+03  d E =0.456006E-04
       N       E                     dE             d eps       ncg     rms          rms(c)
DAV:   1    -0.573249959091E+03   -0.85859E-04   -0.24770E-03 51956   0.139E-01    0.401E-02
DAV:   2    -0.573249930143E+03    0.28949E-04   -0.16390E-04 68032   0.399E-02    0.339E-02
DAV:   3    -0.573249944677E+03   -0.14535E-04   -0.14646E-04 79228   0.572E-02    0.395E-02
DAV:   4    -0.573249935941E+03    0.87357E-05   -0.11463E-04 82856   0.516E-02    0.359E-02
DAV:   5    -0.573249914270E+03    0.21671E-04   -0.57643E-05 84136   0.307E-02
  21 F= -.57324991E+03 E0= -.57324958E+03  d E =-.452121E-04
       N       E                     dE             d eps       ncg     rms          rms(c)
DAV:   1    -0.573249939542E+03   -0.36008E-05   -0.12299E-03 52012   0.984E-02    0.274E-02
DAV:   2    -0.573249930380E+03    0.91619E-05   -0.82964E-05 70776   0.292E-02    0.260E-02
DAV:   3    -0.573249932747E+03   -0.23670E-05   -0.69788E-05 79980   0.398E-02    0.249E-02
DAV:   4    -0.573249932329E+03    0.41854E-06   -0.55501E-05 83832   0.347E-02    0.254E-02
DAV:   5    -0.573249922973E+03    0.93562E-05   -0.29818E-05 82360   0.217E-02
  22 F= -.57324992E+03 E0= -.57324959E+03  d E =-.539145E-04
       N       E                     dE             d eps       ncg     rms          rms(c)
DAV:   1    -0.573249931092E+03    0.12369E-05   -0.27939E-04 51704   0.270E-02    0.629E-03
DAV:   2    -0.573249932056E+03   -0.96358E-06   -0.91300E-06 62098   0.784E-03    0.499E-03
DAV:   3    -0.573249932334E+03   -0.27887E-06   -0.23020E-06 39430   0.727E-03    0.529E-03
DAV:   4    -0.573249932723E+03   -0.38900E-06   -0.13210E-06 33576   0.685E-03    0.466E-03
DAV:   5    -0.573249932518E+03    0.20589E-06   -0.74912E-07 29380   0.550E-03
  23 F= -.57324993E+03 E0= -.57324960E+03  d E =-.954491E-05
       N       E                     dE             d eps       ncg     rms          rms(c)
DAV:   1    -0.573249947249E+03   -0.14525E-04   -0.24543E-03 51528   0.774E-02    0.154E-02
DAV:   2    -0.573249947184E+03    0.64269E-07   -0.70127E-05 74462   0.207E-02    0.101E-02
DAV:   3    -0.573249951750E+03   -0.45653E-05   -0.17285E-05 66120   0.200E-02    0.181E-02
DAV:   4    -0.573249945332E+03    0.64179E-05   -0.12536E-05 53920   0.184E-02    0.858E-03
DAV:   5    -0.573249943903E+03    0.14288E-05   -0.45294E-06 46346   0.930E-03
  24 F= -.57324994E+03 E0= -.57324960E+03  d E =-.209304E-04
       N       E                     dE             d eps       ncg     rms          rms(c)
DAV:   1    -0.573249956199E+03   -0.10867E-04   -0.33719E-04 51750   0.450E-02    0.125E-02
DAV:   2    -0.573249953846E+03    0.23533E-05   -0.24820E-05 76156   0.177E-02    0.156E-02
DAV:   3    -0.573249951435E+03    0.24112E-05   -0.17303E-05 69976   0.196E-02    0.102E-02
DAV:   4    -0.573249950598E+03    0.83631E-06   -0.11659E-05 63656   0.152E-02    0.106E-02
DAV:   5    -0.573249947711E+03    0.28870E-05   -0.59144E-06 50266   0.104E-02
  25 F= -.57324995E+03 E0= -.57324960E+03  d E =-.380832E-05
       N       E                     dE             d eps       ncg     rms          rms(c)
DAV:   1    -0.573249951385E+03   -0.78686E-06   -0.12952E-04 51760   0.281E-02    0.710E-03
DAV:   2    -0.573249949212E+03    0.21731E-05   -0.67616E-06 60240   0.825E-03    0.733E-03
DAV:   3    -0.573249948699E+03    0.51287E-06   -0.35980E-06 42890   0.107E-02    0.588E-03
DAV:   4    -0.573249947783E+03    0.91640E-06   -0.27935E-06 41264   0.856E-03    0.587E-03
DAV:   5    -0.573249946508E+03    0.12753E-05   -0.12816E-06 28896   0.586E-03
  26 F= -.57324995E+03 E0= -.57324960E+03  d E =-.260453E-05
