 256 256   0   0
  0.1419206E+02  0.1537080E-08  0.1537218E-08  0.1537636E-08  0.5000000E-15
  1.000000000000000E-004
  CAR 
 Ir_Ru                                   
     12.68429917     -1.29437305  301      9.24206089      1.00000000
     -1.294  0.0000E+00  0.0000E+00
     -1.248  0.0000E+00  0.0000E+00
     -1.201  0.0000E+00  0.0000E+00
     -1.155  0.0000E+00  0.0000E+00
     -1.108 -0.2743E-28 -0.1278E-29
     -1.061 -0.4090E-25 -0.1907E-26
     -1.015 -0.3934E-22 -0.1835E-23
     -0.968 -0.2442E-19 -0.1140E-20
     -0.922 -0.9783E-17 -0.4570E-18
     -0.875 -0.2453E-14 -0.1148E-15
     -0.828 -0.4068E-12 -0.1907E-13
     -0.782 -0.4345E-10 -0.2044E-11
     -0.735 -0.2990E-08 -0.1414E-09
     -0.689 -0.1327E-06 -0.6324E-08
     -0.642 -0.3803E-05 -0.1835E-06
     -0.595 -0.7057E-04 -0.3472E-05
     -0.549 -0.8505E-03 -0.4310E-04
     -0.502 -0.6659E-02 -0.3534E-03
     -0.456 -0.3347E-01 -0.1913E-02
     -0.409 -0.1018E+00 -0.6658E-02
     -0.362 -0.1378E+00 -0.1308E-01
     -0.316  0.2223E+00 -0.2721E-02
     -0.269  0.1505E+01  0.6740E-01
     -0.223  0.3534E+01  0.2320E+00
     -0.176  0.5067E+01  0.4682E+00
     -0.129  0.5727E+01  0.7350E+00
     -0.083  0.7313E+01  0.1076E+01
     -0.036  0.1018E+02  0.1550E+01
      0.010  0.1102E+02  0.2064E+01
      0.057  0.9152E+01  0.2490E+01
      0.103  0.9354E+01  0.2926E+01
      0.150  0.1312E+02  0.3537E+01
      0.197  0.1590E+02  0.4278E+01
      0.243  0.1603E+02  0.5025E+01
      0.290  0.1669E+02  0.5803E+01
      0.336  0.1847E+02  0.6664E+01
      0.383  0.1834E+02  0.7518E+01
      0.430  0.1740E+02  0.8329E+01
      0.476  0.1972E+02  0.9248E+01
      0.523  0.2331E+02  0.1033E+02
      0.569  0.2404E+02  0.1145E+02
      0.616  0.2229E+02  0.1249E+02
      0.663  0.1879E+02  0.1337E+02
      0.709  0.1416E+02  0.1403E+02
      0.756  0.1117E+02  0.1455E+02
      0.802  0.1073E+02  0.1505E+02
      0.849  0.1120E+02  0.1557E+02
      0.896  0.1227E+02  0.1614E+02
      0.942  0.1474E+02  0.1683E+02
      0.989  0.1838E+02  0.1768E+02
      1.035  0.2288E+02  0.1875E+02
      1.082  0.2807E+02  0.2006E+02
      1.129  0.3124E+02  0.2151E+02
      1.175  0.2972E+02  0.2290E+02
      1.222  0.2585E+02  0.2410E+02
      1.268  0.2300E+02  0.2518E+02
      1.315  0.2092E+02  0.2615E+02
      1.362  0.2002E+02  0.2708E+02
      1.408  0.2167E+02  0.2809E+02
      1.455  0.2414E+02  0.2922E+02
      1.501  0.2572E+02  0.3042E+02
      1.548  0.2899E+02  0.3177E+02
      1.595  0.3507E+02  0.3340E+02
      1.641  0.3869E+02  0.3520E+02
      1.688  0.3783E+02  0.3697E+02
      1.734  0.3924E+02  0.3879E+02
      1.781  0.4550E+02  0.4091E+02
      1.828  0.4936E+02  0.4321E+02
      1.874  0.4783E+02  0.4544E+02
      1.921  0.4728E+02  0.4765E+02
      1.967  0.5096E+02  0.5002E+02
      2.014  0.5422E+02  0.5255E+02
      2.061  0.5546E+02  0.5513E+02
      2.107  0.6111E+02  0.5798E+02
      2.154  0.7422E+02  0.6144E+02
      2.200  0.8916E+02  0.6559E+02
      2.247  0.1030E+03  0.7039E+02
      2.293  0.1177E+03  0.7587E+02
      2.340  0.1309E+03  0.8197E+02
      2.387  0.1382E+03  0.8841E+02
      2.433  0.1432E+03  0.9508E+02
      2.480  0.1522E+03  0.1022E+03
      2.526  0.1609E+03  0.1097E+03
      2.573  0.1616E+03  0.1172E+03
      2.620  0.1612E+03  0.1247E+03
      2.666  0.1687E+03  0.1326E+03
      2.713  0.1784E+03  0.1409E+03
      2.759  0.1849E+03  0.1495E+03
      2.806  0.1979E+03  0.1587E+03
      2.853  0.2230E+03  0.1691E+03
      2.899  0.2477E+03  0.1807E+03
      2.946  0.2564E+03  0.1926E+03
      2.992  0.2498E+03  0.2042E+03
      3.039  0.2469E+03  0.2157E+03
      3.086  0.2622E+03  0.2280E+03
      3.132  0.2866E+03  0.2413E+03
      3.179  0.3013E+03  0.2554E+03
      3.225  0.3038E+03  0.2695E+03
      3.272  0.3051E+03  0.2837E+03
      3.319  0.3085E+03  0.2981E+03
      3.365  0.3114E+03  0.3126E+03
      3.412  0.3148E+03  0.3273E+03
      3.458  0.3222E+03  0.3423E+03
      3.505  0.3338E+03  0.3579E+03
      3.552  0.3444E+03  0.3739E+03
      3.598  0.3470E+03  0.3901E+03
      3.645  0.3450E+03  0.4061E+03
      3.691  0.3489E+03  0.4224E+03
      3.738  0.3578E+03  0.4391E+03
      3.785  0.3593E+03  0.4558E+03
      3.831  0.3522E+03  0.4722E+03
      3.878  0.3478E+03  0.4884E+03
      3.924  0.3497E+03  0.5047E+03
      3.971  0.3507E+03  0.5211E+03
      4.018  0.3415E+03  0.5370E+03
      4.064  0.3228E+03  0.5520E+03
      4.111  0.3067E+03  0.5663E+03
      4.157  0.2975E+03  0.5802E+03
      4.204  0.2874E+03  0.5936E+03
      4.251  0.2713E+03  0.6062E+03
      4.297  0.2536E+03  0.6180E+03
      4.344  0.2427E+03  0.6293E+03
      4.390  0.2454E+03  0.6408E+03
      4.437  0.2579E+03  0.6528E+03
      4.483  0.2616E+03  0.6650E+03
      4.530  0.2503E+03  0.6766E+03
      4.577  0.2474E+03  0.6882E+03
      4.623  0.2671E+03  0.7006E+03
      4.670  0.2919E+03  0.7142E+03
      4.716  0.3068E+03  0.7285E+03
      4.763  0.3138E+03  0.7431E+03
      4.810  0.3137E+03  0.7578E+03
      4.856  0.3050E+03  0.7720E+03
      4.903  0.2901E+03  0.7855E+03
      4.949  0.2784E+03  0.7985E+03
      4.996  0.2811E+03  0.8116E+03
      5.043  0.2952E+03  0.8253E+03
      5.089  0.3079E+03  0.8397E+03
      5.136  0.3093E+03  0.8541E+03
      5.182  0.2977E+03  0.8679E+03
      5.229  0.2855E+03  0.8812E+03
      5.276  0.2843E+03  0.8945E+03
      5.322  0.2902E+03  0.9080E+03
      5.369  0.2971E+03  0.9219E+03
      5.415  0.3017E+03  0.9359E+03
      5.462  0.2986E+03  0.9498E+03
      5.509  0.2887E+03  0.9633E+03
      5.555  0.2865E+03  0.9766E+03
      5.602  0.3025E+03  0.9907E+03
      5.648  0.3214E+03  0.1006E+04
      5.695  0.3253E+03  0.1021E+04
      5.742  0.3203E+03  0.1036E+04
      5.788  0.3200E+03  0.1051E+04
      5.835  0.3263E+03  0.1066E+04
      5.881  0.3368E+03  0.1082E+04
      5.928  0.3502E+03  0.1098E+04
      5.975  0.3653E+03  0.1115E+04
      6.021  0.3788E+03  0.1133E+04
      6.068  0.3853E+03  0.1151E+04
      6.114  0.3874E+03  0.1169E+04
      6.161  0.3916E+03  0.1187E+04
      6.208  0.3985E+03  0.1205E+04
      6.254  0.4093E+03  0.1224E+04
      6.301  0.4270E+03  0.1244E+04
      6.347  0.4464E+03  0.1265E+04
      6.394  0.4573E+03  0.1286E+04
      6.440  0.4572E+03  0.1308E+04
      6.487  0.4532E+03  0.1329E+04
      6.534  0.4501E+03  0.1350E+04
      6.580  0.4458E+03  0.1371E+04
      6.627  0.4395E+03  0.1391E+04
      6.673  0.4322E+03  0.1411E+04
      6.720  0.4251E+03  0.1431E+04
      6.767  0.4172E+03  0.1450E+04
      6.813  0.4018E+03  0.1469E+04
      6.860  0.3770E+03  0.1487E+04
      6.906  0.3546E+03  0.1503E+04
      6.953  0.3443E+03  0.1519E+04
      7.000  0.3392E+03  0.1535E+04
      7.046  0.3277E+03  0.1550E+04
      7.093  0.3149E+03  0.1565E+04
      7.139  0.3135E+03  0.1580E+04
      7.186  0.3193E+03  0.1595E+04
      7.233  0.3135E+03  0.1609E+04
      7.279  0.2877E+03  0.1623E+04
      7.326  0.2561E+03  0.1635E+04
      7.372  0.2402E+03  0.1646E+04
      7.419  0.2486E+03  0.1657E+04
      7.466  0.2710E+03  0.1670E+04
      7.512  0.2845E+03  0.1683E+04
      7.559  0.2765E+03  0.1696E+04
      7.605  0.2586E+03  0.1708E+04
      7.652  0.2484E+03  0.1720E+04
      7.699  0.2571E+03  0.1732E+04
      7.745  0.2826E+03  0.1745E+04
      7.792  0.3051E+03  0.1759E+04
      7.838  0.3118E+03  0.1774E+04
      7.885  0.3088E+03  0.1788E+04
      7.932  0.3033E+03  0.1802E+04
      7.978  0.2962E+03  0.1816E+04
      8.025  0.2910E+03  0.1829E+04
      8.071  0.2956E+03  0.1843E+04
      8.118  0.3090E+03  0.1858E+04
      8.165  0.3169E+03  0.1872E+04
      8.211  0.3176E+03  0.1887E+04
      8.258  0.3296E+03  0.1903E+04
      8.304  0.3536E+03  0.1919E+04
      8.351  0.3626E+03  0.1936E+04
      8.398  0.3402E+03  0.1952E+04
      8.444  0.3003E+03  0.1966E+04
      8.491  0.2670E+03  0.1978E+04
      8.537  0.2556E+03  0.1990E+04
      8.584  0.2706E+03  0.2003E+04
      8.630  0.2952E+03  0.2016E+04
      8.677  0.3001E+03  0.2030E+04
      8.724  0.2842E+03  0.2044E+04
      8.770  0.2677E+03  0.2056E+04
      8.817  0.2571E+03  0.2068E+04
      8.863  0.2492E+03  0.2080E+04
      8.910  0.2452E+03  0.2091E+04
      8.957  0.2453E+03  0.2103E+04
      9.003  0.2533E+03  0.2114E+04
      9.050  0.2732E+03  0.2127E+04
      9.096  0.2841E+03  0.2140E+04
      9.143  0.2664E+03  0.2153E+04
      9.190  0.2411E+03  0.2164E+04
      9.236  0.2284E+03  0.2175E+04
      9.283  0.2200E+03  0.2185E+04
      9.329  0.2138E+03  0.2195E+04
      9.376  0.2216E+03  0.2205E+04
      9.423  0.2422E+03  0.2217E+04
      9.469  0.2622E+03  0.2229E+04
      9.516  0.2735E+03  0.2241E+04
      9.562  0.2772E+03  0.2254E+04
      9.609  0.2762E+03  0.2267E+04
      9.656  0.2711E+03  0.2280E+04
      9.702  0.2611E+03  0.2292E+04
      9.749  0.2440E+03  0.2303E+04
      9.795  0.2245E+03  0.2314E+04
      9.842  0.2195E+03  0.2324E+04
      9.889  0.2363E+03  0.2335E+04
      9.935  0.2636E+03  0.2347E+04
      9.982  0.2945E+03  0.2361E+04
     10.028  0.3268E+03  0.2376E+04
     10.075  0.3491E+03  0.2393E+04
     10.122  0.3467E+03  0.2409E+04
     10.168  0.3242E+03  0.2424E+04
     10.215  0.3101E+03  0.2438E+04
     10.261  0.3285E+03  0.2454E+04
     10.308  0.3860E+03  0.2472E+04
     10.355  0.4652E+03  0.2493E+04
     10.401  0.5182E+03  0.2517E+04
     10.448  0.5098E+03  0.2541E+04
     10.494  0.4516E+03  0.2562E+04
     10.541  0.3750E+03  0.2580E+04
     10.587  0.3030E+03  0.2594E+04
     10.634  0.2489E+03  0.2605E+04
     10.681  0.2130E+03  0.2615E+04
     10.727  0.1814E+03  0.2624E+04
     10.774  0.1426E+03  0.2630E+04
     10.820  0.9789E+02  0.2635E+04
     10.867  0.5678E+02  0.2638E+04
     10.914  0.2728E+02  0.2639E+04
     10.960  0.1037E+02  0.2639E+04
     11.007  0.3089E+01  0.2640E+04
     11.053  0.1731E+01  0.2640E+04
     11.100  0.2262E+01  0.2640E+04
     11.147  0.1938E+01  0.2640E+04
     11.193  0.7771E+00  0.2640E+04
     11.240 -0.3590E-03  0.2640E+04
     11.286 -0.1320E+00  0.2640E+04
     11.333 -0.5693E-01  0.2640E+04
     11.380 -0.1223E-01  0.2640E+04
     11.426 -0.3588E-02  0.2640E+04
     11.473 -0.1321E-01  0.2640E+04
     11.519 -0.4245E-01  0.2640E+04
     11.566 -0.3561E-01  0.2640E+04
     11.613  0.2008E+00  0.2640E+04
     11.659  0.7172E+00  0.2640E+04
     11.706  0.1026E+01  0.2640E+04
     11.752  0.7212E+00  0.2640E+04
     11.799  0.2039E+00  0.2640E+04
     11.846 -0.3499E-01  0.2640E+04
     11.892 -0.4268E-01  0.2640E+04
     11.939 -0.1325E-01  0.2640E+04
     11.985 -0.2145E-02  0.2640E+04
     12.032 -0.2038E-03  0.2640E+04
     12.079 -0.1187E-04  0.2640E+04
     12.125 -0.4319E-06  0.2640E+04
     12.172 -0.9938E-08  0.2640E+04
     12.218 -0.1455E-09  0.2640E+04
     12.265 -0.1363E-11  0.2640E+04
     12.312 -0.8339E-14  0.2640E+04
     12.358  0.0000E+00  0.2640E+04
     12.405  0.0000E+00  0.2640E+04
     12.451  0.0000E+00  0.2640E+04
     12.498  0.0000E+00  0.2640E+04
     12.545  0.0000E+00  0.2640E+04
     12.591  0.0000E+00  0.2640E+04
     12.638  0.0000E+00  0.2640E+04
     12.684  0.0000E+00  0.2640E+04
