  96  96   0   0
  0.1459365E+02  0.1098685E-08  0.1098895E-08  0.1339819E-08  0.5000000E-15
  1.000000000000000E-004
  CAR 
 Ir_Ru                                   
     16.01802476     -1.84884142  301      9.98829486      1.00000000
     -1.849  0.0000E+00  0.0000E+00
     -1.789  0.0000E+00  0.0000E+00
     -1.730  0.0000E+00  0.0000E+00
     -1.670 -0.3928E-29 -0.2339E-30
     -1.611 -0.4530E-25 -0.2698E-26
     -1.551 -0.2555E-21 -0.1522E-22
     -1.492 -0.7036E-18 -0.4192E-19
     -1.432 -0.9264E-15 -0.5521E-16
     -1.372 -0.5956E-12 -0.3553E-13
     -1.313 -0.1871E-09 -0.1118E-10
     -1.253 -0.2831E-07 -0.1697E-08
     -1.194 -0.2046E-05 -0.1236E-06
     -1.134 -0.6988E-04 -0.4286E-05
     -1.075 -0.1111E-02 -0.7046E-04
     -1.015 -0.8102E-02 -0.5530E-03
     -0.955 -0.2629E-01 -0.2119E-02
     -0.896 -0.1831E-01 -0.3209E-02
     -0.836  0.2087E+00  0.9218E-02
     -0.777  0.9903E+00  0.6820E-01
     -0.717  0.2080E+01  0.1921E+00
     -0.658  0.2359E+01  0.3325E+00
     -0.598  0.1699E+01  0.4337E+00
     -0.539  0.2304E+01  0.5709E+00
     -0.479  0.4717E+01  0.8518E+00
     -0.419  0.5531E+01  0.1181E+01
     -0.360  0.3298E+01  0.1378E+01
     -0.300  0.1623E+01  0.1474E+01
     -0.241  0.2981E+01  0.1652E+01
     -0.181  0.6132E+01  0.2017E+01
     -0.122  0.7985E+01  0.2493E+01
     -0.062  0.5815E+01  0.2839E+01
     -0.003  0.3382E+01  0.3040E+01
      0.057  0.5649E+01  0.3377E+01
      0.117  0.7529E+01  0.3825E+01
      0.176  0.5133E+01  0.4131E+01
      0.236  0.4052E+01  0.4372E+01
      0.295  0.6187E+01  0.4741E+01
      0.355  0.9033E+01  0.5279E+01
      0.414  0.9849E+01  0.5865E+01
      0.474  0.7435E+01  0.6308E+01
      0.533  0.7717E+01  0.6768E+01
      0.593  0.1121E+02  0.7435E+01
      0.653  0.8750E+01  0.7956E+01
      0.712  0.2258E+01  0.8091E+01
      0.772  0.2331E+01  0.8230E+01
      0.831  0.1041E+02  0.8850E+01
      0.891  0.1681E+02  0.9851E+01
      0.950  0.1430E+02  0.1070E+02
      1.010  0.1091E+02  0.1135E+02
      1.069  0.1094E+02  0.1200E+02
      1.129  0.9849E+01  0.1259E+02
      1.189  0.8308E+01  0.1308E+02
      1.248  0.7561E+01  0.1354E+02
      1.308  0.9556E+01  0.1410E+02
      1.367  0.1386E+02  0.1493E+02
      1.427  0.1759E+02  0.1598E+02
      1.486  0.1657E+02  0.1696E+02
      1.546  0.1283E+02  0.1773E+02
      1.605  0.1425E+02  0.1858E+02
      1.665  0.1674E+02  0.1957E+02
      1.725  0.1571E+02  0.2051E+02
      1.784  0.1688E+02  0.2151E+02
      1.844  0.1961E+02  0.2268E+02
      1.903  0.1959E+02  0.2385E+02
      1.963  0.1508E+02  0.2475E+02
      2.022  0.1100E+02  0.2540E+02
      2.082  0.1779E+02  0.2646E+02
      2.141  0.3428E+02  0.2850E+02
      2.201  0.4764E+02  0.3134E+02
      2.261  0.5239E+02  0.3446E+02
      2.320  0.6052E+02  0.3806E+02
      2.380  0.6681E+02  0.4204E+02
      2.439  0.6649E+02  0.4600E+02
      2.499  0.7803E+02  0.5065E+02
      2.558  0.8440E+02  0.5568E+02
      2.618  0.7283E+02  0.6001E+02
      2.677  0.7503E+02  0.6448E+02
      2.737  0.8967E+02  0.6982E+02
      2.797  0.9753E+02  0.7563E+02
      2.856  0.9811E+02  0.8148E+02
      2.916  0.8808E+02  0.8672E+02
      2.975  0.7766E+02  0.9135E+02
      3.035  0.8311E+02  0.9630E+02
      3.094  0.1107E+03  0.1029E+03
      3.154  0.1329E+03  0.1108E+03
      3.213  0.1173E+03  0.1178E+03
      3.273  0.8753E+02  0.1230E+03
      3.333  0.8117E+02  0.1278E+03
      3.392  0.1039E+03  0.1340E+03
      3.452  0.1387E+03  0.1423E+03
      3.511  0.1444E+03  0.1509E+03
      3.571  0.1196E+03  0.1580E+03
      3.630  0.1003E+03  0.1640E+03
      3.690  0.8600E+02  0.1691E+03
      3.749  0.8164E+02  0.1740E+03
      3.809  0.9482E+02  0.1796E+03
      3.869  0.9933E+02  0.1855E+03
      3.928  0.8651E+02  0.1907E+03
      3.988  0.6519E+02  0.1946E+03
      4.047  0.6427E+02  0.1984E+03
      4.107  0.9908E+02  0.2043E+03
      4.166  0.1419E+03  0.2127E+03
      4.226  0.1528E+03  0.2218E+03
      4.285  0.1331E+03  0.2298E+03
      4.345  0.1157E+03  0.2367E+03
      4.405  0.1045E+03  0.2429E+03
      4.464  0.9824E+02  0.2487E+03
      4.524  0.1032E+03  0.2549E+03
      4.583  0.1048E+03  0.2611E+03
      4.643  0.1021E+03  0.2672E+03
      4.702  0.1043E+03  0.2734E+03
      4.762  0.1048E+03  0.2797E+03
      4.821  0.1117E+03  0.2863E+03
      4.881  0.1260E+03  0.2938E+03
      4.941  0.1367E+03  0.3020E+03
      5.000  0.1435E+03  0.3105E+03
      5.060  0.1562E+03  0.3198E+03
      5.119  0.1510E+03  0.3288E+03
      5.179  0.1246E+03  0.3362E+03
      5.238  0.1060E+03  0.3425E+03
      5.298  0.1034E+03  0.3487E+03
      5.357  0.9165E+02  0.3541E+03
      5.417  0.6898E+02  0.3583E+03
      5.477  0.5379E+02  0.3615E+03
      5.536  0.4985E+02  0.3644E+03
      5.596  0.6020E+02  0.3680E+03
      5.655  0.8280E+02  0.3729E+03
      5.715  0.1047E+03  0.3792E+03
      5.774  0.1311E+03  0.3870E+03
      5.834  0.1659E+03  0.3969E+03
      5.893  0.1748E+03  0.4073E+03
      5.953  0.1694E+03  0.4174E+03
      6.013  0.1744E+03  0.4278E+03
      6.072  0.1613E+03  0.4374E+03
      6.132  0.1344E+03  0.4454E+03
      6.191  0.1365E+03  0.4535E+03
      6.251  0.1628E+03  0.4632E+03
      6.310  0.1702E+03  0.4733E+03
      6.370  0.1476E+03  0.4821E+03
      6.429  0.1288E+03  0.4898E+03
      6.489  0.1305E+03  0.4976E+03
      6.549  0.1393E+03  0.5059E+03
      6.608  0.1455E+03  0.5145E+03
      6.668  0.1398E+03  0.5229E+03
      6.727  0.1450E+03  0.5315E+03
      6.787  0.1740E+03  0.5418E+03
      6.846  0.1735E+03  0.5522E+03
      6.906  0.1447E+03  0.5608E+03
      6.965  0.1404E+03  0.5692E+03
      7.025  0.1589E+03  0.5786E+03
      7.085  0.1714E+03  0.5888E+03
      7.144  0.1700E+03  0.5990E+03
      7.204  0.1608E+03  0.6085E+03
      7.263  0.1502E+03  0.6175E+03
      7.323  0.1423E+03  0.6259E+03
      7.382  0.1307E+03  0.6337E+03
      7.442  0.1179E+03  0.6407E+03
      7.501  0.1174E+03  0.6477E+03
      7.561  0.1216E+03  0.6550E+03
      7.621  0.1103E+03  0.6616E+03
      7.680  0.9263E+02  0.6671E+03
      7.740  0.8575E+02  0.6722E+03
      7.799  0.8411E+02  0.6772E+03
      7.859  0.8370E+02  0.6822E+03
      7.918  0.9001E+02  0.6875E+03
      7.978  0.1017E+03  0.6936E+03
      8.037  0.1131E+03  0.7003E+03
      8.097  0.1033E+03  0.7065E+03
      8.157  0.7114E+02  0.7107E+03
      8.216  0.5474E+02  0.7140E+03
      8.276  0.6645E+02  0.7179E+03
      8.335  0.8313E+02  0.7229E+03
      8.395  0.9323E+02  0.7284E+03
      8.454  0.9855E+02  0.7343E+03
      8.514  0.9413E+02  0.7399E+03
      8.573  0.7573E+02  0.7444E+03
      8.633  0.7123E+02  0.7487E+03
      8.693  0.7029E+02  0.7528E+03
      8.752  0.5389E+02  0.7561E+03
      8.812  0.5259E+02  0.7592E+03
      8.871  0.6602E+02  0.7631E+03
      8.931  0.7815E+02  0.7678E+03
      8.990  0.8757E+02  0.7730E+03
      9.050  0.9792E+02  0.7788E+03
      9.110  0.9780E+02  0.7846E+03
      9.169  0.8145E+02  0.7895E+03
      9.229  0.6282E+02  0.7932E+03
      9.288  0.5642E+02  0.7966E+03
      9.348  0.5494E+02  0.7999E+03
      9.407  0.5932E+02  0.8034E+03
      9.467  0.7180E+02  0.8077E+03
      9.526  0.8028E+02  0.8125E+03
      9.586  0.1052E+03  0.8187E+03
      9.646  0.1261E+03  0.8262E+03
      9.705  0.1068E+03  0.8326E+03
      9.765  0.9356E+02  0.8382E+03
      9.824  0.1203E+03  0.8453E+03
      9.884  0.1313E+03  0.8532E+03
      9.943  0.1118E+03  0.8598E+03
     10.003  0.9226E+02  0.8653E+03
     10.062  0.9944E+02  0.8712E+03
     10.122  0.1146E+03  0.8781E+03
     10.182  0.1249E+03  0.8855E+03
     10.241  0.1453E+03  0.8942E+03
     10.301  0.1617E+03  0.9038E+03
     10.360  0.1656E+03  0.9136E+03
     10.420  0.1603E+03  0.9232E+03
     10.479  0.1504E+03  0.9321E+03
     10.539  0.1699E+03  0.9423E+03
     10.598  0.2100E+03  0.9548E+03
     10.658  0.2039E+03  0.9669E+03
     10.718  0.1656E+03  0.9768E+03
     10.777  0.1489E+03  0.9856E+03
     10.837  0.1369E+03  0.9938E+03
     10.896  0.1286E+03  0.1001E+04
     10.956  0.1202E+03  0.1009E+04
     11.015  0.8751E+02  0.1014E+04
     11.075  0.5142E+02  0.1017E+04
     11.134  0.3104E+02  0.1019E+04
     11.194  0.2234E+02  0.1020E+04
     11.254  0.2076E+02  0.1021E+04
     11.313  0.1792E+02  0.1022E+04
     11.373  0.1183E+02  0.1023E+04
     11.432  0.9718E+01  0.1024E+04
     11.492  0.9899E+01  0.1024E+04
     11.551  0.9713E+01  0.1025E+04
     11.611  0.1070E+02  0.1025E+04
     11.670  0.1300E+02  0.1026E+04
     11.730  0.1529E+02  0.1027E+04
     11.790  0.1452E+02  0.1028E+04
     11.849  0.1066E+02  0.1029E+04
     11.909  0.8028E+01  0.1029E+04
     11.968  0.6413E+01  0.1030E+04
     12.028  0.3981E+01  0.1030E+04
     12.087  0.2696E+01  0.1030E+04
     12.147  0.3813E+01  0.1030E+04
     12.206  0.5812E+01  0.1030E+04
     12.266  0.7297E+01  0.1031E+04
     12.326  0.7737E+01  0.1031E+04
     12.385  0.7147E+01  0.1032E+04
     12.445  0.6564E+01  0.1032E+04
     12.504  0.6107E+01  0.1033E+04
     12.564  0.6078E+01  0.1033E+04
     12.623  0.6501E+01  0.1033E+04
     12.683  0.6044E+01  0.1034E+04
     12.742  0.4791E+01  0.1034E+04
     12.802  0.4064E+01  0.1034E+04
     12.862  0.3973E+01  0.1034E+04
     12.921  0.4220E+01  0.1035E+04
     12.981  0.4709E+01  0.1035E+04
     13.040  0.4958E+01  0.1035E+04
     13.100  0.4568E+01  0.1036E+04
     13.159  0.3832E+01  0.1036E+04
     13.219  0.3399E+01  0.1036E+04
     13.278  0.3299E+01  0.1036E+04
     13.338  0.2891E+01  0.1036E+04
     13.398  0.2817E+01  0.1036E+04
     13.457  0.4067E+01  0.1037E+04
     13.517  0.5047E+01  0.1037E+04
     13.576  0.5118E+01  0.1037E+04
     13.636  0.5115E+01  0.1038E+04
     13.695  0.4374E+01  0.1038E+04
     13.755  0.2671E+01  0.1038E+04
     13.814  0.1311E+01  0.1038E+04
     13.874  0.1176E+01  0.1038E+04
     13.934  0.1420E+01  0.1038E+04
     13.993  0.1377E+01  0.1038E+04
     14.053  0.1727E+01  0.1038E+04
     14.112  0.2431E+01  0.1039E+04
     14.172  0.2612E+01  0.1039E+04
     14.231  0.1833E+01  0.1039E+04
     14.291  0.1022E+01  0.1039E+04
     14.350  0.1595E+01  0.1039E+04
     14.410  0.2902E+01  0.1039E+04
     14.470  0.3050E+01  0.1039E+04
     14.529  0.2164E+01  0.1040E+04
     14.589  0.1312E+01  0.1040E+04
     14.648  0.8268E+00  0.1040E+04
     14.708  0.1153E+01  0.1040E+04
     14.767  0.1231E+01  0.1040E+04
     14.827  0.6628E+00  0.1040E+04
     14.886  0.6073E+00  0.1040E+04
     14.946  0.8772E+00  0.1040E+04
     15.006  0.7080E+00  0.1040E+04
     15.065  0.3515E+00  0.1040E+04
     15.125  0.8191E-01  0.1040E+04
     15.184 -0.1814E-01  0.1040E+04
     15.244 -0.1260E-01  0.1040E+04
     15.303 -0.2056E-02  0.1040E+04
     15.363 -0.1362E-03  0.1040E+04
     15.422 -0.4056E-05  0.1040E+04
     15.482 -0.5644E-07  0.1040E+04
     15.542 -0.3738E-09  0.1040E+04
     15.601 -0.1191E-11  0.1040E+04
     15.661 -0.1939E-14  0.1040E+04
     15.720  0.0000E+00  0.1040E+04
     15.780  0.0000E+00  0.1040E+04
     15.839  0.0000E+00  0.1040E+04
     15.899  0.0000E+00  0.1040E+04
     15.958  0.0000E+00  0.1040E+04
     16.018  0.0000E+00  0.1040E+04
