       N       E                     dE             d eps       ncg     rms          rms(c)
RMM:   1     0.576839179593E+04    0.57684E+04   -0.18848E+05 26520   0.713E+02
RMM:   2     0.725070981154E+03   -0.50433E+04   -0.53582E+04 26520   0.263E+02
RMM:   3    -0.301180883247E+03   -0.10263E+04   -0.99309E+03 26520   0.117E+02
RMM:   4    -0.637103225883E+03   -0.33592E+03   -0.24846E+03 26520   0.792E+01
RMM:   5    -0.751777254687E+03   -0.11467E+03   -0.10162E+03 26520   0.465E+01
RMM:   6    -0.811397525256E+03   -0.59620E+02   -0.52276E+02 26520   0.342E+01
RMM:   7    -0.842611985090E+03   -0.31214E+02   -0.28829E+02 26520   0.235E+01
RMM:   8    -0.861146084408E+03   -0.18534E+02   -0.17031E+02 26520   0.183E+01
RMM:   9    -0.889533893684E+03   -0.28388E+02   -0.27725E+02 72984   0.132E+01
RMM:  10    -0.894008037174E+03   -0.44741E+01   -0.43551E+01 82409   0.265E+00
RMM:  11    -0.895164634529E+03   -0.11566E+01   -0.90137E+00 81744   0.729E-01
RMM:  12    -0.895388398894E+03   -0.22376E+00   -0.16258E+00 82602   0.233E-01    0.430E+01
RMM:  13    -0.851378267781E+03    0.44010E+02   -0.82087E+01 54953   0.171E+01    0.176E+01
RMM:  14    -0.843729789882E+03    0.76485E+01   -0.55585E+01 56784   0.116E+01    0.298E+00
RMM:  15    -0.844064191188E+03   -0.33440E+00   -0.46810E+00 66637   0.160E+00    0.376E+00
RMM:  16    -0.843529560297E+03    0.53463E+00   -0.12790E+00 60696   0.207E+00    0.224E+00
RMM:  17    -0.843407901039E+03    0.12166E+00   -0.32525E-01 63410   0.795E-01    0.105E+00
RMM:  18    -0.843389378840E+03    0.18522E-01   -0.94308E-02 70218   0.228E-01    0.728E-01
RMM:  19    -0.843374468970E+03    0.14910E-01   -0.65844E-02 63186   0.385E-01    0.271E-01
RMM:  20    -0.843375830463E+03   -0.13615E-02   -0.15620E-02 74031   0.803E-02    0.271E-01
RMM:  21    -0.843375422450E+03    0.40801E-03   -0.22058E-03 66897   0.425E-02    0.217E-01
RMM:  22    -0.843374376045E+03    0.10464E-02   -0.19945E-03 61569   0.782E-02    0.965E-02
RMM:  23    -0.843374245819E+03    0.13023E-03   -0.56820E-04 66919   0.246E-02    0.553E-02
RMM:  24    -0.843374172033E+03    0.73786E-04   -0.19098E-04 65177   0.190E-02
   1 F= -.84337417E+03 E0= -.84339268E+03  d E =0.555174E-01
