  96  96   0   0
  0.1459365E+02  0.1098685E-08  0.1098895E-08  0.1339819E-08  0.5000000E-15
  1.000000000000000E-004
  CAR 
 Ir_Ru                                   
     16.01699738     -1.84886689  301      9.98860898      1.00000000
     -1.849  0.0000E+00  0.0000E+00
     -1.789  0.0000E+00  0.0000E+00
     -1.730  0.0000E+00  0.0000E+00
     -1.670 -0.3922E-29 -0.2335E-30
     -1.611 -0.4521E-25 -0.2693E-26
     -1.551 -0.2549E-21 -0.1518E-22
     -1.492 -0.7019E-18 -0.4181E-19
     -1.432 -0.9239E-15 -0.5506E-16
     -1.372 -0.5940E-12 -0.3543E-13
     -1.313 -0.1866E-09 -0.1115E-10
     -1.253 -0.2824E-07 -0.1693E-08
     -1.194 -0.2042E-05 -0.1233E-06
     -1.134 -0.6974E-04 -0.4276E-05
     -1.075 -0.1109E-02 -0.7033E-04
     -1.015 -0.8092E-02 -0.5522E-03
     -0.956 -0.2627E-01 -0.2117E-02
     -0.896 -0.1836E-01 -0.3210E-02
     -0.836  0.2082E+00  0.9190E-02
     -0.777  0.9892E+00  0.6810E-01
     -0.717  0.2079E+01  0.1919E+00
     -0.658  0.2359E+01  0.3324E+00
     -0.598  0.1699E+01  0.4336E+00
     -0.539  0.2301E+01  0.5706E+00
     -0.479  0.4714E+01  0.8514E+00
     -0.420  0.5534E+01  0.1181E+01
     -0.360  0.3300E+01  0.1377E+01
     -0.300  0.1623E+01  0.1474E+01
     -0.241  0.2978E+01  0.1651E+01
     -0.181  0.6128E+01  0.2016E+01
     -0.122  0.7984E+01  0.2492E+01
     -0.062  0.5819E+01  0.2838E+01
     -0.003  0.3382E+01  0.3040E+01
      0.057  0.5644E+01  0.3376E+01
      0.116  0.7532E+01  0.3824E+01
      0.176  0.5137E+01  0.4130E+01
      0.235  0.4049E+01  0.4372E+01
      0.295  0.6181E+01  0.4740E+01
      0.355  0.9029E+01  0.5277E+01
      0.414  0.9850E+01  0.5864E+01
      0.474  0.7437E+01  0.6307E+01
      0.533  0.7711E+01  0.6766E+01
      0.593  0.1121E+02  0.7434E+01
      0.652  0.8766E+01  0.7956E+01
      0.712  0.2268E+01  0.8091E+01
      0.771  0.2316E+01  0.8229E+01
      0.831  0.1038E+02  0.8847E+01
      0.891  0.1681E+02  0.9848E+01
      0.950  0.1431E+02  0.1070E+02
      1.010  0.1091E+02  0.1135E+02
      1.069  0.1094E+02  0.1200E+02
      1.129  0.9854E+01  0.1259E+02
      1.188  0.8309E+01  0.1308E+02
      1.248  0.7556E+01  0.1353E+02
      1.307  0.9550E+01  0.1410E+02
      1.367  0.1385E+02  0.1493E+02
      1.427  0.1757E+02  0.1597E+02
      1.486  0.1658E+02  0.1696E+02
      1.546  0.1283E+02  0.1773E+02
      1.605  0.1424E+02  0.1857E+02
      1.665  0.1674E+02  0.1957E+02
      1.724  0.1571E+02  0.2051E+02
      1.784  0.1687E+02  0.2151E+02
      1.843  0.1961E+02  0.2268E+02
      1.903  0.1960E+02  0.2385E+02
      1.963  0.1510E+02  0.2474E+02
      2.022  0.1099E+02  0.2540E+02
      2.082  0.1773E+02  0.2645E+02
      2.141  0.3420E+02  0.2849E+02
      2.201  0.4759E+02  0.3133E+02
      2.260  0.5234E+02  0.3444E+02
      2.320  0.6044E+02  0.3804E+02
      2.379  0.6678E+02  0.4202E+02
      2.439  0.6647E+02  0.4598E+02
      2.498  0.7796E+02  0.5062E+02
      2.558  0.8443E+02  0.5565E+02
      2.618  0.7288E+02  0.5999E+02
      2.677  0.7495E+02  0.6445E+02
      2.737  0.8958E+02  0.6979E+02
      2.796  0.9749E+02  0.7559E+02
      2.856  0.9813E+02  0.8144E+02
      2.915  0.8818E+02  0.8669E+02
      2.975  0.7771E+02  0.9132E+02
      3.034  0.8298E+02  0.9626E+02
      3.094  0.1104E+03  0.1028E+03
      3.154  0.1329E+03  0.1107E+03
      3.213  0.1175E+03  0.1177E+03
      3.273  0.8770E+02  0.1230E+03
      3.332  0.8108E+02  0.1278E+03
      3.392  0.1036E+03  0.1340E+03
      3.451  0.1384E+03  0.1422E+03
      3.511  0.1445E+03  0.1508E+03
      3.570  0.1198E+03  0.1580E+03
      3.630  0.1004E+03  0.1639E+03
      3.690  0.8608E+02  0.1691E+03
      3.749  0.8158E+02  0.1739E+03
      3.809  0.9470E+02  0.1796E+03
      3.868  0.9935E+02  0.1855E+03
      3.928  0.8666E+02  0.1906E+03
      3.987  0.6535E+02  0.1945E+03
      4.047  0.6415E+02  0.1983E+03
      4.106  0.9868E+02  0.2042E+03
      4.166  0.1415E+03  0.2127E+03
      4.226  0.1529E+03  0.2218E+03
      4.285  0.1334E+03  0.2297E+03
      4.345  0.1158E+03  0.2366E+03
      4.404  0.1046E+03  0.2428E+03
      4.464  0.9825E+02  0.2487E+03
      4.523  0.1032E+03  0.2548E+03
      4.583  0.1048E+03  0.2611E+03
      4.642  0.1021E+03  0.2671E+03
      4.702  0.1043E+03  0.2734E+03
      4.762  0.1047E+03  0.2796E+03
      4.821  0.1116E+03  0.2862E+03
      4.881  0.1260E+03  0.2937E+03
      4.940  0.1367E+03  0.3019E+03
      5.000  0.1434E+03  0.3104E+03
      5.059  0.1561E+03  0.3197E+03
      5.119  0.1511E+03  0.3287E+03
      5.178  0.1249E+03  0.3361E+03
      5.238  0.1061E+03  0.3425E+03
      5.297  0.1034E+03  0.3486E+03
      5.357  0.9186E+02  0.3541E+03
      5.417  0.6921E+02  0.3582E+03
      5.476  0.5390E+02  0.3614E+03
      5.536  0.4984E+02  0.3644E+03
      5.595  0.6004E+02  0.3680E+03
      5.655  0.8260E+02  0.3729E+03
      5.714  0.1046E+03  0.3791E+03
      5.774  0.1307E+03  0.3869E+03
      5.833  0.1656E+03  0.3968E+03
      5.893  0.1748E+03  0.4072E+03
      5.953  0.1693E+03  0.4173E+03
      6.012  0.1743E+03  0.4276E+03
      6.072  0.1616E+03  0.4373E+03
      6.131  0.1346E+03  0.4453E+03
      6.191  0.1363E+03  0.4534E+03
      6.250  0.1626E+03  0.4631E+03
      6.310  0.1703E+03  0.4732E+03
      6.369  0.1479E+03  0.4820E+03
      6.429  0.1289E+03  0.4897E+03
      6.489  0.1304E+03  0.4975E+03
      6.548  0.1391E+03  0.5058E+03
      6.608  0.1454E+03  0.5144E+03
      6.667  0.1399E+03  0.5227E+03
      6.727  0.1447E+03  0.5314E+03
      6.786  0.1737E+03  0.5417E+03
      6.846  0.1738E+03  0.5521E+03
      6.905  0.1450E+03  0.5607E+03
      6.965  0.1403E+03  0.5690E+03
      7.025  0.1588E+03  0.5785E+03
      7.084  0.1714E+03  0.5887E+03
      7.144  0.1700E+03  0.5988E+03
      7.203  0.1609E+03  0.6084E+03
      7.263  0.1503E+03  0.6174E+03
      7.322  0.1424E+03  0.6258E+03
      7.382  0.1309E+03  0.6336E+03
      7.441  0.1180E+03  0.6407E+03
      7.501  0.1173E+03  0.6476E+03
      7.560  0.1216E+03  0.6549E+03
      7.620  0.1105E+03  0.6615E+03
      7.680  0.9286E+02  0.6670E+03
      7.739  0.8581E+02  0.6721E+03
      7.799  0.8413E+02  0.6771E+03
      7.858  0.8371E+02  0.6821E+03
      7.918  0.8995E+02  0.6875E+03
      7.977  0.1015E+03  0.6935E+03
      8.037  0.1130E+03  0.7002E+03
      8.096  0.1037E+03  0.7064E+03
      8.156  0.7159E+02  0.7107E+03
      8.216  0.5471E+02  0.7139E+03
      8.275  0.6618E+02  0.7179E+03
      8.335  0.8295E+02  0.7228E+03
      8.394  0.9312E+02  0.7284E+03
      8.454  0.9845E+02  0.7342E+03
      8.513  0.9429E+02  0.7398E+03
      8.573  0.7596E+02  0.7444E+03
      8.632  0.7115E+02  0.7486E+03
      8.692  0.7049E+02  0.7528E+03
      8.752  0.5413E+02  0.7560E+03
      8.811  0.5244E+02  0.7591E+03
      8.871  0.6585E+02  0.7631E+03
      8.930  0.7805E+02  0.7677E+03
      8.990  0.8741E+02  0.7729E+03
      9.049  0.9782E+02  0.7787E+03
      9.109  0.9792E+02  0.7846E+03
      9.168  0.8169E+02  0.7894E+03
      9.228  0.6300E+02  0.7932E+03
      9.288  0.5645E+02  0.7965E+03
      9.347  0.5496E+02  0.7998E+03
      9.407  0.5914E+02  0.8033E+03
      9.466  0.7166E+02  0.8076E+03
      9.526  0.8012E+02  0.8124E+03
      9.585  0.1047E+03  0.8186E+03
      9.645  0.1261E+03  0.8261E+03
      9.704  0.1073E+03  0.8325E+03
      9.764  0.9343E+02  0.8381E+03
      9.823  0.1198E+03  0.8452E+03
      9.883  0.1314E+03  0.8530E+03
      9.943  0.1122E+03  0.8597E+03
     10.002  0.9238E+02  0.8652E+03
     10.062  0.9918E+02  0.8711E+03
     10.121  0.1145E+03  0.8779E+03
     10.181  0.1247E+03  0.8854E+03
     10.240  0.1448E+03  0.8940E+03
     10.300  0.1615E+03  0.9036E+03
     10.359  0.1656E+03  0.9135E+03
     10.419  0.1605E+03  0.9230E+03
     10.479  0.1504E+03  0.9320E+03
     10.538  0.1692E+03  0.9421E+03
     10.598  0.2095E+03  0.9545E+03
     10.657  0.2045E+03  0.9667E+03
     10.717  0.1662E+03  0.9766E+03
     10.776  0.1491E+03  0.9855E+03
     10.836  0.1373E+03  0.9937E+03
     10.895  0.1286E+03  0.1001E+04
     10.955  0.1204E+03  0.1009E+04
     11.015  0.8771E+02  0.1014E+04
     11.074  0.5099E+02  0.1017E+04
     11.134  0.3042E+02  0.1019E+04
     11.193  0.2200E+02  0.1020E+04
     11.253  0.2107E+02  0.1021E+04
     11.312  0.1842E+02  0.1022E+04
     11.372  0.1202E+02  0.1023E+04
     11.431  0.9892E+01  0.1024E+04
     11.491  0.1049E+02  0.1024E+04
     11.551  0.1073E+02  0.1025E+04
     11.610  0.1086E+02  0.1025E+04
     11.670  0.1238E+02  0.1026E+04
     11.729  0.1449E+02  0.1027E+04
     11.789  0.1385E+02  0.1028E+04
     11.848  0.1051E+02  0.1029E+04
     11.908  0.8098E+01  0.1029E+04
     11.967  0.6816E+01  0.1029E+04
     12.027  0.5220E+01  0.1030E+04
     12.087  0.3536E+01  0.1030E+04
     12.146  0.3113E+01  0.1030E+04
     12.206  0.4545E+01  0.1030E+04
     12.265  0.6838E+01  0.1031E+04
     12.325  0.7955E+01  0.1031E+04
     12.384  0.6945E+01  0.1032E+04
     12.444  0.5986E+01  0.1032E+04
     12.503  0.6259E+01  0.1032E+04
     12.563  0.6571E+01  0.1033E+04
     12.622  0.6414E+01  0.1033E+04
     12.682  0.5874E+01  0.1034E+04
     12.742  0.5288E+01  0.1034E+04
     12.801  0.5516E+01  0.1034E+04
     12.861  0.5693E+01  0.1034E+04
     12.920  0.5438E+01  0.1035E+04
     12.980  0.5460E+01  0.1035E+04
     13.039  0.4808E+01  0.1035E+04
     13.099  0.3693E+01  0.1036E+04
     13.158  0.2968E+01  0.1036E+04
     13.218  0.2479E+01  0.1036E+04
     13.278  0.2259E+01  0.1036E+04
     13.337  0.2422E+01  0.1036E+04
     13.397  0.3224E+01  0.1036E+04
     13.456  0.4579E+01  0.1037E+04
     13.516  0.5695E+01  0.1037E+04
     13.575  0.6350E+01  0.1037E+04
     13.635  0.5613E+01  0.1038E+04
     13.694  0.3492E+01  0.1038E+04
     13.754  0.1912E+01  0.1038E+04
     13.814  0.1623E+01  0.1038E+04
     13.873  0.1816E+01  0.1038E+04
     13.933  0.1676E+01  0.1038E+04
     13.992  0.1361E+01  0.1038E+04
     14.052  0.1385E+01  0.1039E+04
     14.111  0.2062E+01  0.1039E+04
     14.171  0.2358E+01  0.1039E+04
     14.230  0.1546E+01  0.1039E+04
     14.290  0.1009E+01  0.1039E+04
     14.350  0.1657E+01  0.1039E+04
     14.409  0.2721E+01  0.1039E+04
     14.469  0.2847E+01  0.1039E+04
     14.528  0.2126E+01  0.1040E+04
     14.588  0.1381E+01  0.1040E+04
     14.647  0.8868E+00  0.1040E+04
     14.707  0.1068E+01  0.1040E+04
     14.766  0.1143E+01  0.1040E+04
     14.826  0.7328E+00  0.1040E+04
     14.885  0.6564E+00  0.1040E+04
     14.945  0.8600E+00  0.1040E+04
     15.005  0.7088E+00  0.1040E+04
     15.064  0.3567E+00  0.1040E+04
     15.124  0.8141E-01  0.1040E+04
     15.183 -0.1852E-01  0.1040E+04
     15.243 -0.1261E-01  0.1040E+04
     15.302 -0.2053E-02  0.1040E+04
     15.362 -0.1359E-03  0.1040E+04
     15.421 -0.4046E-05  0.1040E+04
     15.481 -0.5629E-07  0.1040E+04
     15.541 -0.3728E-09  0.1040E+04
     15.600 -0.1187E-11  0.1040E+04
     15.660 -0.1939E-14  0.1040E+04
     15.719  0.0000E+00  0.1040E+04
     15.779  0.0000E+00  0.1040E+04
     15.838  0.0000E+00  0.1040E+04
     15.898  0.0000E+00  0.1040E+04
     15.957  0.0000E+00  0.1040E+04
     16.017  0.0000E+00  0.1040E+04
