 256 256   0   0
  0.1419206E+02  0.1537080E-08  0.1537218E-08  0.1537636E-08  0.5000000E-15
  1.000000000000000E-004
  CAR 
 Ir_Ru                                   
     12.68268868     -1.29481418  301      9.24206370      1.00000000
     -1.295  0.0000E+00  0.0000E+00
     -1.248  0.0000E+00  0.0000E+00
     -1.202  0.0000E+00  0.0000E+00
     -1.155  0.0000E+00  0.0000E+00
     -1.108 -0.2736E-28 -0.1275E-29
     -1.062 -0.4078E-25 -0.1901E-26
     -1.015 -0.3921E-22 -0.1829E-23
     -0.969 -0.2434E-19 -0.1136E-20
     -0.922 -0.9746E-17 -0.4552E-18
     -0.875 -0.2443E-14 -0.1143E-15
     -0.829 -0.4052E-12 -0.1900E-13
     -0.782 -0.4328E-10 -0.2035E-11
     -0.736 -0.2979E-08 -0.1408E-09
     -0.689 -0.1322E-06 -0.6300E-08
     -0.643 -0.3790E-05 -0.1829E-06
     -0.596 -0.7035E-04 -0.3461E-05
     -0.549 -0.8482E-03 -0.4298E-04
     -0.503 -0.6644E-02 -0.3525E-03
     -0.456 -0.3341E-01 -0.1909E-02
     -0.410 -0.1018E+00 -0.6650E-02
     -0.363 -0.1380E+00 -0.1308E-01
     -0.316  0.2211E+00 -0.2776E-02
     -0.270  0.1502E+01  0.6722E-01
     -0.223  0.3531E+01  0.2317E+00
     -0.177  0.5066E+01  0.4678E+00
     -0.130  0.5729E+01  0.7347E+00
     -0.083  0.7314E+01  0.1075E+01
     -0.037  0.1018E+02  0.1550E+01
      0.010  0.1103E+02  0.2064E+01
      0.056  0.9158E+01  0.2490E+01
      0.103  0.9365E+01  0.2927E+01
      0.150  0.1313E+02  0.3538E+01
      0.196  0.1591E+02  0.4279E+01
      0.243  0.1605E+02  0.5027E+01
      0.289  0.1672E+02  0.5806E+01
      0.336  0.1848E+02  0.6667E+01
      0.382  0.1835E+02  0.7522E+01
      0.429  0.1743E+02  0.8334E+01
      0.476  0.1977E+02  0.9255E+01
      0.522  0.2335E+02  0.1034E+02
      0.569  0.2406E+02  0.1146E+02
      0.615  0.2230E+02  0.1250E+02
      0.662  0.1877E+02  0.1338E+02
      0.709  0.1413E+02  0.1404E+02
      0.755  0.1116E+02  0.1456E+02
      0.802  0.1071E+02  0.1505E+02
      0.848  0.1114E+02  0.1557E+02
      0.895  0.1215E+02  0.1614E+02
      0.942  0.1461E+02  0.1682E+02
      0.988  0.1828E+02  0.1767E+02
      1.035  0.2281E+02  0.1874E+02
      1.081  0.2802E+02  0.2004E+02
      1.128  0.3124E+02  0.2150E+02
      1.175  0.2978E+02  0.2288E+02
      1.221  0.2593E+02  0.2409E+02
      1.268  0.2307E+02  0.2517E+02
      1.314  0.2097E+02  0.2614E+02
      1.361  0.2002E+02  0.2708E+02
      1.408  0.2160E+02  0.2808E+02
      1.454  0.2406E+02  0.2920E+02
      1.501  0.2564E+02  0.3040E+02
      1.547  0.2888E+02  0.3174E+02
      1.594  0.3499E+02  0.3337E+02
      1.640  0.3870E+02  0.3518E+02
      1.687  0.3785E+02  0.3694E+02
      1.734  0.3916E+02  0.3877E+02
      1.780  0.4538E+02  0.4088E+02
      1.827  0.4933E+02  0.4318E+02
      1.873  0.4786E+02  0.4541E+02
      1.920  0.4725E+02  0.4761E+02
      1.967  0.5081E+02  0.4998E+02
      2.013  0.5407E+02  0.5250E+02
      2.060  0.5540E+02  0.5508E+02
      2.106  0.6112E+02  0.5793E+02
      2.153  0.7422E+02  0.6138E+02
      2.200  0.8909E+02  0.6553E+02
      2.246  0.1028E+03  0.7032E+02
      2.293  0.1175E+03  0.7580E+02
      2.339  0.1308E+03  0.8189E+02
      2.386  0.1382E+03  0.8833E+02
      2.433  0.1432E+03  0.9500E+02
      2.479  0.1522E+03  0.1021E+03
      2.526  0.1609E+03  0.1096E+03
      2.572  0.1618E+03  0.1171E+03
      2.619  0.1614E+03  0.1246E+03
      2.665  0.1689E+03  0.1325E+03
      2.712  0.1784E+03  0.1408E+03
      2.759  0.1846E+03  0.1494E+03
      2.805  0.1974E+03  0.1586E+03
      2.852  0.2223E+03  0.1690E+03
      2.898  0.2472E+03  0.1805E+03
      2.945  0.2564E+03  0.1924E+03
      2.992  0.2500E+03  0.2041E+03
      3.038  0.2468E+03  0.2156E+03
      3.085  0.2618E+03  0.2278E+03
      3.131  0.2861E+03  0.2411E+03
      3.178  0.3010E+03  0.2551E+03
      3.225  0.3036E+03  0.2693E+03
      3.271  0.3048E+03  0.2835E+03
      3.318  0.3083E+03  0.2979E+03
      3.364  0.3111E+03  0.3123E+03
      3.411  0.3144E+03  0.3270E+03
      3.458  0.3216E+03  0.3420E+03
      3.504  0.3332E+03  0.3575E+03
      3.551  0.3439E+03  0.3735E+03
      3.597  0.3469E+03  0.3897E+03
      3.644  0.3450E+03  0.4058E+03
      3.690  0.3486E+03  0.4220E+03
      3.737  0.3576E+03  0.4387E+03
      3.784  0.3595E+03  0.4554E+03
      3.830  0.3526E+03  0.4718E+03
      3.877  0.3480E+03  0.4881E+03
      3.923  0.3497E+03  0.5044E+03
      3.970  0.3507E+03  0.5207E+03
      4.017  0.3419E+03  0.5366E+03
      4.063  0.3233E+03  0.5517E+03
      4.110  0.3070E+03  0.5660E+03
      4.156  0.2977E+03  0.5799E+03
      4.203  0.2877E+03  0.5933E+03
      4.250  0.2717E+03  0.6059E+03
      4.296  0.2540E+03  0.6178E+03
      4.343  0.2428E+03  0.6291E+03
      4.389  0.2450E+03  0.6405E+03
      4.436  0.2575E+03  0.6525E+03
      4.483  0.2618E+03  0.6647E+03
      4.529  0.2508E+03  0.6764E+03
      4.576  0.2473E+03  0.6879E+03
      4.622  0.2666E+03  0.7003E+03
      4.669  0.2917E+03  0.7139E+03
      4.716  0.3069E+03  0.7282E+03
      4.762  0.3137E+03  0.7428E+03
      4.809  0.3136E+03  0.7574E+03
      4.855  0.3053E+03  0.7716E+03
      4.902  0.2906E+03  0.7852E+03
      4.948  0.2786E+03  0.7982E+03
      4.995  0.2808E+03  0.8112E+03
      5.042  0.2949E+03  0.8250E+03
      5.088  0.3078E+03  0.8393E+03
      5.135  0.3094E+03  0.8537E+03
      5.181  0.2980E+03  0.8676E+03
      5.228  0.2859E+03  0.8810E+03
      5.275  0.2845E+03  0.8942E+03
      5.321  0.2903E+03  0.9077E+03
      5.368  0.2972E+03  0.9216E+03
      5.414  0.3018E+03  0.9356E+03
      5.461  0.2988E+03  0.9496E+03
      5.508  0.2889E+03  0.9630E+03
      5.554  0.2865E+03  0.9764E+03
      5.601  0.3020E+03  0.9904E+03
      5.647  0.3211E+03  0.1005E+04
      5.694  0.3253E+03  0.1021E+04
      5.741  0.3203E+03  0.1035E+04
      5.787  0.3198E+03  0.1050E+04
      5.834  0.3261E+03  0.1066E+04
      5.880  0.3365E+03  0.1081E+04
      5.927  0.3497E+03  0.1098E+04
      5.973  0.3648E+03  0.1115E+04
      6.020  0.3785E+03  0.1132E+04
      6.067  0.3854E+03  0.1150E+04
      6.113  0.3875E+03  0.1168E+04
      6.160  0.3915E+03  0.1186E+04
      6.206  0.3983E+03  0.1205E+04
      6.253  0.4091E+03  0.1224E+04
      6.300  0.4268E+03  0.1244E+04
      6.346  0.4461E+03  0.1265E+04
      6.393  0.4571E+03  0.1286E+04
      6.439  0.4571E+03  0.1307E+04
      6.486  0.4532E+03  0.1328E+04
      6.533  0.4501E+03  0.1349E+04
      6.579  0.4458E+03  0.1370E+04
      6.626  0.4393E+03  0.1391E+04
      6.672  0.4320E+03  0.1411E+04
      6.719  0.4250E+03  0.1431E+04
      6.766  0.4174E+03  0.1450E+04
      6.812  0.4022E+03  0.1469E+04
      6.859  0.3775E+03  0.1486E+04
      6.905  0.3548E+03  0.1503E+04
      6.952  0.3445E+03  0.1519E+04
      6.999  0.3396E+03  0.1535E+04
      7.045  0.3282E+03  0.1550E+04
      7.092  0.3151E+03  0.1565E+04
      7.138  0.3133E+03  0.1579E+04
      7.185  0.3192E+03  0.1594E+04
      7.231  0.3139E+03  0.1609E+04
      7.278  0.2885E+03  0.1622E+04
      7.325  0.2568E+03  0.1634E+04
      7.371  0.2403E+03  0.1645E+04
      7.418  0.2481E+03  0.1657E+04
      7.464  0.2705E+03  0.1670E+04
      7.511  0.2845E+03  0.1683E+04
      7.558  0.2770E+03  0.1696E+04
      7.604  0.2590E+03  0.1708E+04
      7.651  0.2484E+03  0.1719E+04
      7.697  0.2565E+03  0.1731E+04
      7.744  0.2819E+03  0.1744E+04
      7.791  0.3049E+03  0.1759E+04
      7.837  0.3120E+03  0.1773E+04
      7.884  0.3090E+03  0.1788E+04
      7.930  0.3033E+03  0.1802E+04
      7.977  0.2963E+03  0.1816E+04
      8.024  0.2912E+03  0.1829E+04
      8.070  0.2955E+03  0.1843E+04
      8.117  0.3088E+03  0.1857E+04
      8.163  0.3169E+03  0.1872E+04
      8.210  0.3176E+03  0.1887E+04
      8.256  0.3291E+03  0.1902E+04
      8.303  0.3528E+03  0.1919E+04
      8.350  0.3625E+03  0.1935E+04
      8.396  0.3412E+03  0.1951E+04
      8.443  0.3016E+03  0.1965E+04
      8.489  0.2678E+03  0.1978E+04
      8.536  0.2556E+03  0.1990E+04
      8.583  0.2700E+03  0.2002E+04
      8.629  0.2948E+03  0.2016E+04
      8.676  0.3004E+03  0.2030E+04
      8.722  0.2845E+03  0.2043E+04
      8.769  0.2678E+03  0.2056E+04
      8.816  0.2573E+03  0.2068E+04
      8.862  0.2495E+03  0.2079E+04
      8.909  0.2454E+03  0.2091E+04
      8.955  0.2453E+03  0.2102E+04
      9.002  0.2528E+03  0.2114E+04
      9.049  0.2725E+03  0.2127E+04
      9.095  0.2840E+03  0.2140E+04
      9.142  0.2670E+03  0.2152E+04
      9.188  0.2416E+03  0.2164E+04
      9.235  0.2287E+03  0.2174E+04
      9.281  0.2204E+03  0.2185E+04
      9.328  0.2140E+03  0.2195E+04
      9.375  0.2212E+03  0.2205E+04
      9.421  0.2414E+03  0.2216E+04
      9.468  0.2615E+03  0.2228E+04
      9.514  0.2732E+03  0.2241E+04
      9.561  0.2772E+03  0.2254E+04
      9.608  0.2764E+03  0.2267E+04
      9.654  0.2713E+03  0.2280E+04
      9.701  0.2615E+03  0.2292E+04
      9.747  0.2447E+03  0.2303E+04
      9.794  0.2250E+03  0.2314E+04
      9.841  0.2193E+03  0.2324E+04
      9.887  0.2356E+03  0.2335E+04
      9.934  0.2628E+03  0.2347E+04
      9.980  0.2935E+03  0.2361E+04
     10.027  0.3258E+03  0.2376E+04
     10.074  0.3485E+03  0.2392E+04
     10.120  0.3470E+03  0.2408E+04
     10.167  0.3249E+03  0.2423E+04
     10.213  0.3101E+03  0.2438E+04
     10.260  0.3273E+03  0.2453E+04
     10.307  0.3837E+03  0.2471E+04
     10.353  0.4629E+03  0.2493E+04
     10.400  0.5174E+03  0.2517E+04
     10.446  0.5109E+03  0.2540E+04
     10.493  0.4538E+03  0.2562E+04
     10.539  0.3775E+03  0.2579E+04
     10.586  0.3051E+03  0.2593E+04
     10.633  0.2502E+03  0.2605E+04
     10.679  0.2139E+03  0.2615E+04
     10.726  0.1826E+03  0.2624E+04
     10.772  0.1441E+03  0.2630E+04
     10.819  0.9951E+02  0.2635E+04
     10.866  0.5806E+02  0.2638E+04
     10.912  0.2801E+02  0.2639E+04
     10.959  0.1084E+02  0.2639E+04
     11.005  0.3470E+01  0.2640E+04
     11.052  0.1782E+01  0.2640E+04
     11.099  0.1989E+01  0.2640E+04
     11.145  0.1702E+01  0.2640E+04
     11.192  0.7242E+00  0.2640E+04
     11.238  0.1851E-01  0.2640E+04
     11.285 -0.1198E+00  0.2640E+04
     11.332 -0.5466E-01  0.2640E+04
     11.378 -0.1212E-01  0.2640E+04
     11.425 -0.3495E-02  0.2640E+04
     11.471 -0.1268E-01  0.2640E+04
     11.518 -0.4162E-01  0.2640E+04
     11.564 -0.3782E-01  0.2640E+04
     11.611  0.1900E+00  0.2640E+04
     11.658  0.7034E+00  0.2640E+04
     11.704  0.1026E+01  0.2640E+04
     11.751  0.7352E+00  0.2640E+04
     11.797  0.2148E+00  0.2640E+04
     11.844 -0.3281E-01  0.2640E+04
     11.891 -0.4354E-01  0.2640E+04
     11.937 -0.1378E-01  0.2640E+04
     11.984 -0.2263E-02  0.2640E+04
     12.030 -0.2178E-03  0.2640E+04
     12.077 -0.1283E-04  0.2640E+04
     12.124 -0.4720E-06  0.2640E+04
     12.170 -0.1098E-07  0.2640E+04
     12.217 -0.1624E-09  0.2640E+04
     12.263 -0.1536E-11  0.2640E+04
     12.310 -0.9234E-14  0.2640E+04
     12.357  0.0000E+00  0.2640E+04
     12.403  0.0000E+00  0.2640E+04
     12.450  0.0000E+00  0.2640E+04
     12.496  0.0000E+00  0.2640E+04
     12.543  0.0000E+00  0.2640E+04
     12.590  0.0000E+00  0.2640E+04
     12.636  0.0000E+00  0.2640E+04
     12.683  0.0000E+00  0.2640E+04
