  40  40   0   0
  0.1375384E+02  0.8378963E-09  0.8378960E-09  0.1608270E-08  0.5000000E-15
  1.000000000000000E-004
  CAR 
 Ir_Ru                                   
     14.34840306     -0.09697513  301      8.78448535      1.00000000
     -0.097  0.0000E+00  0.0000E+00
     -0.049  0.0000E+00  0.0000E+00
     -0.001  0.0000E+00  0.0000E+00
      0.047  0.0000E+00  0.0000E+00
      0.096 -0.1805E-28 -0.8694E-30
      0.144 -0.3206E-25 -0.1544E-26
      0.192 -0.3566E-22 -0.1719E-23
      0.240 -0.2484E-19 -0.1198E-20
      0.288 -0.1082E-16 -0.5223E-18
      0.336 -0.2859E-14 -0.1382E-15
      0.385 -0.4837E-12 -0.2343E-13
      0.433 -0.5100E-10 -0.2479E-11
      0.481 -0.3346E-08 -0.1636E-09
      0.529 -0.1364E-06 -0.6734E-08
      0.577 -0.3454E-05 -0.1730E-06
      0.625 -0.5422E-04 -0.2784E-05
      0.673 -0.5269E-03 -0.2815E-04
      0.722 -0.3131E-02 -0.1789E-03
      0.770 -0.1073E-01 -0.6958E-03
      0.818 -0.1534E-01 -0.1434E-02
      0.866  0.2727E-01 -0.1214E-03
      0.914  0.1661E+00  0.7877E-02
      0.962  0.3428E+00  0.2438E-01
      1.011  0.4964E+00  0.4828E-01
      1.059  0.7962E+00  0.8662E-01
      1.107  0.1283E+01  0.1484E+00
      1.155  0.1549E+01  0.2230E+00
      1.203  0.1355E+01  0.2882E+00
      1.251  0.1134E+01  0.3428E+00
      1.299  0.1350E+01  0.4078E+00
      1.348  0.1725E+01  0.4909E+00
      1.396  0.1754E+01  0.5754E+00
      1.444  0.1626E+01  0.6537E+00
      1.492  0.1786E+01  0.7397E+00
      1.540  0.2136E+01  0.8425E+00
      1.588  0.2551E+01  0.9654E+00
      1.636  0.2997E+01  0.1110E+01
      1.685  0.2951E+01  0.1252E+01
      1.733  0.2362E+01  0.1365E+01
      1.781  0.2097E+01  0.1466E+01
      1.829  0.2551E+01  0.1589E+01
      1.877  0.3056E+01  0.1736E+01
      1.925  0.2998E+01  0.1881E+01
      1.974  0.2603E+01  0.2006E+01
      2.022  0.2457E+01  0.2124E+01
      2.070  0.2975E+01  0.2268E+01
      2.118  0.4029E+01  0.2462E+01
      2.166  0.4728E+01  0.2689E+01
      2.214  0.4536E+01  0.2908E+01
      2.262  0.4018E+01  0.3101E+01
      2.311  0.3675E+01  0.3278E+01
      2.359  0.3679E+01  0.3455E+01
      2.407  0.4240E+01  0.3660E+01
      2.455  0.5023E+01  0.3901E+01
      2.503  0.5457E+01  0.4164E+01
      2.551  0.5911E+01  0.4449E+01
      2.599  0.7712E+01  0.4820E+01
      2.648  0.1202E+02  0.5399E+01
      2.696  0.1798E+02  0.6265E+01
      2.744  0.2296E+02  0.7370E+01
      2.792  0.2670E+02  0.8656E+01
      2.840  0.3194E+02  0.1019E+02
      2.888  0.3837E+02  0.1204E+02
      2.937  0.4350E+02  0.1414E+02
      2.985  0.4799E+02  0.1645E+02
      3.033  0.5229E+02  0.1897E+02
      3.081  0.5434E+02  0.2158E+02
      3.129  0.5385E+02  0.2417E+02
      3.177  0.5303E+02  0.2673E+02
      3.225  0.5387E+02  0.2932E+02
      3.274  0.5728E+02  0.3208E+02
      3.322  0.6282E+02  0.3510E+02
      3.370  0.6794E+02  0.3838E+02
      3.418  0.6979E+02  0.4174E+02
      3.466  0.6784E+02  0.4500E+02
      3.514  0.6471E+02  0.4812E+02
      3.563  0.6303E+02  0.5115E+02
      3.611  0.6253E+02  0.5417E+02
      3.659  0.6182E+02  0.5714E+02
      3.707  0.5937E+02  0.6000E+02
      3.755  0.5469E+02  0.6263E+02
      3.803  0.4946E+02  0.6502E+02
      3.851  0.4564E+02  0.6721E+02
      3.900  0.4466E+02  0.6936E+02
      3.948  0.4606E+02  0.7158E+02
      3.996  0.4703E+02  0.7385E+02
      4.044  0.4537E+02  0.7603E+02
      4.092  0.4131E+02  0.7802E+02
      4.140  0.3774E+02  0.7984E+02
      4.188  0.3845E+02  0.8169E+02
      4.237  0.4467E+02  0.8384E+02
      4.285  0.5381E+02  0.8643E+02
      4.333  0.6071E+02  0.8935E+02
      4.381  0.6211E+02  0.9234E+02
      4.429  0.6025E+02  0.9525E+02
      4.477  0.5828E+02  0.9805E+02
      4.526  0.5621E+02  0.1008E+03
      4.574  0.5404E+02  0.1034E+03
      4.622  0.5189E+02  0.1059E+03
      4.670  0.4877E+02  0.1082E+03
      4.718  0.4547E+02  0.1104E+03
      4.766  0.4447E+02  0.1125E+03
      4.814  0.4680E+02  0.1148E+03
      4.863  0.5131E+02  0.1173E+03
      4.911  0.5539E+02  0.1199E+03
      4.959  0.5754E+02  0.1227E+03
      5.007  0.5895E+02  0.1255E+03
      5.055  0.5969E+02  0.1284E+03
      5.103  0.5782E+02  0.1312E+03
      5.152  0.5433E+02  0.1338E+03
      5.200  0.5282E+02  0.1364E+03
      5.248  0.5335E+02  0.1389E+03
      5.296  0.5271E+02  0.1415E+03
      5.344  0.4968E+02  0.1439E+03
      5.392  0.4533E+02  0.1460E+03
      5.440  0.4011E+02  0.1480E+03
      5.489  0.3337E+02  0.1496E+03
      5.537  0.2604E+02  0.1508E+03
      5.585  0.2247E+02  0.1519E+03
      5.633  0.2599E+02  0.1532E+03
      5.681  0.3447E+02  0.1548E+03
      5.729  0.4416E+02  0.1569E+03
      5.777  0.5434E+02  0.1596E+03
      5.826  0.6426E+02  0.1627E+03
      5.874  0.7050E+02  0.1661E+03
      5.922  0.7198E+02  0.1695E+03
      5.970  0.7235E+02  0.1730E+03
      6.018  0.7449E+02  0.1766E+03
      6.066  0.7542E+02  0.1802E+03
      6.115  0.7099E+02  0.1836E+03
      6.163  0.6352E+02  0.1867E+03
      6.211  0.5843E+02  0.1895E+03
      6.259  0.5620E+02  0.1922E+03
      6.307  0.5448E+02  0.1948E+03
      6.355  0.5391E+02  0.1974E+03
      6.403  0.5607E+02  0.2001E+03
      6.452  0.6013E+02  0.2030E+03
      6.500  0.6420E+02  0.2061E+03
      6.548  0.6750E+02  0.2094E+03
      6.596  0.7053E+02  0.2128E+03
      6.644  0.7286E+02  0.2163E+03
      6.692  0.7244E+02  0.2198E+03
      6.741  0.6896E+02  0.2231E+03
      6.789  0.6471E+02  0.2262E+03
      6.837  0.6095E+02  0.2291E+03
      6.885  0.5747E+02  0.2319E+03
      6.933  0.5499E+02  0.2346E+03
      6.981  0.5497E+02  0.2372E+03
      7.029  0.5765E+02  0.2400E+03
      7.078  0.6156E+02  0.2429E+03
      7.126  0.6500E+02  0.2461E+03
      7.174  0.6689E+02  0.2493E+03
      7.222  0.6736E+02  0.2525E+03
      7.270  0.6681E+02  0.2558E+03
      7.318  0.6523E+02  0.2589E+03
      7.366  0.6334E+02  0.2619E+03
      7.415  0.6141E+02  0.2649E+03
      7.463  0.5866E+02  0.2677E+03
      7.511  0.5567E+02  0.2704E+03
      7.559  0.5362E+02  0.2730E+03
      7.607  0.5211E+02  0.2755E+03
      7.655  0.4979E+02  0.2779E+03
      7.704  0.4566E+02  0.2801E+03
      7.752  0.4061E+02  0.2820E+03
      7.800  0.3691E+02  0.2838E+03
      7.848  0.3598E+02  0.2856E+03
      7.896  0.3799E+02  0.2874E+03
      7.944  0.4121E+02  0.2894E+03
      7.992  0.4247E+02  0.2914E+03
      8.041  0.4047E+02  0.2934E+03
      8.089  0.3784E+02  0.2952E+03
      8.137  0.3773E+02  0.2970E+03
      8.185  0.3928E+02  0.2989E+03
      8.233  0.3912E+02  0.3008E+03
      8.281  0.3676E+02  0.3025E+03
      8.329  0.3519E+02  0.3042E+03
      8.378  0.3598E+02  0.3060E+03
      8.426  0.3708E+02  0.3078E+03
      8.474  0.3639E+02  0.3095E+03
      8.522  0.3428E+02  0.3112E+03
      8.570  0.3264E+02  0.3127E+03
      8.618  0.3245E+02  0.3143E+03
      8.667  0.3274E+02  0.3159E+03
      8.715  0.3340E+02  0.3175E+03
      8.763  0.3559E+02  0.3192E+03
      8.811  0.3719E+02  0.3210E+03
      8.859  0.3540E+02  0.3227E+03
      8.907  0.3272E+02  0.3243E+03
      8.955  0.3169E+02  0.3258E+03
      9.004  0.3103E+02  0.3273E+03
      9.052  0.3098E+02  0.3288E+03
      9.100  0.3281E+02  0.3304E+03
      9.148  0.3508E+02  0.3320E+03
      9.196  0.3616E+02  0.3338E+03
      9.244  0.3636E+02  0.3355E+03
      9.293  0.3669E+02  0.3373E+03
      9.341  0.3801E+02  0.3391E+03
      9.389  0.4018E+02  0.3411E+03
      9.437  0.4251E+02  0.3431E+03
      9.485  0.4532E+02  0.3453E+03
      9.533  0.4851E+02  0.3476E+03
      9.581  0.5040E+02  0.3501E+03
      9.630  0.5016E+02  0.3525E+03
      9.678  0.4940E+02  0.3549E+03
      9.726  0.5016E+02  0.3573E+03
      9.774  0.5258E+02  0.3598E+03
      9.822  0.5590E+02  0.3625E+03
      9.870  0.5957E+02  0.3654E+03
      9.918  0.6248E+02  0.3684E+03
      9.967  0.6407E+02  0.3715E+03
     10.015  0.6578E+02  0.3746E+03
     10.063  0.6853E+02  0.3779E+03
     10.111  0.7130E+02  0.3814E+03
     10.159  0.7299E+02  0.3849E+03
     10.207  0.7237E+02  0.3884E+03
     10.256  0.6761E+02  0.3916E+03
     10.304  0.5826E+02  0.3944E+03
     10.352  0.4590E+02  0.3966E+03
     10.400  0.3200E+02  0.3982E+03
     10.448  0.1818E+02  0.3990E+03
     10.496  0.7423E+01  0.3994E+03
     10.544  0.1664E+01  0.3995E+03
     10.593 -0.1712E+00  0.3995E+03
     10.641 -0.2807E+00  0.3995E+03
     10.689 -0.2303E-01  0.3995E+03
     10.737  0.1698E+00  0.3995E+03
     10.785  0.2801E+00  0.3995E+03
     10.833  0.3090E+00  0.3995E+03
     10.882  0.2068E+00  0.3995E+03
     10.930  0.5835E-01  0.3995E+03
     10.978  0.2549E-01  0.3995E+03
     11.026  0.1309E+00  0.3995E+03
     11.074  0.2313E+00  0.3995E+03
     11.122  0.1914E+00  0.3995E+03
     11.170  0.6860E-01  0.3995E+03
     11.219  0.1195E-01  0.3995E+03
     11.267  0.5895E-01  0.3995E+03
     11.315  0.1164E+00  0.3995E+03
     11.363  0.9154E-01  0.3996E+03
     11.411  0.3783E-01  0.3996E+03
     11.459  0.8127E-01  0.3996E+03
     11.507  0.2193E+00  0.3996E+03
     11.556  0.2886E+00  0.3996E+03
     11.604  0.1892E+00  0.3996E+03
     11.652  0.4534E-01  0.3996E+03
     11.700  0.1178E-01  0.3996E+03
     11.748  0.9246E-01  0.3996E+03
     11.796  0.1817E+00  0.3996E+03
     11.845  0.1805E+00  0.3996E+03
     11.893  0.1359E+00  0.3996E+03
     11.941  0.2180E+00  0.3996E+03
     11.989  0.4517E+00  0.3997E+03
     12.037  0.6444E+00  0.3997E+03
     12.085  0.6418E+00  0.3997E+03
     12.133  0.4461E+00  0.3997E+03
     12.182  0.1945E+00  0.3997E+03
     12.230  0.8807E-01  0.3998E+03
     12.278  0.2002E+00  0.3998E+03
     12.326  0.3526E+00  0.3998E+03
     12.374  0.3372E+00  0.3998E+03
     12.422  0.2280E+00  0.3998E+03
     12.471  0.2098E+00  0.3998E+03
     12.519  0.2327E+00  0.3998E+03
     12.567  0.1865E+00  0.3998E+03
     12.615  0.1316E+00  0.3998E+03
     12.663  0.1078E+00  0.3998E+03
     12.711  0.1139E+00  0.3999E+03
     12.759  0.1961E+00  0.3999E+03
     12.808  0.3308E+00  0.3999E+03
     12.856  0.4241E+00  0.3999E+03
     12.904  0.4033E+00  0.3999E+03
     12.952  0.2935E+00  0.3999E+03
     13.000  0.1920E+00  0.3999E+03
     13.048  0.1284E+00  0.3999E+03
     13.096  0.7401E-01  0.4000E+03
     13.145  0.1907E-01  0.4000E+03
     13.193 -0.1425E-01  0.4000E+03
     13.241  0.2702E-01  0.4000E+03
     13.289  0.1829E+00  0.4000E+03
     13.337  0.3447E+00  0.4000E+03
     13.385  0.3185E+00  0.4000E+03
     13.434  0.1387E+00  0.4000E+03
     13.482  0.8736E-02  0.4000E+03
     13.530 -0.1701E-01  0.4000E+03
     13.578 -0.7469E-02  0.4000E+03
     13.626 -0.1476E-02  0.4000E+03
     13.674 -0.1622E-03  0.4000E+03
     13.722 -0.1052E-04  0.4000E+03
     13.771 -0.4139E-06  0.4000E+03
     13.819 -0.9990E-08  0.4000E+03
     13.867 -0.1491E-09  0.4000E+03
     13.915 -0.1383E-11  0.4000E+03
     13.963 -0.7926E-14  0.4000E+03
     14.011  0.0000E+00  0.4000E+03
     14.059  0.0000E+00  0.4000E+03
     14.108  0.0000E+00  0.4000E+03
     14.156  0.0000E+00  0.4000E+03
     14.204  0.0000E+00  0.4000E+03
     14.252  0.0000E+00  0.4000E+03
     14.300  0.0000E+00  0.4000E+03
     14.348  0.0000E+00  0.4000E+03
