 256 256   0   0
  0.1419206E+02  0.1537080E-08  0.1537218E-08  0.1537636E-08  0.5000000E-15
  1.000000000000000E-004
  CAR 
 Ir_Ru                                   
     12.68816501     -1.29524895  301      9.24214128      1.00000000
     -1.295  0.0000E+00  0.0000E+00
     -1.249  0.0000E+00  0.0000E+00
     -1.202  0.0000E+00  0.0000E+00
     -1.155  0.0000E+00  0.0000E+00
     -1.109 -0.2770E-28 -0.1291E-29
     -1.062 -0.4138E-25 -0.1930E-26
     -1.016 -0.3986E-22 -0.1860E-23
     -0.969 -0.2478E-19 -0.1157E-20
     -0.922 -0.9934E-17 -0.4642E-18
     -0.876 -0.2494E-14 -0.1167E-15
     -0.829 -0.4136E-12 -0.1939E-13
     -0.783 -0.4417E-10 -0.2078E-11
     -0.736 -0.3039E-08 -0.1437E-09
     -0.689 -0.1348E-06 -0.6426E-08
     -0.643 -0.3859E-05 -0.1863E-06
     -0.596 -0.7155E-04 -0.3521E-05
     -0.549 -0.8611E-03 -0.4366E-04
     -0.503 -0.6731E-02 -0.3574E-03
     -0.456 -0.3376E-01 -0.1931E-02
     -0.410 -0.1024E+00 -0.6705E-02
     -0.363 -0.1374E+00 -0.1311E-01
     -0.316  0.2278E+00 -0.2492E-02
     -0.270  0.1519E+01  0.6831E-01
     -0.223  0.3550E+01  0.2338E+00
     -0.177  0.5076E+01  0.4704E+00
     -0.130  0.5738E+01  0.7378E+00
     -0.083  0.7343E+01  0.1080E+01
     -0.037  0.1021E+02  0.1556E+01
      0.010  0.1101E+02  0.2070E+01
      0.056  0.9139E+01  0.2496E+01
      0.103  0.9400E+01  0.2934E+01
      0.150  0.1318E+02  0.3548E+01
      0.196  0.1592E+02  0.4290E+01
      0.243  0.1605E+02  0.5038E+01
      0.290  0.1674E+02  0.5819E+01
      0.336  0.1850E+02  0.6681E+01
      0.383  0.1833E+02  0.7536E+01
      0.429  0.1744E+02  0.8349E+01
      0.476  0.1984E+02  0.9273E+01
      0.523  0.2339E+02  0.1036E+02
      0.569  0.2404E+02  0.1148E+02
      0.616  0.2225E+02  0.1252E+02
      0.662  0.1868E+02  0.1339E+02
      0.709  0.1405E+02  0.1405E+02
      0.756  0.1114E+02  0.1457E+02
      0.802  0.1072E+02  0.1507E+02
      0.849  0.1115E+02  0.1559E+02
      0.895  0.1220E+02  0.1615E+02
      0.942  0.1470E+02  0.1684E+02
      0.989  0.1839E+02  0.1770E+02
      1.035  0.2294E+02  0.1877E+02
      1.082  0.2815E+02  0.2008E+02
      1.129  0.3127E+02  0.2154E+02
      1.175  0.2967E+02  0.2292E+02
      1.222  0.2582E+02  0.2412E+02
      1.268  0.2300E+02  0.2519E+02
      1.315  0.2091E+02  0.2617E+02
      1.362  0.2001E+02  0.2710E+02
      1.408  0.2165E+02  0.2811E+02
      1.455  0.2410E+02  0.2923E+02
      1.501  0.2568E+02  0.3043E+02
      1.548  0.2900E+02  0.3178E+02
      1.595  0.3513E+02  0.3342E+02
      1.641  0.3873E+02  0.3523E+02
      1.688  0.3787E+02  0.3699E+02
      1.734  0.3934E+02  0.3882E+02
      1.781  0.4559E+02  0.4095E+02
      1.828  0.4933E+02  0.4325E+02
      1.874  0.4779E+02  0.4548E+02
      1.921  0.4732E+02  0.4768E+02
      1.968  0.5098E+02  0.5006E+02
      2.014  0.5414E+02  0.5258E+02
      2.061  0.5549E+02  0.5517E+02
      2.107  0.6146E+02  0.5803E+02
      2.154  0.7473E+02  0.6152E+02
      2.201  0.8959E+02  0.6569E+02
      2.247  0.1033E+03  0.7051E+02
      2.294  0.1180E+03  0.7601E+02
      2.340  0.1311E+03  0.8213E+02
      2.387  0.1383E+03  0.8857E+02
      2.434  0.1433E+03  0.9525E+02
      2.480  0.1525E+03  0.1024E+03
      2.527  0.1611E+03  0.1099E+03
      2.573  0.1617E+03  0.1174E+03
      2.620  0.1614E+03  0.1249E+03
      2.667  0.1691E+03  0.1328E+03
      2.713  0.1786E+03  0.1411E+03
      2.760  0.1850E+03  0.1498E+03
      2.807  0.1983E+03  0.1590E+03
      2.853  0.2235E+03  0.1694E+03
      2.900  0.2480E+03  0.1810E+03
      2.946  0.2563E+03  0.1929E+03
      2.993  0.2496E+03  0.2046E+03
      3.040  0.2469E+03  0.2161E+03
      3.086  0.2626E+03  0.2283E+03
      3.133  0.2869E+03  0.2417E+03
      3.179  0.3012E+03  0.2557E+03
      3.226  0.3036E+03  0.2699E+03
      3.273  0.3049E+03  0.2841E+03
      3.319  0.3083E+03  0.2985E+03
      3.366  0.3110E+03  0.3129E+03
      3.413  0.3144E+03  0.3276E+03
      3.459  0.3218E+03  0.3426E+03
      3.506  0.3335E+03  0.3581E+03
      3.552  0.3441E+03  0.3742E+03
      3.599  0.3468E+03  0.3904E+03
      3.646  0.3447E+03  0.4064E+03
      3.692  0.3487E+03  0.4227E+03
      3.739  0.3576E+03  0.4393E+03
      3.785  0.3591E+03  0.4561E+03
      3.832  0.3521E+03  0.4725E+03
      3.879  0.3478E+03  0.4887E+03
      3.925  0.3498E+03  0.5050E+03
      3.972  0.3505E+03  0.5213E+03
      4.018  0.3411E+03  0.5372E+03
      4.065  0.3224E+03  0.5523E+03
      4.112  0.3065E+03  0.5666E+03
      4.158  0.2974E+03  0.5804E+03
      4.205  0.2871E+03  0.5938E+03
      4.252  0.2708E+03  0.6064E+03
      4.298  0.2533E+03  0.6182E+03
      4.345  0.2427E+03  0.6295E+03
      4.391  0.2455E+03  0.6410E+03
      4.438  0.2581E+03  0.6530E+03
      4.485  0.2617E+03  0.6652E+03
      4.531  0.2505E+03  0.6769E+03
      4.578  0.2479E+03  0.6884E+03
      4.624  0.2677E+03  0.7009E+03
      4.671  0.2922E+03  0.7145E+03
      4.718  0.3068E+03  0.7288E+03
      4.764  0.3135E+03  0.7435E+03
      4.811  0.3133E+03  0.7581E+03
      4.857  0.3046E+03  0.7723E+03
      4.904  0.2897E+03  0.7858E+03
      4.951  0.2784E+03  0.7987E+03
      4.997  0.2815E+03  0.8119E+03
      5.044  0.2955E+03  0.8256E+03
      5.091  0.3078E+03  0.8400E+03
      5.137  0.3089E+03  0.8544E+03
      5.184  0.2973E+03  0.8682E+03
      5.230  0.2855E+03  0.8815E+03
      5.277  0.2846E+03  0.8948E+03
      5.324  0.2906E+03  0.9084E+03
      5.370  0.2976E+03  0.9222E+03
      5.417  0.3019E+03  0.9363E+03
      5.463  0.2985E+03  0.9502E+03
      5.510  0.2886E+03  0.9637E+03
      5.557  0.2871E+03  0.9770E+03
      5.603  0.3034E+03  0.9912E+03
      5.650  0.3219E+03  0.1006E+04
      5.696  0.3251E+03  0.1021E+04
      5.743  0.3201E+03  0.1036E+04
      5.790  0.3201E+03  0.1051E+04
      5.836  0.3266E+03  0.1066E+04
      5.883  0.3371E+03  0.1082E+04
      5.930  0.3505E+03  0.1098E+04
      5.976  0.3657E+03  0.1116E+04
      6.023  0.3793E+03  0.1133E+04
      6.069  0.3856E+03  0.1151E+04
      6.116  0.3876E+03  0.1169E+04
      6.163  0.3919E+03  0.1187E+04
      6.209  0.3989E+03  0.1206E+04
      6.256  0.4100E+03  0.1225E+04
      6.302  0.4278E+03  0.1245E+04
      6.349  0.4469E+03  0.1266E+04
      6.396  0.4574E+03  0.1287E+04
      6.442  0.4571E+03  0.1309E+04
      6.489  0.4533E+03  0.1330E+04
      6.535  0.4501E+03  0.1351E+04
      6.582  0.4454E+03  0.1371E+04
      6.629  0.4388E+03  0.1392E+04
      6.675  0.4313E+03  0.1412E+04
      6.722  0.4244E+03  0.1432E+04
      6.769  0.4165E+03  0.1451E+04
      6.815  0.4008E+03  0.1470E+04
      6.862  0.3758E+03  0.1487E+04
      6.908  0.3537E+03  0.1504E+04
      6.955  0.3439E+03  0.1520E+04
      7.002  0.3389E+03  0.1536E+04
      7.048  0.3272E+03  0.1551E+04
      7.095  0.3146E+03  0.1566E+04
      7.141  0.3137E+03  0.1580E+04
      7.188  0.3195E+03  0.1595E+04
      7.235  0.3128E+03  0.1610E+04
      7.281  0.2864E+03  0.1623E+04
      7.328  0.2549E+03  0.1635E+04
      7.374  0.2400E+03  0.1646E+04
      7.421  0.2493E+03  0.1658E+04
      7.468  0.2720E+03  0.1670E+04
      7.514  0.2847E+03  0.1684E+04
      7.561  0.2759E+03  0.1697E+04
      7.608  0.2579E+03  0.1709E+04
      7.654  0.2482E+03  0.1720E+04
      7.701  0.2579E+03  0.1732E+04
      7.747  0.2839E+03  0.1745E+04
      7.794  0.3060E+03  0.1760E+04
      7.841  0.3120E+03  0.1774E+04
      7.887  0.3086E+03  0.1789E+04
      7.934  0.3029E+03  0.1803E+04
      7.980  0.2958E+03  0.1817E+04
      8.027  0.2910E+03  0.1830E+04
      8.074  0.2962E+03  0.1844E+04
      8.120  0.3098E+03  0.1858E+04
      8.167  0.3172E+03  0.1873E+04
      8.213  0.3178E+03  0.1888E+04
      8.260  0.3306E+03  0.1903E+04
      8.307  0.3546E+03  0.1920E+04
      8.353  0.3622E+03  0.1937E+04
      8.400  0.3385E+03  0.1953E+04
      8.447  0.2983E+03  0.1966E+04
      8.493  0.2658E+03  0.1979E+04
      8.540  0.2558E+03  0.1991E+04
      8.586  0.2720E+03  0.2003E+04
      8.633  0.2964E+03  0.2017E+04
      8.680  0.2999E+03  0.2031E+04
      8.726  0.2833E+03  0.2044E+04
      8.773  0.2670E+03  0.2057E+04
      8.819  0.2565E+03  0.2069E+04
      8.866  0.2487E+03  0.2080E+04
      8.913  0.2449E+03  0.2092E+04
      8.959  0.2454E+03  0.2103E+04
      9.006  0.2541E+03  0.2115E+04
      9.052  0.2744E+03  0.2128E+04
      9.099  0.2838E+03  0.2141E+04
      9.146  0.2648E+03  0.2153E+04
      9.192  0.2399E+03  0.2165E+04
      9.239  0.2279E+03  0.2175E+04
      9.286  0.2195E+03  0.2186E+04
      9.332  0.2138E+03  0.2195E+04
      9.379  0.2226E+03  0.2206E+04
      9.425  0.2435E+03  0.2217E+04
      9.472  0.2631E+03  0.2229E+04
      9.519  0.2739E+03  0.2242E+04
      9.565  0.2772E+03  0.2255E+04
      9.612  0.2760E+03  0.2268E+04
      9.658  0.2706E+03  0.2281E+04
      9.705  0.2604E+03  0.2293E+04
      9.752  0.2429E+03  0.2304E+04
      9.798  0.2235E+03  0.2315E+04
      9.845  0.2198E+03  0.2325E+04
      9.891  0.2377E+03  0.2336E+04
      9.938  0.2656E+03  0.2348E+04
      9.985  0.2967E+03  0.2362E+04
     10.031  0.3289E+03  0.2377E+04
     10.078  0.3498E+03  0.2394E+04
     10.125  0.3457E+03  0.2410E+04
     10.171  0.3228E+03  0.2425E+04
     10.218  0.3102E+03  0.2439E+04
     10.264  0.3311E+03  0.2455E+04
     10.311  0.3910E+03  0.2473E+04
     10.358  0.4703E+03  0.2495E+04
     10.404  0.5198E+03  0.2519E+04
     10.451  0.5071E+03  0.2543E+04
     10.497  0.4466E+03  0.2564E+04
     10.544  0.3699E+03  0.2581E+04
     10.591  0.2987E+03  0.2595E+04
     10.637  0.2460E+03  0.2606E+04
     10.684  0.2108E+03  0.2616E+04
     10.730  0.1790E+03  0.2624E+04
     10.777  0.1397E+03  0.2631E+04
     10.824  0.9489E+02  0.2635E+04
     10.870  0.5445E+02  0.2638E+04
     10.917  0.2590E+02  0.2639E+04
     10.964  0.9757E+01  0.2639E+04
     11.010  0.2884E+01  0.2640E+04
     11.057  0.1485E+01  0.2640E+04
     11.103  0.1823E+01  0.2640E+04
     11.150  0.1543E+01  0.2640E+04
     11.197  0.6076E+00  0.2640E+04
     11.243 -0.1308E-01  0.2640E+04
     11.290 -0.1106E+00  0.2640E+04
     11.336 -0.4612E-01  0.2640E+04
     11.383 -0.9715E-02  0.2640E+04
     11.430 -0.3480E-02  0.2640E+04
     11.476 -0.1418E-01  0.2640E+04
     11.523 -0.4379E-01  0.2640E+04
     11.569 -0.3076E-01  0.2640E+04
     11.616  0.2212E+00  0.2640E+04
     11.663  0.7406E+00  0.2640E+04
     11.709  0.1023E+01  0.2640E+04
     11.756  0.6956E+00  0.2640E+04
     11.803  0.1859E+00  0.2640E+04
     11.849 -0.3798E-01  0.2640E+04
     11.896 -0.4108E-01  0.2640E+04
     11.942 -0.1237E-01  0.2640E+04
     11.989 -0.1961E-02  0.2640E+04
     12.036 -0.1832E-03  0.2640E+04
     12.082 -0.1050E-04  0.2640E+04
     12.129 -0.3769E-06  0.2640E+04
     12.175 -0.8562E-08  0.2640E+04
     12.222 -0.1239E-09  0.2640E+04
     12.269 -0.1147E-11  0.2640E+04
     12.315 -0.7146E-14  0.2640E+04
     12.362  0.0000E+00  0.2640E+04
     12.408  0.0000E+00  0.2640E+04
     12.455  0.0000E+00  0.2640E+04
     12.502  0.0000E+00  0.2640E+04
     12.548  0.0000E+00  0.2640E+04
     12.595  0.0000E+00  0.2640E+04
     12.642  0.0000E+00  0.2640E+04
     12.688  0.0000E+00  0.2640E+04
