 256 256   0   0
  0.1418917E+02  0.1588033E-08  0.1692661E-08  0.1693229E-08  0.5000000E-15
  1.000000000000000E-004
  CAR 
 Ir_Ru                                   
     14.33324551     -1.29195098  301      9.45728169      1.00000000
     -1.292  0.0000E+00  0.0000E+00
     -1.240  0.0000E+00  0.0000E+00
     -1.188  0.0000E+00  0.0000E+00
     -1.136 -0.3067E-30 -0.1598E-31
     -1.084 -0.1440E-26 -0.7500E-28
     -1.032 -0.3912E-23 -0.2038E-24
     -0.979 -0.6146E-20 -0.3203E-21
     -0.927 -0.5581E-17 -0.2910E-18
     -0.875 -0.2867E-14 -0.1496E-15
     -0.823 -0.8537E-12 -0.4461E-13
     -0.771 -0.1474E-09 -0.7722E-11
     -0.719 -0.1458E-07 -0.7670E-09
     -0.667 -0.8224E-06 -0.4360E-07
     -0.615 -0.2632E-04 -0.1414E-05
     -0.563 -0.4742E-03 -0.2611E-04
     -0.511 -0.4763E-02 -0.2742E-03
     -0.459 -0.2639E-01 -0.1648E-02
     -0.407 -0.7885E-01 -0.5755E-02
     -0.354 -0.9789E-01 -0.1085E-01
     -0.302  0.2578E+00  0.2571E-02
     -0.250  0.1807E+01  0.9671E-01
     -0.198  0.4612E+01  0.3369E+00
     -0.146  0.6411E+01  0.6709E+00
     -0.094  0.6413E+01  0.1005E+01
     -0.042  0.7087E+01  0.1374E+01
      0.010  0.9062E+01  0.1846E+01
      0.062  0.1141E+02  0.2441E+01
      0.114  0.1381E+02  0.3160E+01
      0.166  0.1421E+02  0.3900E+01
      0.218  0.1135E+02  0.4491E+01
      0.271  0.1023E+02  0.5024E+01
      0.323  0.1502E+02  0.5806E+01
      0.375  0.2084E+02  0.6891E+01
      0.427  0.2254E+02  0.8065E+01
      0.479  0.2278E+02  0.9252E+01
      0.531  0.2354E+02  0.1048E+02
      0.583  0.2221E+02  0.1163E+02
      0.635  0.2033E+02  0.1269E+02
      0.687  0.2115E+02  0.1379E+02
      0.739  0.1983E+02  0.1483E+02
      0.791  0.1358E+02  0.1554E+02
      0.843  0.8399E+01  0.1597E+02
      0.896  0.8336E+01  0.1641E+02
      0.948  0.1262E+02  0.1706E+02
      1.000  0.2034E+02  0.1812E+02
      1.052  0.2915E+02  0.1964E+02
      1.104  0.3371E+02  0.2140E+02
      1.156  0.3258E+02  0.2309E+02
      1.208  0.2778E+02  0.2454E+02
      1.260  0.2189E+02  0.2568E+02
      1.312  0.1947E+02  0.2670E+02
      1.364  0.2263E+02  0.2787E+02
      1.416  0.2811E+02  0.2934E+02
      1.469  0.3044E+02  0.3092E+02
      1.521  0.2960E+02  0.3247E+02
      1.573  0.2948E+02  0.3400E+02
      1.625  0.3065E+02  0.3560E+02
      1.677  0.3118E+02  0.3722E+02
      1.729  0.3245E+02  0.3891E+02
      1.781  0.3580E+02  0.4078E+02
      1.833  0.4021E+02  0.4287E+02
      1.885  0.4744E+02  0.4534E+02
      1.937  0.5640E+02  0.4828E+02
      1.989  0.5894E+02  0.5135E+02
      2.041  0.5308E+02  0.5411E+02
      2.094  0.5131E+02  0.5679E+02
      2.146  0.6678E+02  0.6026E+02
      2.198  0.9299E+02  0.6511E+02
      2.250  0.1122E+03  0.7095E+02
      2.302  0.1213E+03  0.7727E+02
      2.354  0.1272E+03  0.8390E+02
      2.406  0.1330E+03  0.9083E+02
      2.458  0.1395E+03  0.9809E+02
      2.510  0.1510E+03  0.1060E+03
      2.562  0.1696E+03  0.1148E+03
      2.614  0.1867E+03  0.1245E+03
      2.666  0.1975E+03  0.1348E+03
      2.719  0.2112E+03  0.1458E+03
      2.771  0.2274E+03  0.1576E+03
      2.823  0.2296E+03  0.1696E+03
      2.875  0.2236E+03  0.1812E+03
      2.927  0.2320E+03  0.1933E+03
      2.979  0.2501E+03  0.2064E+03
      3.031  0.2592E+03  0.2199E+03
      3.083  0.2599E+03  0.2334E+03
      3.135  0.2612E+03  0.2470E+03
      3.187  0.2661E+03  0.2609E+03
      3.239  0.2770E+03  0.2753E+03
      3.291  0.2938E+03  0.2906E+03
      3.344  0.3136E+03  0.3069E+03
      3.396  0.3279E+03  0.3240E+03
      3.448  0.3308E+03  0.3412E+03
      3.500  0.3259E+03  0.3582E+03
      3.552  0.3198E+03  0.3749E+03
      3.604  0.3178E+03  0.3914E+03
      3.656  0.3149E+03  0.4078E+03
      3.708  0.3085E+03  0.4239E+03
      3.760  0.3034E+03  0.4397E+03
      3.812  0.2996E+03  0.4553E+03
      3.864  0.2953E+03  0.4707E+03
      3.916  0.2922E+03  0.4859E+03
      3.969  0.2849E+03  0.5007E+03
      4.021  0.2711E+03  0.5148E+03
      4.073  0.2675E+03  0.5288E+03
      4.125  0.2828E+03  0.5435E+03
      4.177  0.2991E+03  0.5591E+03
      4.229  0.3036E+03  0.5749E+03
      4.281  0.3072E+03  0.5909E+03
      4.333  0.3153E+03  0.6073E+03
      4.385  0.3201E+03  0.6240E+03
      4.437  0.3223E+03  0.6408E+03
      4.489  0.3236E+03  0.6576E+03
      4.541  0.3172E+03  0.6742E+03
      4.594  0.3040E+03  0.6900E+03
      4.646  0.2943E+03  0.7053E+03
      4.698  0.2947E+03  0.7207E+03
      4.750  0.3011E+03  0.7363E+03
      4.802  0.3102E+03  0.7525E+03
      4.854  0.3241E+03  0.7694E+03
      4.906  0.3350E+03  0.7868E+03
      4.958  0.3400E+03  0.8045E+03
      5.010  0.3507E+03  0.8228E+03
      5.062  0.3628E+03  0.8417E+03
      5.114  0.3660E+03  0.8608E+03
      5.166  0.3612E+03  0.8796E+03
      5.219  0.3472E+03  0.8977E+03
      5.271  0.3211E+03  0.9144E+03
      5.323  0.2841E+03  0.9292E+03
      5.375  0.2408E+03  0.9417E+03
      5.427  0.2003E+03  0.9522E+03
      5.479  0.1755E+03  0.9613E+03
      5.531  0.1772E+03  0.9705E+03
      5.583  0.2059E+03  0.9813E+03
      5.635  0.2504E+03  0.9943E+03
      5.687  0.3007E+03  0.1010E+04
      5.739  0.3481E+03  0.1028E+04
      5.791  0.3831E+03  0.1048E+04
      5.844  0.4038E+03  0.1069E+04
      5.896  0.4153E+03  0.1091E+04
      5.948  0.4228E+03  0.1113E+04
      6.000  0.4281E+03  0.1135E+04
      6.052  0.4242E+03  0.1157E+04
      6.104  0.4040E+03  0.1178E+04
      6.156  0.3800E+03  0.1198E+04
      6.208  0.3652E+03  0.1217E+04
      6.260  0.3575E+03  0.1236E+04
      6.312  0.3546E+03  0.1254E+04
      6.364  0.3623E+03  0.1273E+04
      6.416  0.3775E+03  0.1293E+04
      6.469  0.3840E+03  0.1313E+04
      6.521  0.3865E+03  0.1333E+04
      6.573  0.4011E+03  0.1354E+04
      6.625  0.4189E+03  0.1375E+04
      6.677  0.4273E+03  0.1398E+04
      6.729  0.4275E+03  0.1420E+04
      6.781  0.4198E+03  0.1442E+04
      6.833  0.4017E+03  0.1463E+04
      6.885  0.3800E+03  0.1483E+04
      6.937  0.3682E+03  0.1502E+04
      6.989  0.3646E+03  0.1521E+04
      7.041  0.3641E+03  0.1540E+04
      7.094  0.3799E+03  0.1559E+04
      7.146  0.4069E+03  0.1581E+04
      7.198  0.4209E+03  0.1603E+04
      7.250  0.4228E+03  0.1625E+04
      7.302  0.4187E+03  0.1646E+04
      7.354  0.3995E+03  0.1667E+04
      7.406  0.3696E+03  0.1686E+04
      7.458  0.3459E+03  0.1704E+04
      7.510  0.3343E+03  0.1722E+04
      7.562  0.3303E+03  0.1739E+04
      7.614  0.3229E+03  0.1756E+04
      7.666  0.3043E+03  0.1772E+04
      7.719  0.2832E+03  0.1786E+04
      7.771  0.2711E+03  0.1801E+04
      7.823  0.2653E+03  0.1814E+04
      7.875  0.2600E+03  0.1828E+04
      7.927  0.2517E+03  0.1841E+04
      7.979  0.2439E+03  0.1854E+04
      8.031  0.2431E+03  0.1866E+04
      8.083  0.2416E+03  0.1879E+04
      8.135  0.2338E+03  0.1891E+04
      8.187  0.2287E+03  0.1903E+04
      8.239  0.2315E+03  0.1915E+04
      8.292  0.2367E+03  0.1928E+04
      8.344  0.2389E+03  0.1940E+04
      8.396  0.2381E+03  0.1952E+04
      8.448  0.2320E+03  0.1964E+04
      8.500  0.2215E+03  0.1976E+04
      8.552  0.2136E+03  0.1987E+04
      8.604  0.2088E+03  0.1998E+04
      8.656  0.2022E+03  0.2009E+04
      8.708  0.1941E+03  0.2019E+04
      8.760  0.1854E+03  0.2028E+04
      8.812  0.1796E+03  0.2038E+04
      8.864  0.1839E+03  0.2047E+04
      8.917  0.2050E+03  0.2058E+04
      8.969  0.2309E+03  0.2070E+04
      9.021  0.2381E+03  0.2082E+04
      9.073  0.2276E+03  0.2094E+04
      9.125  0.2115E+03  0.2105E+04
      9.177  0.1921E+03  0.2115E+04
      9.229  0.1788E+03  0.2124E+04
      9.281  0.1902E+03  0.2134E+04
      9.333  0.2210E+03  0.2146E+04
      9.385  0.2414E+03  0.2158E+04
      9.437  0.2432E+03  0.2171E+04
      9.489  0.2443E+03  0.2184E+04
      9.542  0.2451E+03  0.2197E+04
      9.594  0.2441E+03  0.2209E+04
      9.646  0.2651E+03  0.2223E+04
      9.698  0.3086E+03  0.2239E+04
      9.750  0.3347E+03  0.2257E+04
      9.802  0.3293E+03  0.2274E+04
      9.854  0.3179E+03  0.2290E+04
      9.906  0.3150E+03  0.2307E+04
      9.958  0.3195E+03  0.2323E+04
     10.010  0.3371E+03  0.2341E+04
     10.062  0.3719E+03  0.2360E+04
     10.114  0.4076E+03  0.2382E+04
     10.167  0.4265E+03  0.2404E+04
     10.219  0.4345E+03  0.2426E+04
     10.271  0.4458E+03  0.2450E+04
     10.323  0.4643E+03  0.2474E+04
     10.375  0.4870E+03  0.2499E+04
     10.427  0.5086E+03  0.2526E+04
     10.479  0.5174E+03  0.2553E+04
     10.531  0.4928E+03  0.2578E+04
     10.583  0.4299E+03  0.2601E+04
     10.635  0.3413E+03  0.2618E+04
     10.687  0.2306E+03  0.2630E+04
     10.739  0.1129E+03  0.2636E+04
     10.792  0.2826E+02  0.2638E+04
     10.844 -0.3994E+01  0.2638E+04
     10.896 -0.5527E+01  0.2637E+04
     10.948 -0.1811E+01  0.2637E+04
     11.000 -0.3032E+00  0.2637E+04
     11.052 -0.2890E-01  0.2637E+04
     11.104 -0.1627E-02  0.2637E+04
     11.156 -0.5504E-04  0.2637E+04
     11.208 -0.1129E-05  0.2637E+04
     11.260 -0.1408E-07  0.2637E+04
     11.312 -0.1064E-09  0.2637E+04
     11.364 -0.4847E-12  0.2637E+04
     11.417 -0.6483E-13  0.2637E+04
     11.469 -0.1622E-10  0.2637E+04
     11.521 -0.2379E-08  0.2637E+04
     11.573 -0.2009E-06  0.2637E+04
     11.625 -0.9728E-05  0.2637E+04
     11.677 -0.2674E-03  0.2637E+04
     11.729 -0.4097E-02  0.2637E+04
     11.781 -0.3352E-01  0.2637E+04
     11.833 -0.1289E+00  0.2637E+04
     11.885 -0.9274E-01  0.2637E+04
     11.937  0.8433E+00  0.2637E+04
     11.989  0.2666E+01  0.2637E+04
     12.042  0.3379E+01  0.2638E+04
     12.094  0.2709E+01  0.2638E+04
     12.146  0.2532E+01  0.2638E+04
     12.198  0.2238E+01  0.2638E+04
     12.250  0.1449E+01  0.2638E+04
     12.302  0.1543E+01  0.2638E+04
     12.354  0.1851E+01  0.2638E+04
     12.406  0.1550E+01  0.2638E+04
     12.458  0.1861E+01  0.2638E+04
     12.510  0.3054E+01  0.2639E+04
     12.562  0.3642E+01  0.2639E+04
     12.614  0.2714E+01  0.2639E+04
     12.667  0.1608E+01  0.2639E+04
     12.719  0.1970E+01  0.2639E+04
     12.771  0.2812E+01  0.2639E+04
     12.823  0.2516E+01  0.2639E+04
     12.875  0.1901E+01  0.2639E+04
     12.927  0.1834E+01  0.2640E+04
     12.979  0.1436E+01  0.2640E+04
     13.031  0.7882E+00  0.2640E+04
     13.083  0.7105E+00  0.2640E+04
     13.135  0.1008E+01  0.2640E+04
     13.187  0.1158E+01  0.2640E+04
     13.239  0.1082E+01  0.2640E+04
     13.292  0.9798E+00  0.2640E+04
     13.344  0.9607E+00  0.2640E+04
     13.396  0.6821E+00  0.2640E+04
     13.448  0.1948E+00  0.2640E+04
     13.500 -0.3547E-01  0.2640E+04
     13.552 -0.3428E-01  0.2640E+04
     13.604 -0.7985E-02  0.2640E+04
     13.656 -0.8752E-03  0.2640E+04
     13.708 -0.5064E-04  0.2640E+04
     13.760 -0.1613E-05  0.2640E+04
     13.812 -0.2887E-07  0.2640E+04
     13.864 -0.2933E-09  0.2640E+04
     13.917 -0.1703E-11  0.2640E+04
     13.969 -0.5684E-14  0.2640E+04
     14.021  0.0000E+00  0.2640E+04
     14.073  0.0000E+00  0.2640E+04
     14.125  0.0000E+00  0.2640E+04
     14.177  0.0000E+00  0.2640E+04
     14.229  0.0000E+00  0.2640E+04
     14.281  0.0000E+00  0.2640E+04
     14.333  0.0000E+00  0.2640E+04
