 256 256   0   0
  0.1419206E+02  0.1537080E-08  0.1537218E-08  0.1537636E-08  0.5000000E-15
  1.000000000000000E-004
  CAR 
 Ir_Ru                                   
     12.68616562     -1.29483362  301      9.24209219      1.00000000
     -1.295  0.0000E+00  0.0000E+00
     -1.248  0.0000E+00  0.0000E+00
     -1.202  0.0000E+00  0.0000E+00
     -1.155  0.0000E+00  0.0000E+00
     -1.108 -0.2756E-28 -0.1284E-29
     -1.062 -0.4113E-25 -0.1918E-26
     -1.015 -0.3960E-22 -0.1847E-23
     -0.969 -0.2460E-19 -0.1148E-20
     -0.922 -0.9857E-17 -0.4605E-18
     -0.875 -0.2473E-14 -0.1157E-15
     -0.829 -0.4101E-12 -0.1923E-13
     -0.782 -0.4380E-10 -0.2061E-11
     -0.736 -0.3014E-08 -0.1425E-09
     -0.689 -0.1337E-06 -0.6374E-08
     -0.642 -0.3831E-05 -0.1849E-06
     -0.596 -0.7105E-04 -0.3496E-05
     -0.549 -0.8557E-03 -0.4337E-04
     -0.503 -0.6694E-02 -0.3554E-03
     -0.456 -0.3361E-01 -0.1922E-02
     -0.409 -0.1021E+00 -0.6681E-02
     -0.363 -0.1376E+00 -0.1309E-01
     -0.316  0.2250E+00 -0.2609E-02
     -0.270  0.1512E+01  0.6785E-01
     -0.223  0.3542E+01  0.2329E+00
     -0.176  0.5072E+01  0.4693E+00
     -0.130  0.5733E+01  0.7364E+00
     -0.083  0.7328E+01  0.1078E+01
     -0.037  0.1020E+02  0.1553E+01
      0.010  0.1102E+02  0.2067E+01
      0.057  0.9147E+01  0.2493E+01
      0.103  0.9381E+01  0.2930E+01
      0.150  0.1315E+02  0.3543E+01
      0.196  0.1591E+02  0.4285E+01
      0.243  0.1604E+02  0.5032E+01
      0.290  0.1673E+02  0.5812E+01
      0.336  0.1849E+02  0.6673E+01
      0.383  0.1833E+02  0.7527E+01
      0.429  0.1740E+02  0.8338E+01
      0.476  0.1976E+02  0.9259E+01
      0.523  0.2334E+02  0.1035E+02
      0.569  0.2404E+02  0.1147E+02
      0.616  0.2228E+02  0.1251E+02
      0.663  0.1875E+02  0.1338E+02
      0.709  0.1411E+02  0.1404E+02
      0.756  0.1115E+02  0.1456E+02
      0.802  0.1072E+02  0.1506E+02
      0.849  0.1117E+02  0.1558E+02
      0.896  0.1224E+02  0.1615E+02
      0.942  0.1474E+02  0.1683E+02
      0.989  0.1841E+02  0.1769E+02
      1.035  0.2294E+02  0.1876E+02
      1.082  0.2811E+02  0.2007E+02
      1.129  0.3124E+02  0.2153E+02
      1.175  0.2970E+02  0.2291E+02
      1.222  0.2587E+02  0.2412E+02
      1.268  0.2303E+02  0.2519E+02
      1.315  0.2093E+02  0.2616E+02
      1.362  0.2001E+02  0.2710E+02
      1.408  0.2164E+02  0.2811E+02
      1.455  0.2408E+02  0.2923E+02
      1.501  0.2566E+02  0.3042E+02
      1.548  0.2897E+02  0.3177E+02
      1.595  0.3509E+02  0.3341E+02
      1.641  0.3871E+02  0.3521E+02
      1.688  0.3783E+02  0.3698E+02
      1.734  0.3925E+02  0.3880E+02
      1.781  0.4550E+02  0.4092E+02
      1.828  0.4932E+02  0.4322E+02
      1.874  0.4782E+02  0.4545E+02
      1.921  0.4732E+02  0.4766E+02
      1.967  0.5090E+02  0.5003E+02
      2.014  0.5404E+02  0.5255E+02
      2.061  0.5539E+02  0.5513E+02
      2.107  0.6134E+02  0.5799E+02
      2.154  0.7459E+02  0.6146E+02
      2.200  0.8946E+02  0.6563E+02
      2.247  0.1032E+03  0.7044E+02
      2.294  0.1179E+03  0.7594E+02
      2.340  0.1310E+03  0.8204E+02
      2.387  0.1382E+03  0.8848E+02
      2.433  0.1432E+03  0.9516E+02
      2.480  0.1523E+03  0.1023E+03
      2.527  0.1610E+03  0.1098E+03
      2.573  0.1617E+03  0.1173E+03
      2.620  0.1614E+03  0.1248E+03
      2.666  0.1691E+03  0.1327E+03
      2.713  0.1785E+03  0.1410E+03
      2.760  0.1847E+03  0.1496E+03
      2.806  0.1977E+03  0.1588E+03
      2.853  0.2229E+03  0.1692E+03
      2.899  0.2478E+03  0.1808E+03
      2.946  0.2566E+03  0.1927E+03
      2.993  0.2501E+03  0.2044E+03
      3.039  0.2471E+03  0.2159E+03
      3.086  0.2624E+03  0.2281E+03
      3.132  0.2866E+03  0.2415E+03
      3.179  0.3013E+03  0.2555E+03
      3.226  0.3039E+03  0.2697E+03
      3.272  0.3051E+03  0.2839E+03
      3.319  0.3085E+03  0.2983E+03
      3.365  0.3112E+03  0.3128E+03
      3.412  0.3145E+03  0.3274E+03
      3.459  0.3218E+03  0.3424E+03
      3.505  0.3334E+03  0.3580E+03
      3.552  0.3441E+03  0.3740E+03
      3.599  0.3469E+03  0.3902E+03
      3.645  0.3450E+03  0.4062E+03
      3.692  0.3489E+03  0.4225E+03
      3.738  0.3578E+03  0.4392E+03
      3.785  0.3593E+03  0.4559E+03
      3.832  0.3522E+03  0.4723E+03
      3.878  0.3477E+03  0.4885E+03
      3.925  0.3496E+03  0.5048E+03
      3.971  0.3505E+03  0.5212E+03
      4.018  0.3413E+03  0.5371E+03
      4.065  0.3227E+03  0.5521E+03
      4.111  0.3066E+03  0.5664E+03
      4.158  0.2975E+03  0.5803E+03
      4.204  0.2873E+03  0.5937E+03
      4.251  0.2711E+03  0.6063E+03
      4.298  0.2535E+03  0.6181E+03
      4.344  0.2426E+03  0.6294E+03
      4.391  0.2453E+03  0.6408E+03
      4.437  0.2579E+03  0.6529E+03
      4.484  0.2617E+03  0.6651E+03
      4.531  0.2505E+03  0.6767E+03
      4.577  0.2477E+03  0.6883E+03
      4.624  0.2675E+03  0.7007E+03
      4.670  0.2923E+03  0.7144E+03
      4.717  0.3070E+03  0.7287E+03
      4.764  0.3137E+03  0.7433E+03
      4.810  0.3134E+03  0.7579E+03
      4.857  0.3047E+03  0.7721E+03
      4.903  0.2899E+03  0.7856E+03
      4.950  0.2784E+03  0.7986E+03
      4.997  0.2813E+03  0.8117E+03
      5.043  0.2954E+03  0.8255E+03
      5.090  0.3079E+03  0.8398E+03
      5.136  0.3092E+03  0.8542E+03
      5.183  0.2975E+03  0.8681E+03
      5.230  0.2855E+03  0.8814E+03
      5.276  0.2845E+03  0.8946E+03
      5.323  0.2905E+03  0.9082E+03
      5.369  0.2974E+03  0.9220E+03
      5.416  0.3019E+03  0.9361E+03
      5.463  0.2985E+03  0.9500E+03
      5.509  0.2886E+03  0.9635E+03
      5.556  0.2867E+03  0.9768E+03
      5.602  0.3029E+03  0.9910E+03
      5.649  0.3217E+03  0.1006E+04
      5.696  0.3252E+03  0.1021E+04
      5.742  0.3202E+03  0.1036E+04
      5.789  0.3200E+03  0.1051E+04
      5.835  0.3265E+03  0.1066E+04
      5.882  0.3369E+03  0.1082E+04
      5.929  0.3502E+03  0.1098E+04
      5.975  0.3654E+03  0.1115E+04
      6.022  0.3790E+03  0.1133E+04
      6.068  0.3855E+03  0.1151E+04
      6.115  0.3875E+03  0.1169E+04
      6.162  0.3917E+03  0.1187E+04
      6.208  0.3986E+03  0.1206E+04
      6.255  0.4097E+03  0.1225E+04
      6.302  0.4275E+03  0.1245E+04
      6.348  0.4467E+03  0.1266E+04
      6.395  0.4574E+03  0.1287E+04
      6.441  0.4571E+03  0.1308E+04
      6.488  0.4532E+03  0.1329E+04
      6.535  0.4500E+03  0.1350E+04
      6.581  0.4455E+03  0.1371E+04
      6.628  0.4390E+03  0.1391E+04
      6.674  0.4317E+03  0.1412E+04
      6.721  0.4247E+03  0.1431E+04
      6.768  0.4169E+03  0.1451E+04
      6.814  0.4013E+03  0.1470E+04
      6.861  0.3764E+03  0.1487E+04
      6.907  0.3541E+03  0.1504E+04
      6.954  0.3442E+03  0.1520E+04
      7.001  0.3391E+03  0.1535E+04
      7.047  0.3275E+03  0.1551E+04
      7.094  0.3147E+03  0.1565E+04
      7.140  0.3136E+03  0.1580E+04
      7.187  0.3194E+03  0.1595E+04
      7.234  0.3132E+03  0.1609E+04
      7.280  0.2871E+03  0.1623E+04
      7.327  0.2555E+03  0.1635E+04
      7.373  0.2402E+03  0.1646E+04
      7.420  0.2490E+03  0.1658E+04
      7.467  0.2715E+03  0.1670E+04
      7.513  0.2846E+03  0.1683E+04
      7.560  0.2762E+03  0.1696E+04
      7.606  0.2582E+03  0.1708E+04
      7.653  0.2483E+03  0.1720E+04
      7.700  0.2575E+03  0.1732E+04
      7.746  0.2833E+03  0.1745E+04
      7.793  0.3057E+03  0.1759E+04
      7.839  0.3120E+03  0.1774E+04
      7.886  0.3086E+03  0.1788E+04
      7.933  0.3029E+03  0.1802E+04
      7.979  0.2960E+03  0.1816E+04
      8.026  0.2912E+03  0.1830E+04
      8.072  0.2961E+03  0.1844E+04
      8.119  0.3094E+03  0.1858E+04
      8.166  0.3171E+03  0.1873E+04
      8.212  0.3178E+03  0.1888E+04
      8.259  0.3301E+03  0.1903E+04
      8.305  0.3539E+03  0.1919E+04
      8.352  0.3621E+03  0.1936E+04
      8.399  0.3392E+03  0.1952E+04
      8.445  0.2994E+03  0.1966E+04
      8.492  0.2666E+03  0.1979E+04
      8.538  0.2558E+03  0.1990E+04
      8.585  0.2712E+03  0.2003E+04
      8.632  0.2957E+03  0.2017E+04
      8.678  0.3001E+03  0.2031E+04
      8.725  0.2838E+03  0.2044E+04
      8.771  0.2674E+03  0.2057E+04
      8.818  0.2568E+03  0.2068E+04
      8.865  0.2489E+03  0.2080E+04
      8.911  0.2450E+03  0.2092E+04
      8.958  0.2453E+03  0.2103E+04
      9.005  0.2537E+03  0.2115E+04
      9.051  0.2738E+03  0.2128E+04
      9.098  0.2840E+03  0.2141E+04
      9.144  0.2656E+03  0.2153E+04
      9.191  0.2405E+03  0.2164E+04
      9.238  0.2281E+03  0.2175E+04
      9.284  0.2198E+03  0.2185E+04
      9.331  0.2138E+03  0.2195E+04
      9.377  0.2221E+03  0.2206E+04
      9.424  0.2428E+03  0.2217E+04
      9.471  0.2626E+03  0.2229E+04
      9.517  0.2737E+03  0.2242E+04
      9.564  0.2773E+03  0.2255E+04
      9.610  0.2761E+03  0.2268E+04
      9.657  0.2708E+03  0.2280E+04
      9.704  0.2608E+03  0.2292E+04
      9.750  0.2435E+03  0.2304E+04
      9.797  0.2240E+03  0.2314E+04
      9.843  0.2196E+03  0.2324E+04
      9.890  0.2369E+03  0.2335E+04
      9.937  0.2646E+03  0.2348E+04
      9.983  0.2956E+03  0.2362E+04
     10.030  0.3278E+03  0.2377E+04
     10.076  0.3493E+03  0.2393E+04
     10.123  0.3461E+03  0.2409E+04
     10.170  0.3236E+03  0.2424E+04
     10.216  0.3102E+03  0.2439E+04
     10.263  0.3298E+03  0.2454E+04
     10.309  0.3884E+03  0.2472E+04
     10.356  0.4677E+03  0.2494E+04
     10.403  0.5190E+03  0.2518E+04
     10.449  0.5085E+03  0.2542E+04
     10.496  0.4492E+03  0.2563E+04
     10.542  0.3726E+03  0.2580E+04
     10.589  0.3009E+03  0.2594E+04
     10.636  0.2473E+03  0.2606E+04
     10.682  0.2118E+03  0.2616E+04
     10.729  0.1804E+03  0.2624E+04
     10.775  0.1415E+03  0.2631E+04
     10.822  0.9647E+02  0.2635E+04
     10.869  0.5542E+02  0.2638E+04
     10.915  0.2652E+02  0.2639E+04
     10.962  0.1030E+02  0.2639E+04
     11.008  0.3246E+01  0.2640E+04
     11.055  0.1612E+01  0.2640E+04
     11.102  0.1901E+01  0.2640E+04
     11.148  0.1649E+01  0.2640E+04
     11.195  0.6769E+00  0.2640E+04
     11.241  0.3279E-03  0.2640E+04
     11.288 -0.1172E+00  0.2640E+04
     11.335 -0.5063E-01  0.2640E+04
     11.381 -0.1085E-01  0.2640E+04
     11.428 -0.3474E-02  0.2640E+04
     11.474 -0.1349E-01  0.2640E+04
     11.521 -0.4288E-01  0.2640E+04
     11.568 -0.3420E-01  0.2640E+04
     11.614  0.2071E+00  0.2640E+04
     11.661  0.7248E+00  0.2640E+04
     11.707  0.1026E+01  0.2640E+04
     11.754  0.7131E+00  0.2640E+04
     11.801  0.1980E+00  0.2640E+04
     11.847 -0.3606E-01  0.2640E+04
     11.894 -0.4217E-01  0.2640E+04
     11.941 -0.1295E-01  0.2640E+04
     11.987 -0.2081E-02  0.2640E+04
     12.034 -0.1965E-03  0.2640E+04
     12.080 -0.1137E-04  0.2640E+04
     12.127 -0.4116E-06  0.2640E+04
     12.174 -0.9421E-08  0.2640E+04
     12.220 -0.1373E-09  0.2640E+04
     12.267 -0.1279E-11  0.2640E+04
     12.313 -0.7742E-14  0.2640E+04
     12.360  0.0000E+00  0.2640E+04
     12.407  0.0000E+00  0.2640E+04
     12.453  0.0000E+00  0.2640E+04
     12.500  0.0000E+00  0.2640E+04
     12.546  0.0000E+00  0.2640E+04
     12.593  0.0000E+00  0.2640E+04
     12.640  0.0000E+00  0.2640E+04
     12.686  0.0000E+00  0.2640E+04
