 256 256   0   0
  0.1418917E+02  0.1588033E-08  0.1692661E-08  0.1693229E-08  0.5000000E-15
  1.000000000000000E-004
  CAR 
 Ir_Ru                                   
     14.27108252     -1.29197859  301      9.45709004      1.00000000
     -1.292  0.0000E+00  0.0000E+00
     -1.240  0.0000E+00  0.0000E+00
     -1.188  0.0000E+00  0.0000E+00
     -1.136 -0.2775E-30 -0.1439E-31
     -1.084 -0.1269E-26 -0.6584E-28
     -1.033 -0.3374E-23 -0.1751E-24
     -0.981 -0.5210E-20 -0.2705E-21
     -0.929 -0.4670E-17 -0.2425E-18
     -0.877 -0.2368E-14 -0.1231E-15
     -0.825 -0.7056E-12 -0.3672E-13
     -0.773 -0.1218E-09 -0.6358E-11
     -0.721 -0.1211E-07 -0.6346E-09
     -0.669 -0.6897E-06 -0.3642E-07
     -0.618 -0.2239E-04 -0.1198E-05
     -0.566 -0.4112E-03 -0.2253E-04
     -0.514 -0.4232E-02 -0.2421E-03
     -0.462 -0.2415E-01 -0.1495E-02
     -0.410 -0.7491E-01 -0.5381E-02
     -0.358 -0.1022E+00 -0.1068E-01
     -0.306  0.2023E+00 -0.1906E-03
     -0.254  0.1628E+01  0.8426E-01
     -0.203  0.4383E+01  0.3117E+00
     -0.151  0.6350E+01  0.6410E+00
     -0.099  0.6423E+01  0.9743E+00
     -0.047  0.6954E+01  0.1335E+01
      0.005  0.8846E+01  0.1794E+01
      0.057  0.1117E+02  0.2373E+01
      0.109  0.1360E+02  0.3078E+01
      0.161  0.1435E+02  0.3823E+01
      0.212  0.1172E+02  0.4431E+01
      0.264  0.1006E+02  0.4953E+01
      0.316  0.1422E+02  0.5691E+01
      0.368  0.2031E+02  0.6744E+01
      0.420  0.2251E+02  0.7912E+01
      0.472  0.2269E+02  0.9089E+01
      0.524  0.2350E+02  0.1031E+02
      0.576  0.2254E+02  0.1148E+02
      0.627  0.2045E+02  0.1254E+02
      0.679  0.2098E+02  0.1363E+02
      0.731  0.2041E+02  0.1469E+02
      0.783  0.1467E+02  0.1545E+02
      0.835  0.8913E+01  0.1591E+02
      0.887  0.8018E+01  0.1632E+02
      0.939  0.1167E+02  0.1693E+02
      0.991  0.1884E+02  0.1791E+02
      1.042  0.2776E+02  0.1935E+02
      1.094  0.3332E+02  0.2108E+02
      1.146  0.3310E+02  0.2279E+02
      1.198  0.2887E+02  0.2429E+02
      1.250  0.2287E+02  0.2548E+02
      1.302  0.1947E+02  0.2649E+02
      1.354  0.2162E+02  0.2761E+02
      1.406  0.2710E+02  0.2901E+02
      1.457  0.3032E+02  0.3059E+02
      1.509  0.2983E+02  0.3213E+02
      1.561  0.2934E+02  0.3366E+02
      1.613  0.3042E+02  0.3523E+02
      1.665  0.3112E+02  0.3685E+02
      1.717  0.3196E+02  0.3851E+02
      1.769  0.3491E+02  0.4032E+02
      1.821  0.3902E+02  0.4234E+02
      1.873  0.4533E+02  0.4469E+02
      1.924  0.5444E+02  0.4752E+02
      1.976  0.5930E+02  0.5059E+02
      2.028  0.5490E+02  0.5344E+02
      2.080  0.5049E+02  0.5606E+02
      2.132  0.6113E+02  0.5923E+02
      2.184  0.8626E+02  0.6371E+02
      2.236  0.1083E+03  0.6933E+02
      2.288  0.1195E+03  0.7553E+02
      2.339  0.1257E+03  0.8204E+02
      2.391  0.1314E+03  0.8886E+02
      2.443  0.1375E+03  0.9599E+02
      2.495  0.1469E+03  0.1036E+03
      2.547  0.1639E+03  0.1121E+03
      2.599  0.1825E+03  0.1216E+03
      2.651  0.1945E+03  0.1317E+03
      2.703  0.2062E+03  0.1424E+03
      2.754  0.2232E+03  0.1539E+03
      2.806  0.2309E+03  0.1659E+03
      2.858  0.2248E+03  0.1776E+03
      2.910  0.2274E+03  0.1894E+03
      2.962  0.2447E+03  0.2021E+03
      3.014  0.2578E+03  0.2155E+03
      3.066  0.2602E+03  0.2289E+03
      3.118  0.2605E+03  0.2425E+03
      3.169  0.2636E+03  0.2561E+03
      3.221  0.2723E+03  0.2703E+03
      3.273  0.2874E+03  0.2852E+03
      3.325  0.3067E+03  0.3011E+03
      3.377  0.3239E+03  0.3179E+03
      3.429  0.3306E+03  0.3350E+03
      3.481  0.3279E+03  0.3520E+03
      3.533  0.3214E+03  0.3687E+03
      3.584  0.3181E+03  0.3852E+03
      3.636  0.3167E+03  0.4016E+03
      3.688  0.3114E+03  0.4178E+03
      3.740  0.3055E+03  0.4337E+03
      3.792  0.3013E+03  0.4493E+03
      3.844  0.2969E+03  0.4647E+03
      3.896  0.2933E+03  0.4799E+03
      3.948  0.2889E+03  0.4949E+03
      3.999  0.2767E+03  0.5092E+03
      4.051  0.2665E+03  0.5231E+03
      4.103  0.2749E+03  0.5373E+03
      4.155  0.2937E+03  0.5526E+03
      4.207  0.3028E+03  0.5683E+03
      4.259  0.3050E+03  0.5841E+03
      4.311  0.3118E+03  0.6003E+03
      4.363  0.3185E+03  0.6168E+03
      4.414  0.3211E+03  0.6334E+03
      4.466  0.3235E+03  0.6502E+03
      4.518  0.3212E+03  0.6669E+03
      4.570  0.3101E+03  0.6830E+03
      4.622  0.2977E+03  0.6984E+03
      4.674  0.2935E+03  0.7136E+03
      4.726  0.2979E+03  0.7291E+03
      4.778  0.3055E+03  0.7450E+03
      4.829  0.3173E+03  0.7614E+03
      4.881  0.3310E+03  0.7786E+03
      4.933  0.3376E+03  0.7961E+03
      4.985  0.3447E+03  0.8140E+03
      5.037  0.3577E+03  0.8325E+03
      5.089  0.3654E+03  0.8515E+03
      5.141  0.3644E+03  0.8704E+03
      5.193  0.3556E+03  0.8888E+03
      5.245  0.3356E+03  0.9062E+03
      5.296  0.3036E+03  0.9220E+03
      5.348  0.2628E+03  0.9356E+03
      5.400  0.2197E+03  0.9470E+03
      5.452  0.1855E+03  0.9567E+03
      5.504  0.1727E+03  0.9656E+03
      5.556  0.1883E+03  0.9754E+03
      5.608  0.2259E+03  0.9871E+03
      5.660  0.2739E+03  0.1001E+04
      5.711  0.3239E+03  0.1018E+04
      5.763  0.3662E+03  0.1037E+04
      5.815  0.3942E+03  0.1058E+04
      5.867  0.4099E+03  0.1079E+04
      5.919  0.4189E+03  0.1101E+04
      5.971  0.4256E+03  0.1123E+04
      6.023  0.4283E+03  0.1145E+04
      6.075  0.4172E+03  0.1166E+04
      6.126  0.3930E+03  0.1187E+04
      6.178  0.3724E+03  0.1206E+04
      6.230  0.3615E+03  0.1225E+04
      6.282  0.3556E+03  0.1243E+04
      6.334  0.3562E+03  0.1262E+04
      6.386  0.3685E+03  0.1281E+04
      6.438  0.3816E+03  0.1301E+04
      6.490  0.3841E+03  0.1321E+04
      6.541  0.3909E+03  0.1341E+04
      6.593  0.4089E+03  0.1362E+04
      6.645  0.4233E+03  0.1384E+04
      6.697  0.4280E+03  0.1406E+04
      6.749  0.4257E+03  0.1428E+04
      6.801  0.4143E+03  0.1450E+04
      6.853  0.3933E+03  0.1470E+04
      6.905  0.3741E+03  0.1490E+04
      6.956  0.3666E+03  0.1509E+04
      7.008  0.3636E+03  0.1528E+04
      7.060  0.3672E+03  0.1547E+04
      7.112  0.3898E+03  0.1567E+04
      7.164  0.4141E+03  0.1588E+04
      7.216  0.4223E+03  0.1610E+04
      7.268  0.4226E+03  0.1632E+04
      7.320  0.4144E+03  0.1654E+04
      7.371  0.3896E+03  0.1674E+04
      7.423  0.3601E+03  0.1693E+04
      7.475  0.3407E+03  0.1710E+04
      7.527  0.3327E+03  0.1728E+04
      7.579  0.3290E+03  0.1745E+04
      7.631  0.3180E+03  0.1761E+04
      7.683  0.2968E+03  0.1777E+04
      7.735  0.2781E+03  0.1791E+04
      7.786  0.2690E+03  0.1805E+04
      7.838  0.2639E+03  0.1819E+04
      7.890  0.2580E+03  0.1832E+04
      7.942  0.2489E+03  0.1845E+04
      7.994  0.2428E+03  0.1857E+04
      8.046  0.2431E+03  0.1870E+04
      8.098  0.2397E+03  0.1883E+04
      8.150  0.2319E+03  0.1895E+04
      8.201  0.2290E+03  0.1906E+04
      8.253  0.2331E+03  0.1919E+04
      8.305  0.2377E+03  0.1931E+04
      8.357  0.2391E+03  0.1943E+04
      8.409  0.2371E+03  0.1956E+04
      8.461  0.2294E+03  0.1967E+04
      8.513  0.2190E+03  0.1979E+04
      8.565  0.2123E+03  0.1990E+04
      8.617  0.2074E+03  0.2001E+04
      8.668  0.2003E+03  0.2011E+04
      8.720  0.1919E+03  0.2021E+04
      8.772  0.1836E+03  0.2030E+04
      8.824  0.1794E+03  0.2040E+04
      8.876  0.1872E+03  0.2049E+04
      8.928  0.2112E+03  0.2060E+04
      8.980  0.2345E+03  0.2073E+04
      9.032  0.2369E+03  0.2085E+04
      9.083  0.2245E+03  0.2097E+04
      9.135  0.2076E+03  0.2107E+04
      9.187  0.1881E+03  0.2117E+04
      9.239  0.1787E+03  0.2126E+04
      9.291  0.1955E+03  0.2136E+04
      9.343  0.2265E+03  0.2148E+04
      9.395  0.2426E+03  0.2161E+04
      9.447  0.2429E+03  0.2173E+04
      9.498  0.2449E+03  0.2186E+04
      9.550  0.2447E+03  0.2199E+04
      9.602  0.2456E+03  0.2212E+04
      9.654  0.2717E+03  0.2226E+04
      9.706  0.3151E+03  0.2242E+04
      9.758  0.3355E+03  0.2259E+04
      9.810  0.3273E+03  0.2276E+04
      9.862  0.3169E+03  0.2293E+04
      9.913  0.3150E+03  0.2309E+04
      9.965  0.3209E+03  0.2326E+04
     10.017  0.3412E+03  0.2344E+04
     10.069  0.3774E+03  0.2363E+04
     10.121  0.4113E+03  0.2384E+04
     10.173  0.4279E+03  0.2407E+04
     10.225  0.4357E+03  0.2429E+04
     10.277  0.4478E+03  0.2452E+04
     10.328  0.4661E+03  0.2477E+04
     10.380  0.4851E+03  0.2502E+04
     10.432  0.4971E+03  0.2528E+04
     10.484  0.4914E+03  0.2553E+04
     10.536  0.4556E+03  0.2577E+04
     10.588  0.3959E+03  0.2597E+04
     10.640  0.3277E+03  0.2614E+04
     10.692  0.2457E+03  0.2627E+04
     10.743  0.1452E+03  0.2635E+04
     10.795  0.5405E+02  0.2637E+04
     10.847  0.4783E+01  0.2638E+04
     10.899 -0.5757E+01  0.2637E+04
     10.951 -0.2920E+01  0.2637E+04
     11.003 -0.6669E+00  0.2637E+04
     11.055 -0.8982E-01  0.2637E+04
     11.107 -0.7993E-02  0.2637E+04
     11.158 -0.4919E-03  0.2637E+04
     11.210 -0.2034E-04  0.2637E+04
     11.262 -0.5325E-06  0.2637E+04
     11.314 -0.8422E-08  0.2637E+04
     11.366 -0.7849E-10  0.2637E+04
     11.418 -0.5363E-12  0.2637E+04
     11.470 -0.2593E-10  0.2637E+04
     11.522 -0.3521E-08  0.2637E+04
     11.573 -0.2764E-06  0.2637E+04
     11.625 -0.1247E-04  0.2637E+04
     11.677 -0.3195E-03  0.2637E+04
     11.729 -0.4546E-02  0.2637E+04
     11.781 -0.3413E-01  0.2637E+04
     11.833 -0.1152E+00  0.2637E+04
     11.885 -0.2180E-01  0.2637E+04
     11.937  0.8942E+00  0.2637E+04
     11.989  0.2309E+01  0.2637E+04
     12.040  0.2356E+01  0.2637E+04
     12.092  0.1214E+01  0.2637E+04
     12.144  0.1106E+01  0.2638E+04
     12.196  0.1942E+01  0.2638E+04
     12.248  0.2477E+01  0.2638E+04
     12.300  0.2678E+01  0.2638E+04
     12.352  0.2656E+01  0.2638E+04
     12.404  0.2514E+01  0.2638E+04
     12.455  0.2358E+01  0.2638E+04
     12.507  0.2039E+01  0.2638E+04
     12.559  0.2151E+01  0.2638E+04
     12.611  0.2626E+01  0.2639E+04
     12.663  0.2908E+01  0.2639E+04
     12.715  0.3641E+01  0.2639E+04
     12.767  0.3896E+01  0.2639E+04
     12.819  0.2971E+01  0.2639E+04
     12.870  0.2377E+01  0.2639E+04
     12.922  0.2196E+01  0.2640E+04
     12.974  0.1639E+01  0.2640E+04
     13.026  0.1093E+01  0.2640E+04
     13.078  0.8753E+00  0.2640E+04
     13.130  0.7455E+00  0.2640E+04
     13.182  0.9037E+00  0.2640E+04
     13.234  0.1277E+01  0.2640E+04
     13.285  0.1257E+01  0.2640E+04
     13.337  0.7111E+00  0.2640E+04
     13.389  0.1464E+00  0.2640E+04
     13.441 -0.5061E-01  0.2640E+04
     13.493 -0.3397E-01  0.2640E+04
     13.545 -0.7297E-02  0.2640E+04
     13.597 -0.7675E-03  0.2640E+04
     13.649 -0.4328E-04  0.2640E+04
     13.700 -0.1356E-05  0.2640E+04
     13.752 -0.2400E-07  0.2640E+04
     13.804 -0.2425E-09  0.2640E+04
     13.856 -0.1407E-11  0.2640E+04
     13.908 -0.4756E-14  0.2640E+04
     13.960  0.0000E+00  0.2640E+04
     14.012  0.0000E+00  0.2640E+04
     14.064  0.0000E+00  0.2640E+04
     14.115  0.0000E+00  0.2640E+04
     14.167  0.0000E+00  0.2640E+04
     14.219  0.0000E+00  0.2640E+04
     14.271  0.0000E+00  0.2640E+04
