 256 256   0   0
  0.1419206E+02  0.1537080E-08  0.1537218E-08  0.1537636E-08  0.5000000E-15
  1.000000000000000E-004
  CAR 
 Ir_Ru                                   
     12.68351805     -1.29475553  301      9.24206394      1.00000000
     -1.295  0.0000E+00  0.0000E+00
     -1.248  0.0000E+00  0.0000E+00
     -1.202  0.0000E+00  0.0000E+00
     -1.155  0.0000E+00  0.0000E+00
     -1.108 -0.2740E-28 -0.1277E-29
     -1.062 -0.4086E-25 -0.1905E-26
     -1.015 -0.3930E-22 -0.1833E-23
     -0.969 -0.2439E-19 -0.1138E-20
     -0.922 -0.9770E-17 -0.4564E-18
     -0.875 -0.2450E-14 -0.1146E-15
     -0.829 -0.4063E-12 -0.1905E-13
     -0.782 -0.4339E-10 -0.2041E-11
     -0.736 -0.2986E-08 -0.1412E-09
     -0.689 -0.1325E-06 -0.6316E-08
     -0.642 -0.3799E-05 -0.1833E-06
     -0.596 -0.7050E-04 -0.3468E-05
     -0.549 -0.8498E-03 -0.4306E-04
     -0.503 -0.6655E-02 -0.3531E-03
     -0.456 -0.3345E-01 -0.1912E-02
     -0.409 -0.1018E+00 -0.6657E-02
     -0.363 -0.1379E+00 -0.1308E-01
     -0.316  0.2220E+00 -0.2739E-02
     -0.270  0.1504E+01  0.6735E-01
     -0.223  0.3533E+01  0.2320E+00
     -0.176  0.5068E+01  0.4681E+00
     -0.130  0.5729E+01  0.7351E+00
     -0.083  0.7317E+01  0.1076E+01
     -0.037  0.1019E+02  0.1551E+01
      0.010  0.1102E+02  0.2064E+01
      0.056  0.9155E+01  0.2491E+01
      0.103  0.9367E+01  0.2927E+01
      0.150  0.1313E+02  0.3539E+01
      0.196  0.1591E+02  0.4280E+01
      0.243  0.1604E+02  0.5028E+01
      0.289  0.1671E+02  0.5807E+01
      0.336  0.1848E+02  0.6668E+01
      0.383  0.1835E+02  0.7523E+01
      0.429  0.1742E+02  0.8335E+01
      0.476  0.1977E+02  0.9256E+01
      0.522  0.2335E+02  0.1034E+02
      0.569  0.2406E+02  0.1146E+02
      0.616  0.2230E+02  0.1250E+02
      0.662  0.1877E+02  0.1338E+02
      0.709  0.1412E+02  0.1404E+02
      0.755  0.1116E+02  0.1456E+02
      0.802  0.1072E+02  0.1506E+02
      0.849  0.1115E+02  0.1558E+02
      0.895  0.1216E+02  0.1614E+02
      0.942  0.1463E+02  0.1682E+02
      0.988  0.1830E+02  0.1768E+02
      1.035  0.2284E+02  0.1874E+02
      1.082  0.2805E+02  0.2005E+02
      1.128  0.3125E+02  0.2150E+02
      1.175  0.2975E+02  0.2289E+02
      1.221  0.2590E+02  0.2410E+02
      1.268  0.2305E+02  0.2517E+02
      1.315  0.2096E+02  0.2615E+02
      1.361  0.2002E+02  0.2708E+02
      1.408  0.2161E+02  0.2809E+02
      1.454  0.2407E+02  0.2921E+02
      1.501  0.2565E+02  0.3040E+02
      1.547  0.2890E+02  0.3175E+02
      1.594  0.3500E+02  0.3338E+02
      1.641  0.3871E+02  0.3518E+02
      1.687  0.3786E+02  0.3695E+02
      1.734  0.3919E+02  0.3877E+02
      1.780  0.4541E+02  0.4089E+02
      1.827  0.4931E+02  0.4319E+02
      1.874  0.4784E+02  0.4542E+02
      1.920  0.4726E+02  0.4762E+02
      1.967  0.5087E+02  0.4999E+02
      2.013  0.5413E+02  0.5251E+02
      2.060  0.5545E+02  0.5510E+02
      2.107  0.6118E+02  0.5795E+02
      2.153  0.7430E+02  0.6141E+02
      2.200  0.8919E+02  0.6556E+02
      2.246  0.1029E+03  0.7036E+02
      2.293  0.1175E+03  0.7584E+02
      2.340  0.1308E+03  0.8193E+02
      2.386  0.1382E+03  0.8837E+02
      2.433  0.1431E+03  0.9504E+02
      2.479  0.1521E+03  0.1021E+03
      2.526  0.1609E+03  0.1096E+03
      2.573  0.1617E+03  0.1172E+03
      2.619  0.1613E+03  0.1247E+03
      2.666  0.1688E+03  0.1325E+03
      2.712  0.1784E+03  0.1408E+03
      2.759  0.1848E+03  0.1495E+03
      2.806  0.1976E+03  0.1587E+03
      2.852  0.2225E+03  0.1690E+03
      2.899  0.2474E+03  0.1806E+03
      2.945  0.2564E+03  0.1925E+03
      2.992  0.2500E+03  0.2042E+03
      3.039  0.2469E+03  0.2157E+03
      3.085  0.2620E+03  0.2279E+03
      3.132  0.2864E+03  0.2412E+03
      3.178  0.3011E+03  0.2552E+03
      3.225  0.3037E+03  0.2694E+03
      3.271  0.3049E+03  0.2836E+03
      3.318  0.3084E+03  0.2980E+03
      3.365  0.3112E+03  0.3125E+03
      3.411  0.3144E+03  0.3271E+03
      3.458  0.3216E+03  0.3421E+03
      3.504  0.3333E+03  0.3576E+03
      3.551  0.3440E+03  0.3736E+03
      3.598  0.3470E+03  0.3898E+03
      3.644  0.3450E+03  0.4059E+03
      3.691  0.3488E+03  0.4221E+03
      3.737  0.3577E+03  0.4388E+03
      3.784  0.3595E+03  0.4556E+03
      3.831  0.3525E+03  0.4720E+03
      3.877  0.3479E+03  0.4882E+03
      3.924  0.3497E+03  0.5045E+03
      3.970  0.3507E+03  0.5208E+03
      4.017  0.3417E+03  0.5368E+03
      4.064  0.3231E+03  0.5518E+03
      4.110  0.3068E+03  0.5661E+03
      4.157  0.2976E+03  0.5800E+03
      4.203  0.2875E+03  0.5934E+03
      4.250  0.2714E+03  0.6060E+03
      4.297  0.2538E+03  0.6178E+03
      4.343  0.2427E+03  0.6291E+03
      4.390  0.2450E+03  0.6406E+03
      4.436  0.2575E+03  0.6526E+03
      4.483  0.2618E+03  0.6648E+03
      4.530  0.2509E+03  0.6765E+03
      4.576  0.2475E+03  0.6880E+03
      4.623  0.2667E+03  0.7004E+03
      4.669  0.2918E+03  0.7140E+03
      4.716  0.3070E+03  0.7283E+03
      4.762  0.3138E+03  0.7429E+03
      4.809  0.3136E+03  0.7575E+03
      4.856  0.3051E+03  0.7718E+03
      4.902  0.2904E+03  0.7853E+03
      4.949  0.2786E+03  0.7983E+03
      4.995  0.2811E+03  0.8114E+03
      5.042  0.2952E+03  0.8251E+03
      5.089  0.3079E+03  0.8395E+03
      5.135  0.3093E+03  0.8539E+03
      5.182  0.2978E+03  0.8678E+03
      5.228  0.2858E+03  0.8811E+03
      5.275  0.2845E+03  0.8943E+03
      5.322  0.2903E+03  0.9079E+03
      5.368  0.2972E+03  0.9217E+03
      5.415  0.3017E+03  0.9358E+03
      5.461  0.2986E+03  0.9497E+03
      5.508  0.2887E+03  0.9631E+03
      5.555  0.2864E+03  0.9765E+03
      5.601  0.3022E+03  0.9906E+03
      5.648  0.3212E+03  0.1006E+04
      5.694  0.3253E+03  0.1021E+04
      5.741  0.3204E+03  0.1036E+04
      5.788  0.3200E+03  0.1051E+04
      5.834  0.3262E+03  0.1066E+04
      5.881  0.3366E+03  0.1081E+04
      5.927  0.3498E+03  0.1098E+04
      5.974  0.3650E+03  0.1115E+04
      6.021  0.3787E+03  0.1132E+04
      6.067  0.3855E+03  0.1150E+04
      6.114  0.3876E+03  0.1168E+04
      6.160  0.3915E+03  0.1187E+04
      6.207  0.3983E+03  0.1205E+04
      6.254  0.4092E+03  0.1224E+04
      6.300  0.4269E+03  0.1244E+04
      6.347  0.4463E+03  0.1265E+04
      6.393  0.4572E+03  0.1286E+04
      6.440  0.4570E+03  0.1308E+04
      6.486  0.4531E+03  0.1329E+04
      6.533  0.4501E+03  0.1350E+04
      6.580  0.4458E+03  0.1370E+04
      6.626  0.4393E+03  0.1391E+04
      6.673  0.4318E+03  0.1411E+04
      6.719  0.4249E+03  0.1431E+04
      6.766  0.4172E+03  0.1450E+04
      6.813  0.4020E+03  0.1469E+04
      6.859  0.3773E+03  0.1487E+04
      6.906  0.3547E+03  0.1503E+04
      6.952  0.3444E+03  0.1519E+04
      6.999  0.3394E+03  0.1535E+04
      7.046  0.3280E+03  0.1550E+04
      7.092  0.3150E+03  0.1565E+04
      7.139  0.3134E+03  0.1579E+04
      7.185  0.3193E+03  0.1594E+04
      7.232  0.3138E+03  0.1609E+04
      7.279  0.2882E+03  0.1622E+04
      7.325  0.2565E+03  0.1634E+04
      7.372  0.2403E+03  0.1646E+04
      7.418  0.2483E+03  0.1657E+04
      7.465  0.2707E+03  0.1670E+04
      7.512  0.2845E+03  0.1683E+04
      7.558  0.2768E+03  0.1696E+04
      7.605  0.2588E+03  0.1708E+04
      7.651  0.2483E+03  0.1720E+04
      7.698  0.2567E+03  0.1731E+04
      7.745  0.2822E+03  0.1745E+04
      7.791  0.3051E+03  0.1759E+04
      7.838  0.3120E+03  0.1773E+04
      7.884  0.3090E+03  0.1788E+04
      7.931  0.3033E+03  0.1802E+04
      7.977  0.2962E+03  0.1816E+04
      8.024  0.2912E+03  0.1829E+04
      8.071  0.2957E+03  0.1843E+04
      8.117  0.3090E+03  0.1857E+04
      8.164  0.3169E+03  0.1872E+04
      8.210  0.3176E+03  0.1887E+04
      8.257  0.3293E+03  0.1902E+04
      8.304  0.3531E+03  0.1919E+04
      8.350  0.3625E+03  0.1936E+04
      8.397  0.3407E+03  0.1952E+04
      8.443  0.3010E+03  0.1966E+04
      8.490  0.2674E+03  0.1978E+04
      8.537  0.2556E+03  0.1990E+04
      8.583  0.2703E+03  0.2003E+04
      8.630  0.2950E+03  0.2016E+04
      8.676  0.3002E+03  0.2030E+04
      8.723  0.2843E+03  0.2044E+04
      8.770  0.2678E+03  0.2056E+04
      8.816  0.2573E+03  0.2068E+04
      8.863  0.2494E+03  0.2080E+04
      8.909  0.2452E+03  0.2091E+04
      8.956  0.2452E+03  0.2102E+04
      9.003  0.2530E+03  0.2114E+04
      9.049  0.2728E+03  0.2127E+04
      9.096  0.2841E+03  0.2140E+04
      9.142  0.2668E+03  0.2153E+04
      9.189  0.2413E+03  0.2164E+04
      9.236  0.2285E+03  0.2175E+04
      9.282  0.2202E+03  0.2185E+04
      9.329  0.2139E+03  0.2195E+04
      9.375  0.2214E+03  0.2205E+04
      9.422  0.2418E+03  0.2216E+04
      9.469  0.2618E+03  0.2229E+04
      9.515  0.2734E+03  0.2241E+04
      9.562  0.2773E+03  0.2254E+04
      9.608  0.2764E+03  0.2267E+04
      9.655  0.2712E+03  0.2280E+04
      9.701  0.2613E+03  0.2292E+04
      9.748  0.2443E+03  0.2303E+04
      9.795  0.2247E+03  0.2314E+04
      9.841  0.2194E+03  0.2324E+04
      9.888  0.2359E+03  0.2335E+04
      9.934  0.2632E+03  0.2347E+04
      9.981  0.2940E+03  0.2361E+04
     10.028  0.3262E+03  0.2376E+04
     10.074  0.3488E+03  0.2392E+04
     10.121  0.3469E+03  0.2409E+04
     10.167  0.3246E+03  0.2424E+04
     10.214  0.3101E+03  0.2438E+04
     10.261  0.3279E+03  0.2453E+04
     10.307  0.3848E+03  0.2471E+04
     10.354  0.4640E+03  0.2493E+04
     10.400  0.5178E+03  0.2517E+04
     10.447  0.5103E+03  0.2541E+04
     10.494  0.4527E+03  0.2562E+04
     10.540  0.3763E+03  0.2579E+04
     10.587  0.3041E+03  0.2594E+04
     10.633  0.2497E+03  0.2605E+04
     10.680  0.2136E+03  0.2615E+04
     10.727  0.1822E+03  0.2624E+04
     10.773  0.1434E+03  0.2630E+04
     10.820  0.9860E+02  0.2635E+04
     10.866  0.5751E+02  0.2638E+04
     10.913  0.2804E+02  0.2639E+04
     10.960  0.1097E+02  0.2639E+04
     11.006  0.3283E+01  0.2640E+04
     11.053  0.1437E+01  0.2640E+04
     11.099  0.1739E+01  0.2640E+04
     11.146  0.1579E+01  0.2640E+04
     11.193  0.6835E+00  0.2640E+04
     11.239  0.1797E-01  0.2640E+04
     11.286 -0.1124E+00  0.2640E+04
     11.332 -0.5108E-01  0.2640E+04
     11.379 -0.1128E-01  0.2640E+04
     11.425 -0.3402E-02  0.2640E+04
     11.472 -0.1277E-01  0.2640E+04
     11.519 -0.4177E-01  0.2640E+04
     11.565 -0.3744E-01  0.2640E+04
     11.612  0.1920E+00  0.2640E+04
     11.658  0.7060E+00  0.2640E+04
     11.705  0.1026E+01  0.2640E+04
     11.752  0.7325E+00  0.2640E+04
     11.798  0.2127E+00  0.2640E+04
     11.845 -0.3326E-01  0.2640E+04
     11.891 -0.4338E-01  0.2640E+04
     11.938 -0.1367E-01  0.2640E+04
     11.985 -0.2239E-02  0.2640E+04
     12.031 -0.2149E-03  0.2640E+04
     12.078 -0.1262E-04  0.2640E+04
     12.124 -0.4633E-06  0.2640E+04
     12.171 -0.1075E-07  0.2640E+04
     12.218 -0.1586E-09  0.2640E+04
     12.264 -0.1497E-11  0.2640E+04
     12.311 -0.8935E-14  0.2640E+04
     12.357  0.0000E+00  0.2640E+04
     12.404  0.0000E+00  0.2640E+04
     12.451  0.0000E+00  0.2640E+04
     12.497  0.0000E+00  0.2640E+04
     12.544  0.0000E+00  0.2640E+04
     12.590  0.0000E+00  0.2640E+04
     12.637  0.0000E+00  0.2640E+04
     12.684  0.0000E+00  0.2640E+04
