 256 256   0   0
  0.1418917E+02  0.1588033E-08  0.1692661E-08  0.1693229E-08  0.5000000E-15
  1.000000000000000E-004
  CAR 
 Ir_Ru                                   
     14.26661851     -1.29161726  301      9.45685092      1.00000000
     -1.292  0.0000E+00  0.0000E+00
     -1.240  0.0000E+00  0.0000E+00
     -1.188  0.0000E+00  0.0000E+00
     -1.136 -0.2753E-30 -0.1428E-31
     -1.084 -0.1257E-26 -0.6518E-28
     -1.032 -0.3335E-23 -0.1730E-24
     -0.980 -0.5144E-20 -0.2669E-21
     -0.929 -0.4606E-17 -0.2391E-18
     -0.877 -0.2333E-14 -0.1212E-15
     -0.825 -0.6952E-12 -0.3617E-13
     -0.773 -0.1201E-09 -0.6262E-11
     -0.721 -0.1194E-07 -0.6253E-09
     -0.669 -0.6803E-06 -0.3591E-07
     -0.617 -0.2211E-04 -0.1183E-05
     -0.566 -0.4067E-03 -0.2227E-04
     -0.514 -0.4193E-02 -0.2397E-03
     -0.462 -0.2398E-01 -0.1483E-02
     -0.410 -0.7458E-01 -0.5351E-02
     -0.358 -0.1024E+00 -0.1066E-01
     -0.306  0.1982E+00 -0.3853E-03
     -0.254  0.1614E+01  0.8331E-01
     -0.203  0.4364E+01  0.3097E+00
     -0.151  0.6344E+01  0.6386E+00
     -0.099  0.6424E+01  0.9718E+00
     -0.047  0.6942E+01  0.1332E+01
      0.005  0.8825E+01  0.1790E+01
      0.057  0.1114E+02  0.2367E+01
      0.109  0.1358E+02  0.3071E+01
      0.160  0.1436E+02  0.3816E+01
      0.212  0.1176E+02  0.4426E+01
      0.264  0.1004E+02  0.4947E+01
      0.316  0.1414E+02  0.5680E+01
      0.368  0.2025E+02  0.6730E+01
      0.420  0.2250E+02  0.7897E+01
      0.472  0.2268E+02  0.9073E+01
      0.524  0.2349E+02  0.1029E+02
      0.575  0.2257E+02  0.1146E+02
      0.627  0.2045E+02  0.1252E+02
      0.679  0.2095E+02  0.1361E+02
      0.731  0.2046E+02  0.1467E+02
      0.783  0.1480E+02  0.1544E+02
      0.835  0.8990E+01  0.1590E+02
      0.887  0.8002E+01  0.1632E+02
      0.938  0.1159E+02  0.1692E+02
      0.990  0.1872E+02  0.1789E+02
      1.042  0.2765E+02  0.1932E+02
      1.094  0.3326E+02  0.2105E+02
      1.146  0.3312E+02  0.2277E+02
      1.198  0.2896E+02  0.2427E+02
      1.250  0.2298E+02  0.2546E+02
      1.301  0.1949E+02  0.2647E+02
      1.353  0.2156E+02  0.2759E+02
      1.405  0.2704E+02  0.2899E+02
      1.457  0.3032E+02  0.3056E+02
      1.509  0.2984E+02  0.3211E+02
      1.561  0.2933E+02  0.3363E+02
      1.613  0.3043E+02  0.3521E+02
      1.664  0.3114E+02  0.3683E+02
      1.716  0.3197E+02  0.3848E+02
      1.768  0.3489E+02  0.4029E+02
      1.820  0.3890E+02  0.4231E+02
      1.872  0.4513E+02  0.4465E+02
      1.924  0.5428E+02  0.4747E+02
      1.976  0.5937E+02  0.5054E+02
      2.027  0.5511E+02  0.5340E+02
      2.079  0.5049E+02  0.5602E+02
      2.131  0.6071E+02  0.5917E+02
      2.183  0.8561E+02  0.6361E+02
      2.235  0.1079E+03  0.6920E+02
      2.287  0.1193E+03  0.7539E+02
      2.339  0.1256E+03  0.8190E+02
      2.390  0.1314E+03  0.8872E+02
      2.442  0.1375E+03  0.9585E+02
      2.494  0.1468E+03  0.1035E+03
      2.546  0.1635E+03  0.1119E+03
      2.598  0.1820E+03  0.1214E+03
      2.650  0.1943E+03  0.1315E+03
      2.702  0.2059E+03  0.1421E+03
      2.754  0.2228E+03  0.1537E+03
      2.805  0.2308E+03  0.1657E+03
      2.857  0.2248E+03  0.1773E+03
      2.909  0.2270E+03  0.1891E+03
      2.961  0.2443E+03  0.2018E+03
      3.013  0.2577E+03  0.2151E+03
      3.065  0.2602E+03  0.2286E+03
      3.117  0.2607E+03  0.2421E+03
      3.168  0.2639E+03  0.2558E+03
      3.220  0.2725E+03  0.2700E+03
      3.272  0.2872E+03  0.2848E+03
      3.324  0.3064E+03  0.3007E+03
      3.376  0.3237E+03  0.3175E+03
      3.428  0.3307E+03  0.3347E+03
      3.480  0.3282E+03  0.3517E+03
      3.531  0.3219E+03  0.3684E+03
      3.583  0.3183E+03  0.3849E+03
      3.635  0.3167E+03  0.4013E+03
      3.687  0.3115E+03  0.4175E+03
      3.739  0.3055E+03  0.4333E+03
      3.791  0.3013E+03  0.4489E+03
      3.843  0.2971E+03  0.4643E+03
      3.894  0.2935E+03  0.4796E+03
      3.946  0.2891E+03  0.4946E+03
      3.998  0.2770E+03  0.5089E+03
      4.050  0.2665E+03  0.5227E+03
      4.102  0.2744E+03  0.5370E+03
      4.154  0.2931E+03  0.5522E+03
      4.206  0.3027E+03  0.5679E+03
      4.257  0.3051E+03  0.5837E+03
      4.309  0.3117E+03  0.5999E+03
      4.361  0.3185E+03  0.6164E+03
      4.413  0.3212E+03  0.6330E+03
      4.465  0.3235E+03  0.6498E+03
      4.517  0.3213E+03  0.6665E+03
      4.569  0.3104E+03  0.6826E+03
      4.621  0.2978E+03  0.6980E+03
      4.672  0.2935E+03  0.7132E+03
      4.724  0.2977E+03  0.7287E+03
      4.776  0.3052E+03  0.7445E+03
      4.828  0.3168E+03  0.7609E+03
      4.880  0.3307E+03  0.7781E+03
      4.932  0.3375E+03  0.7956E+03
      4.984  0.3444E+03  0.8135E+03
      5.035  0.3575E+03  0.8320E+03
      5.087  0.3656E+03  0.8510E+03
      5.139  0.3647E+03  0.8699E+03
      5.191  0.3561E+03  0.8883E+03
      5.243  0.3364E+03  0.9058E+03
      5.295  0.3048E+03  0.9216E+03
      5.347  0.2643E+03  0.9353E+03
      5.398  0.2210E+03  0.9468E+03
      5.450  0.1861E+03  0.9564E+03
      5.502  0.1724E+03  0.9653E+03
      5.554  0.1872E+03  0.9751E+03
      5.606  0.2243E+03  0.9867E+03
      5.658  0.2722E+03  0.1001E+04
      5.710  0.3223E+03  0.1018E+04
      5.761  0.3651E+03  0.1036E+04
      5.813  0.3936E+03  0.1057E+04
      5.865  0.4095E+03  0.1078E+04
      5.917  0.4186E+03  0.1100E+04
      5.969  0.4253E+03  0.1122E+04
      6.021  0.4283E+03  0.1144E+04
      6.073  0.4178E+03  0.1166E+04
      6.124  0.3939E+03  0.1186E+04
      6.176  0.3731E+03  0.1206E+04
      6.228  0.3619E+03  0.1224E+04
      6.280  0.3557E+03  0.1243E+04
      6.332  0.3560E+03  0.1261E+04
      6.384  0.3680E+03  0.1280E+04
      6.436  0.3814E+03  0.1300E+04
      6.488  0.3841E+03  0.1320E+04
      6.539  0.3904E+03  0.1340E+04
      6.591  0.4084E+03  0.1361E+04
      6.643  0.4233E+03  0.1383E+04
      6.695  0.4281E+03  0.1406E+04
      6.747  0.4257E+03  0.1428E+04
      6.799  0.4146E+03  0.1449E+04
      6.851  0.3940E+03  0.1470E+04
      6.902  0.3746E+03  0.1489E+04
      6.954  0.3669E+03  0.1508E+04
      7.006  0.3640E+03  0.1527E+04
      7.058  0.3669E+03  0.1546E+04
      7.110  0.3885E+03  0.1566E+04
      7.162  0.4131E+03  0.1588E+04
      7.214  0.4220E+03  0.1609E+04
      7.265  0.4225E+03  0.1631E+04
      7.317  0.4150E+03  0.1653E+04
      7.369  0.3909E+03  0.1673E+04
      7.421  0.3612E+03  0.1692E+04
      7.473  0.3415E+03  0.1710E+04
      7.525  0.3330E+03  0.1727E+04
      7.577  0.3292E+03  0.1744E+04
      7.628  0.3186E+03  0.1760E+04
      7.680  0.2979E+03  0.1776E+04
      7.732  0.2789E+03  0.1790E+04
      7.784  0.2693E+03  0.1804E+04
      7.836  0.2641E+03  0.1818E+04
      7.888  0.2583E+03  0.1831E+04
      7.940  0.2494E+03  0.1844E+04
      7.991  0.2430E+03  0.1857E+04
      8.043  0.2432E+03  0.1870E+04
      8.095  0.2400E+03  0.1882E+04
      8.147  0.2321E+03  0.1894E+04
      8.199  0.2289E+03  0.1906E+04
      8.251  0.2328E+03  0.1918E+04
      8.303  0.2374E+03  0.1930E+04
      8.354  0.2391E+03  0.1943E+04
      8.406  0.2375E+03  0.1955E+04
      8.458  0.2298E+03  0.1967E+04
      8.510  0.2194E+03  0.1978E+04
      8.562  0.2126E+03  0.1989E+04
      8.614  0.2078E+03  0.2000E+04
      8.666  0.2007E+03  0.2010E+04
      8.718  0.1923E+03  0.2020E+04
      8.769  0.1839E+03  0.2030E+04
      8.821  0.1794E+03  0.2039E+04
      8.873  0.1864E+03  0.2049E+04
      8.925  0.2098E+03  0.2060E+04
      8.977  0.2338E+03  0.2072E+04
      9.029  0.2372E+03  0.2084E+04
      9.081  0.2252E+03  0.2096E+04
      9.132  0.2086E+03  0.2107E+04
      9.184  0.1892E+03  0.2117E+04
      9.236  0.1786E+03  0.2126E+04
      9.288  0.1940E+03  0.2136E+04
      9.340  0.2252E+03  0.2148E+04
      9.392  0.2425E+03  0.2160E+04
      9.444  0.2430E+03  0.2173E+04
      9.495  0.2445E+03  0.2185E+04
      9.547  0.2446E+03  0.2198E+04
      9.599  0.2450E+03  0.2211E+04
      9.651  0.2696E+03  0.2225E+04
      9.703  0.3130E+03  0.2241E+04
      9.755  0.3353E+03  0.2258E+04
      9.807  0.3280E+03  0.2275E+04
      9.858  0.3173E+03  0.2292E+04
      9.910  0.3151E+03  0.2308E+04
      9.962  0.3203E+03  0.2325E+04
     10.014  0.3394E+03  0.2342E+04
     10.066  0.3750E+03  0.2362E+04
     10.118  0.4097E+03  0.2383E+04
     10.170  0.4273E+03  0.2405E+04
     10.221  0.4351E+03  0.2428E+04
     10.273  0.4466E+03  0.2451E+04
     10.325  0.4642E+03  0.2475E+04
     10.377  0.4826E+03  0.2500E+04
     10.429  0.4939E+03  0.2526E+04
     10.481  0.4887E+03  0.2551E+04
     10.533  0.4556E+03  0.2575E+04
     10.585  0.3987E+03  0.2595E+04
     10.636  0.3332E+03  0.2613E+04
     10.688  0.2548E+03  0.2626E+04
     10.740  0.1567E+03  0.2634E+04
     10.792  0.6300E+02  0.2637E+04
     10.844  0.8282E+01  0.2638E+04
     10.896 -0.5578E+01  0.2637E+04
     10.948 -0.3278E+01  0.2637E+04
     10.999 -0.8106E+00  0.2637E+04
     11.051 -0.1208E+00  0.2637E+04
     11.103 -0.1279E-01  0.2637E+04
     11.155 -0.1006E-02  0.2637E+04
     11.207 -0.5409E-04  0.2637E+04
     11.259 -0.1808E-05  0.2637E+04
     11.311 -0.3577E-07  0.2637E+04
     11.362 -0.4110E-09  0.2637E+04
     11.414 -0.2870E-11  0.2637E+04
     11.466 -0.3072E-10  0.2637E+04
     11.518 -0.3882E-08  0.2637E+04
     11.570 -0.2831E-06  0.2637E+04
     11.622 -0.1186E-04  0.2637E+04
     11.674 -0.2832E-03  0.2637E+04
     11.725 -0.3796E-02  0.2637E+04
     11.777 -0.2743E-01  0.2637E+04
     11.829 -0.9369E-01  0.2637E+04
     11.881 -0.4678E-01  0.2637E+04
     11.933  0.6354E+00  0.2637E+04
     11.985  0.1981E+01  0.2637E+04
     12.037  0.2692E+01  0.2637E+04
     12.088  0.2055E+01  0.2638E+04
     12.140  0.1009E+01  0.2638E+04
     12.192  0.6011E+00  0.2638E+04
     12.244  0.1216E+01  0.2638E+04
     12.296  0.2101E+01  0.2638E+04
     12.348  0.2529E+01  0.2638E+04
     12.400  0.2813E+01  0.2638E+04
     12.451  0.2743E+01  0.2638E+04
     12.503  0.1919E+01  0.2638E+04
     12.555  0.1554E+01  0.2638E+04
     12.607  0.2532E+01  0.2639E+04
     12.659  0.3927E+01  0.2639E+04
     12.711  0.4626E+01  0.2639E+04
     12.763  0.4095E+01  0.2639E+04
     12.815  0.3063E+01  0.2639E+04
     12.866  0.2726E+01  0.2640E+04
     12.918  0.2568E+01  0.2640E+04
     12.970  0.1634E+01  0.2640E+04
     13.022  0.4887E+00  0.2640E+04
     13.074 -0.4190E-01  0.2640E+04
     13.126  0.1657E+00  0.2640E+04
     13.178  0.8084E+00  0.2640E+04
     13.229  0.1298E+01  0.2640E+04
     13.281  0.1240E+01  0.2640E+04
     13.333  0.6983E+00  0.2640E+04
     13.385  0.1466E+00  0.2640E+04
     13.437 -0.4899E-01  0.2640E+04
     13.489 -0.3343E-01  0.2640E+04
     13.541 -0.7200E-02  0.2640E+04
     13.592 -0.7576E-03  0.2640E+04
     13.644 -0.4270E-04  0.2640E+04
     13.696 -0.1337E-05  0.2640E+04
     13.748 -0.2365E-07  0.2640E+04
     13.800 -0.2390E-09  0.2640E+04
     13.852 -0.1386E-11  0.2640E+04
     13.904 -0.4757E-14  0.2640E+04
     13.955  0.0000E+00  0.2640E+04
     14.007  0.0000E+00  0.2640E+04
     14.059  0.0000E+00  0.2640E+04
     14.111  0.0000E+00  0.2640E+04
     14.163  0.0000E+00  0.2640E+04
     14.215  0.0000E+00  0.2640E+04
     14.267  0.0000E+00  0.2640E+04
