 256 256   0   0
  0.1419206E+02  0.1537080E-08  0.1537218E-08  0.1537636E-08  0.5000000E-15
  1.000000000000000E-004
  CAR 
 Ir_Ru                                   
     12.68177040     -1.29496599  301      9.24208140      1.00000000
     -1.295  0.0000E+00  0.0000E+00
     -1.248  0.0000E+00  0.0000E+00
     -1.202  0.0000E+00  0.0000E+00
     -1.155  0.0000E+00  0.0000E+00
     -1.109 -0.2732E-28 -0.1273E-29
     -1.062 -0.4070E-25 -0.1898E-26
     -1.015 -0.3913E-22 -0.1825E-23
     -0.969 -0.2428E-19 -0.1133E-20
     -0.922 -0.9722E-17 -0.4541E-18
     -0.876 -0.2437E-14 -0.1140E-15
     -0.829 -0.4042E-12 -0.1894E-13
     -0.782 -0.4317E-10 -0.2030E-11
     -0.736 -0.2971E-08 -0.1404E-09
     -0.689 -0.1319E-06 -0.6284E-08
     -0.643 -0.3781E-05 -0.1824E-06
     -0.596 -0.7020E-04 -0.3453E-05
     -0.550 -0.8466E-03 -0.4289E-04
     -0.503 -0.6633E-02 -0.3519E-03
     -0.456 -0.3337E-01 -0.1907E-02
     -0.410 -0.1017E+00 -0.6644E-02
     -0.363 -0.1381E+00 -0.1308E-01
     -0.317  0.2203E+00 -0.2812E-02
     -0.270  0.1500E+01  0.6708E-01
     -0.223  0.3528E+01  0.2315E+00
     -0.177  0.5066E+01  0.4675E+00
     -0.130  0.5728E+01  0.7344E+00
     -0.084  0.7311E+01  0.1075E+01
     -0.037  0.1018E+02  0.1549E+01
      0.010  0.1103E+02  0.2063E+01
      0.056  0.9163E+01  0.2490E+01
      0.103  0.9366E+01  0.2926E+01
      0.149  0.1312E+02  0.3538E+01
      0.196  0.1591E+02  0.4279E+01
      0.242  0.1605E+02  0.5027E+01
      0.289  0.1672E+02  0.5806E+01
      0.336  0.1848E+02  0.6667E+01
      0.382  0.1835E+02  0.7522E+01
      0.429  0.1742E+02  0.8333E+01
      0.475  0.1976E+02  0.9254E+01
      0.522  0.2335E+02  0.1034E+02
      0.569  0.2407E+02  0.1146E+02
      0.615  0.2231E+02  0.1250E+02
      0.662  0.1878E+02  0.1338E+02
      0.708  0.1413E+02  0.1404E+02
      0.755  0.1115E+02  0.1455E+02
      0.802  0.1070E+02  0.1505E+02
      0.848  0.1113E+02  0.1557E+02
      0.895  0.1213E+02  0.1614E+02
      0.941  0.1459E+02  0.1682E+02
      0.988  0.1826E+02  0.1767E+02
      1.034  0.2279E+02  0.1873E+02
      1.081  0.2798E+02  0.2003E+02
      1.128  0.3123E+02  0.2149E+02
      1.174  0.2981E+02  0.2288E+02
      1.221  0.2598E+02  0.2409E+02
      1.267  0.2311E+02  0.2516E+02
      1.314  0.2100E+02  0.2614E+02
      1.361  0.2001E+02  0.2708E+02
      1.407  0.2155E+02  0.2808E+02
      1.454  0.2402E+02  0.2920E+02
      1.500  0.2562E+02  0.3039E+02
      1.547  0.2887E+02  0.3174E+02
      1.594  0.3498E+02  0.3337E+02
      1.640  0.3873E+02  0.3517E+02
      1.687  0.3789E+02  0.3694E+02
      1.733  0.3916E+02  0.3876E+02
      1.780  0.4536E+02  0.4087E+02
      1.827  0.4933E+02  0.4317E+02
      1.873  0.4789E+02  0.4540E+02
      1.920  0.4725E+02  0.4760E+02
      1.966  0.5078E+02  0.4997E+02
      2.013  0.5406E+02  0.5249E+02
      2.059  0.5544E+02  0.5507E+02
      2.106  0.6116E+02  0.5792E+02
      2.153  0.7422E+02  0.6138E+02
      2.199  0.8906E+02  0.6553E+02
      2.246  0.1028E+03  0.7032E+02
      2.292  0.1174E+03  0.7579E+02
      2.339  0.1308E+03  0.8188E+02
      2.386  0.1382E+03  0.8832E+02
      2.432  0.1431E+03  0.9498E+02
      2.479  0.1521E+03  0.1021E+03
      2.525  0.1609E+03  0.1096E+03
      2.572  0.1618E+03  0.1171E+03
      2.619  0.1612E+03  0.1246E+03
      2.665  0.1687E+03  0.1325E+03
      2.712  0.1782E+03  0.1408E+03
      2.758  0.1846E+03  0.1494E+03
      2.805  0.1973E+03  0.1586E+03
      2.851  0.2222E+03  0.1689E+03
      2.898  0.2471E+03  0.1804E+03
      2.945  0.2562E+03  0.1924E+03
      2.991  0.2499E+03  0.2040E+03
      3.038  0.2466E+03  0.2155E+03
      3.084  0.2615E+03  0.2277E+03
      3.131  0.2859E+03  0.2410E+03
      3.178  0.3010E+03  0.2550E+03
      3.224  0.3038E+03  0.2692E+03
      3.271  0.3050E+03  0.2834E+03
      3.317  0.3084E+03  0.2978E+03
      3.364  0.3111E+03  0.3123E+03
      3.411  0.3143E+03  0.3269E+03
      3.457  0.3214E+03  0.3419E+03
      3.504  0.3330E+03  0.3574E+03
      3.550  0.3439E+03  0.3734E+03
      3.597  0.3471E+03  0.3896E+03
      3.643  0.3450E+03  0.4057E+03
      3.690  0.3485E+03  0.4219E+03
      3.737  0.3575E+03  0.4386E+03
      3.783  0.3594E+03  0.4553E+03
      3.830  0.3525E+03  0.4717E+03
      3.876  0.3478E+03  0.4879E+03
      3.923  0.3496E+03  0.5042E+03
      3.970  0.3507E+03  0.5206E+03
      4.016  0.3420E+03  0.5365E+03
      4.063  0.3235E+03  0.5516E+03
      4.109  0.3071E+03  0.5659E+03
      4.156  0.2978E+03  0.5797E+03
      4.203  0.2878E+03  0.5931E+03
      4.249  0.2718E+03  0.6058E+03
      4.296  0.2542E+03  0.6177E+03
      4.342  0.2429E+03  0.6290E+03
      4.389  0.2449E+03  0.6404E+03
      4.435  0.2574E+03  0.6524E+03
      4.482  0.2619E+03  0.6646E+03
      4.529  0.2511E+03  0.6763E+03
      4.575  0.2474E+03  0.6878E+03
      4.622  0.2663E+03  0.7002E+03
      4.668  0.2913E+03  0.7138E+03
      4.715  0.3066E+03  0.7281E+03
      4.762  0.3136E+03  0.7427E+03
      4.808  0.3137E+03  0.7573E+03
      4.855  0.3054E+03  0.7715E+03
      4.901  0.2906E+03  0.7850E+03
      4.948  0.2786E+03  0.7980E+03
      4.995  0.2808E+03  0.8111E+03
      5.041  0.2947E+03  0.8248E+03
      5.088  0.3076E+03  0.8392E+03
      5.134  0.3095E+03  0.8536E+03
      5.181  0.2982E+03  0.8675E+03
      5.228  0.2859E+03  0.8808E+03
      5.274  0.2843E+03  0.8940E+03
      5.321  0.2901E+03  0.9076E+03
      5.367  0.2971E+03  0.9214E+03
      5.414  0.3017E+03  0.9355E+03
      5.460  0.2989E+03  0.9494E+03
      5.507  0.2890E+03  0.9628E+03
      5.554  0.2863E+03  0.9762E+03
      5.600  0.3018E+03  0.9902E+03
      5.647  0.3211E+03  0.1005E+04
      5.693  0.3254E+03  0.1020E+04
      5.740  0.3204E+03  0.1035E+04
      5.787  0.3198E+03  0.1050E+04
      5.833  0.3259E+03  0.1065E+04
      5.880  0.3363E+03  0.1081E+04
      5.926  0.3496E+03  0.1097E+04
      5.973  0.3647E+03  0.1114E+04
      6.020  0.3784E+03  0.1132E+04
      6.066  0.3852E+03  0.1150E+04
      6.113  0.3874E+03  0.1168E+04
      6.159  0.3914E+03  0.1186E+04
      6.206  0.3983E+03  0.1205E+04
      6.252  0.4090E+03  0.1224E+04
      6.299  0.4265E+03  0.1244E+04
      6.346  0.4458E+03  0.1264E+04
      6.392  0.4571E+03  0.1286E+04
      6.439  0.4573E+03  0.1307E+04
      6.485  0.4534E+03  0.1328E+04
      6.532  0.4502E+03  0.1349E+04
      6.579  0.4458E+03  0.1370E+04
      6.625  0.4395E+03  0.1390E+04
      6.672  0.4322E+03  0.1411E+04
      6.718  0.4252E+03  0.1430E+04
      6.765  0.4175E+03  0.1450E+04
      6.812  0.4025E+03  0.1469E+04
      6.858  0.3778E+03  0.1486E+04
      6.905  0.3550E+03  0.1503E+04
      6.951  0.3444E+03  0.1519E+04
      6.998  0.3395E+03  0.1535E+04
      7.044  0.3283E+03  0.1550E+04
      7.091  0.3151E+03  0.1565E+04
      7.138  0.3132E+03  0.1579E+04
      7.184  0.3192E+03  0.1594E+04
      7.231  0.3142E+03  0.1609E+04
      7.277  0.2890E+03  0.1622E+04
      7.324  0.2571E+03  0.1634E+04
      7.371  0.2403E+03  0.1645E+04
      7.417  0.2479E+03  0.1657E+04
      7.464  0.2702E+03  0.1669E+04
      7.510  0.2845E+03  0.1683E+04
      7.557  0.2772E+03  0.1696E+04
      7.604  0.2592E+03  0.1708E+04
      7.650  0.2484E+03  0.1719E+04
      7.697  0.2563E+03  0.1731E+04
      7.743  0.2815E+03  0.1744E+04
      7.790  0.3047E+03  0.1758E+04
      7.837  0.3120E+03  0.1773E+04
      7.883  0.3090E+03  0.1787E+04
      7.930  0.3034E+03  0.1802E+04
      7.976  0.2964E+03  0.1815E+04
      8.023  0.2912E+03  0.1829E+04
      8.069  0.2953E+03  0.1843E+04
      8.116  0.3086E+03  0.1857E+04
      8.163  0.3169E+03  0.1872E+04
      8.209  0.3175E+03  0.1887E+04
      8.256  0.3287E+03  0.1902E+04
      8.302  0.3526E+03  0.1918E+04
      8.349  0.3628E+03  0.1935E+04
      8.396  0.3416E+03  0.1951E+04
      8.442  0.3019E+03  0.1965E+04
      8.489  0.2681E+03  0.1978E+04
      8.535  0.2555E+03  0.1990E+04
      8.582  0.2696E+03  0.2002E+04
      8.629  0.2946E+03  0.2016E+04
      8.675  0.3006E+03  0.2030E+04
      8.722  0.2850E+03  0.2043E+04
      8.768  0.2682E+03  0.2056E+04
      8.815  0.2574E+03  0.2068E+04
      8.861  0.2494E+03  0.2079E+04
      8.908  0.2452E+03  0.2091E+04
      8.955  0.2451E+03  0.2102E+04
      9.001  0.2526E+03  0.2114E+04
      9.048  0.2723E+03  0.2127E+04
      9.094  0.2842E+03  0.2140E+04
      9.141  0.2676E+03  0.2152E+04
      9.188  0.2419E+03  0.2164E+04
      9.234  0.2288E+03  0.2174E+04
      9.281  0.2204E+03  0.2184E+04
      9.327  0.2139E+03  0.2194E+04
      9.374  0.2209E+03  0.2205E+04
      9.421  0.2412E+03  0.2216E+04
      9.467  0.2614E+03  0.2228E+04
      9.514  0.2732E+03  0.2241E+04
      9.560  0.2772E+03  0.2254E+04
      9.607  0.2764E+03  0.2267E+04
      9.653  0.2714E+03  0.2279E+04
      9.700  0.2617E+03  0.2292E+04
      9.747  0.2450E+03  0.2303E+04
      9.793  0.2252E+03  0.2313E+04
      9.840  0.2191E+03  0.2324E+04
      9.886  0.2351E+03  0.2335E+04
      9.933  0.2624E+03  0.2347E+04
      9.980  0.2932E+03  0.2360E+04
     10.026  0.3254E+03  0.2376E+04
     10.073  0.3484E+03  0.2392E+04
     10.119  0.3473E+03  0.2408E+04
     10.166  0.3254E+03  0.2423E+04
     10.213  0.3102E+03  0.2438E+04
     10.259  0.3268E+03  0.2453E+04
     10.306  0.3825E+03  0.2471E+04
     10.352  0.4616E+03  0.2492E+04
     10.399  0.5170E+03  0.2516E+04
     10.445  0.5116E+03  0.2540E+04
     10.492  0.4551E+03  0.2561E+04
     10.539  0.3789E+03  0.2579E+04
     10.585  0.3063E+03  0.2593E+04
     10.632  0.2509E+03  0.2605E+04
     10.678  0.2144E+03  0.2615E+04
     10.725  0.1832E+03  0.2623E+04
     10.772  0.1452E+03  0.2630E+04
     10.818  0.1005E+03  0.2635E+04
     10.865  0.5881E+02  0.2638E+04
     10.911  0.2852E+02  0.2639E+04
     10.958  0.1084E+02  0.2639E+04
     11.005  0.2993E+01  0.2640E+04
     11.051  0.1308E+01  0.2640E+04
     11.098  0.1770E+01  0.2640E+04
     11.144  0.1658E+01  0.2640E+04
     11.191  0.7375E+00  0.2640E+04
     11.238  0.3282E-01  0.2640E+04
     11.284 -0.1150E+00  0.2640E+04
     11.331 -0.5403E-01  0.2640E+04
     11.377 -0.1213E-01  0.2640E+04
     11.424 -0.3496E-02  0.2640E+04
     11.470 -0.1262E-01  0.2640E+04
     11.517 -0.4150E-01  0.2640E+04
     11.564 -0.3811E-01  0.2640E+04
     11.610  0.1885E+00  0.2640E+04
     11.657  0.7014E+00  0.2640E+04
     11.703  0.1026E+01  0.2640E+04
     11.750  0.7372E+00  0.2640E+04
     11.797  0.2165E+00  0.2640E+04
     11.843 -0.3245E-01  0.2640E+04
     11.890 -0.4367E-01  0.2640E+04
     11.936 -0.1387E-01  0.2640E+04
     11.983 -0.2283E-02  0.2640E+04
     12.030 -0.2202E-03  0.2640E+04
     12.076 -0.1299E-04  0.2640E+04
     12.123 -0.4792E-06  0.2640E+04
     12.169 -0.1117E-07  0.2640E+04
     12.216 -0.1656E-09  0.2640E+04
     12.262 -0.1570E-11  0.2640E+04
     12.309 -0.9532E-14  0.2640E+04
     12.356  0.0000E+00  0.2640E+04
     12.402  0.0000E+00  0.2640E+04
     12.449  0.0000E+00  0.2640E+04
     12.495  0.0000E+00  0.2640E+04
     12.542  0.0000E+00  0.2640E+04
     12.589  0.0000E+00  0.2640E+04
     12.635  0.0000E+00  0.2640E+04
     12.682  0.0000E+00  0.2640E+04
