  64  64   0   0
  0.1449377E+02  0.1160995E-08  0.1160995E-08  0.1094850E-08  0.5000000E-15
  1.000000000000000E-004
  CAR 
 Ir_Ru                                   
     15.49577465     -1.77441993  301      9.84435546      1.00000000
     -1.774  0.0000E+00  0.0000E+00
     -1.717  0.0000E+00  0.0000E+00
     -1.659  0.0000E+00  0.0000E+00
     -1.602  0.0000E+00  0.0000E+00
     -1.544  0.0000E+00  0.0000E+00
     -1.487  0.0000E+00  0.0000E+00
     -1.429  0.0000E+00  0.0000E+00
     -1.371  0.0000E+00  0.0000E+00
     -1.314  0.0000E+00  0.0000E+00
     -1.256  0.0000E+00  0.0000E+00
     -1.199  0.0000E+00  0.0000E+00
     -1.141  0.0000E+00  0.0000E+00
     -1.084  0.0000E+00  0.0000E+00
     -1.026  0.0000E+00  0.0000E+00
     -0.968  0.0000E+00  0.0000E+00
     -0.911  0.0000E+00  0.0000E+00
     -0.853  0.0000E+00  0.0000E+00
     -0.796  0.0000E+00  0.0000E+00
     -0.738  0.1269E+00  0.1532E-02
     -0.681  0.7797E+00  0.2607E-01
     -0.623  0.1314E+01  0.8764E-01
     -0.566  0.1584E+01  0.1720E+00
     -0.508  0.1880E+01  0.2708E+00
     -0.450  0.2603E+01  0.4004E+00
     -0.393  0.2773E+01  0.5584E+00
     -0.335  0.2610E+01  0.7151E+00
     -0.278  0.2538E+01  0.8635E+00
     -0.220  0.2505E+01  0.1007E+01
     -0.163  0.2367E+01  0.1146E+01
     -0.105  0.3595E+01  0.1317E+01
     -0.047  0.4203E+01  0.1544E+01
      0.010  0.4545E+01  0.1797E+01
      0.068  0.4442E+01  0.2057E+01
      0.125  0.4523E+01  0.2341E+01
      0.183  0.3482E+01  0.2563E+01
      0.240  0.3180E+01  0.2753E+01
      0.298  0.2926E+01  0.2933E+01
      0.356  0.3311E+01  0.3115E+01
      0.413  0.3658E+01  0.3312E+01
      0.471  0.5164E+01  0.3569E+01
      0.528  0.6396E+01  0.3914E+01
      0.586  0.6940E+01  0.4309E+01
      0.643  0.5897E+01  0.4675E+01
      0.701  0.5806E+01  0.5015E+01
      0.759  0.6212E+01  0.5349E+01
      0.816  0.6689E+01  0.5743E+01
      0.874  0.6003E+01  0.6103E+01
      0.931  0.5917E+01  0.6442E+01
      0.989  0.6017E+01  0.6783E+01
      1.046  0.6387E+01  0.7124E+01
      1.104  0.7337E+01  0.7521E+01
      1.162  0.6914E+01  0.7925E+01
      1.219  0.9195E+01  0.8375E+01
      1.277  0.6464E+01  0.8829E+01
      1.334  0.1019E+02  0.9260E+01
      1.392  0.8009E+01  0.9774E+01
      1.449  0.8358E+01  0.1023E+02
      1.507  0.8602E+01  0.1074E+02
      1.564  0.9708E+01  0.1125E+02
      1.622  0.1079E+02  0.1185E+02
      1.680  0.9911E+01  0.1241E+02
      1.737  0.1049E+02  0.1303E+02
      1.795  0.1208E+02  0.1371E+02
      1.852  0.1209E+02  0.1440E+02
      1.910  0.1320E+02  0.1512E+02
      1.967  0.1414E+02  0.1593E+02
      2.025  0.1564E+02  0.1678E+02
      2.083  0.1987E+02  0.1778E+02
      2.140  0.2847E+02  0.1923E+02
      2.198  0.2933E+02  0.2093E+02
      2.255  0.2779E+02  0.2255E+02
      2.313  0.3215E+02  0.2418E+02
      2.370  0.3699E+02  0.2616E+02
      2.428  0.4036E+02  0.2840E+02
      2.486  0.4142E+02  0.3089E+02
      2.543  0.4108E+02  0.3296E+02
      2.601  0.4231E+02  0.3555E+02
      2.658  0.4594E+02  0.3819E+02
      2.716  0.5180E+02  0.4126E+02
      2.773  0.5896E+02  0.4420E+02
      2.831  0.5742E+02  0.4783E+02
      2.889  0.5103E+02  0.5151E+02
      2.946  0.6199E+02  0.5504E+02
      3.004  0.7040E+02  0.5882E+02
      3.061  0.7601E+02  0.6321E+02
      3.119  0.7154E+02  0.6735E+02
      3.176  0.7925E+02  0.7175E+02
      3.234  0.8368E+02  0.7675E+02
      3.292  0.7744E+02  0.8119E+02
      3.349  0.8471E+02  0.8584E+02
      3.407  0.8387E+02  0.9047E+02
      3.464  0.8457E+02  0.9548E+02
      3.522  0.7092E+02  0.1000E+03
      3.579  0.7659E+02  0.1044E+03
      3.637  0.8048E+02  0.1089E+03
      3.694  0.6950E+02  0.1132E+03
      3.752  0.7207E+02  0.1172E+03
      3.810  0.8679E+02  0.1217E+03
      3.867  0.6735E+02  0.1262E+03
      3.925  0.7269E+02  0.1303E+03
      3.982  0.7525E+02  0.1347E+03
      4.040  0.7274E+02  0.1389E+03
      4.097  0.6418E+02  0.1429E+03
      4.155  0.5902E+02  0.1465E+03
      4.213  0.5545E+02  0.1498E+03
      4.270  0.6088E+02  0.1531E+03
      4.328  0.5809E+02  0.1567E+03
      4.385  0.4785E+02  0.1597E+03
      4.443  0.6014E+02  0.1627E+03
      4.500  0.5106E+02  0.1659E+03
      4.558  0.6259E+02  0.1695E+03
      4.616  0.7111E+02  0.1733E+03
      4.673  0.6361E+02  0.1771E+03
      4.731  0.8319E+02  0.1808E+03
      4.788  0.7086E+02  0.1853E+03
      4.846  0.7802E+02  0.1896E+03
      4.903  0.7473E+02  0.1939E+03
      4.961  0.6871E+02  0.1983E+03
      5.019  0.7186E+02  0.2025E+03
      5.076  0.6270E+02  0.2062E+03
      5.134  0.7014E+02  0.2101E+03
      5.191  0.7562E+02  0.2144E+03
      5.249  0.7480E+02  0.2187E+03
      5.306  0.8724E+02  0.2233E+03
      5.364  0.8787E+02  0.2286E+03
      5.421  0.7934E+02  0.2334E+03
      5.479  0.6572E+02  0.2373E+03
      5.537  0.6968E+02  0.2411E+03
      5.594  0.8058E+02  0.2452E+03
      5.652  0.8893E+02  0.2503E+03
      5.709  0.8492E+02  0.2554E+03
      5.767  0.8081E+02  0.2601E+03
      5.824  0.8236E+02  0.2648E+03
      5.882  0.8682E+02  0.2697E+03
      5.940  0.8273E+02  0.2745E+03
      5.997  0.9810E+02  0.2798E+03
      6.055  0.9631E+02  0.2857E+03
      6.112  0.9830E+02  0.2913E+03
      6.170  0.9005E+02  0.2969E+03
      6.227  0.9182E+02  0.3025E+03
      6.285  0.1117E+03  0.3084E+03
      6.343  0.1213E+03  0.3150E+03
      6.400  0.1052E+03  0.3217E+03
      6.458  0.1046E+03  0.3278E+03
      6.515  0.1151E+03  0.3341E+03
      6.573  0.1190E+03  0.3406E+03
      6.630  0.1226E+03  0.3477E+03
      6.688  0.1211E+03  0.3546E+03
      6.746  0.1179E+03  0.3616E+03
      6.803  0.9597E+02  0.3679E+03
      6.861  0.8140E+02  0.3727E+03
      6.918  0.8675E+02  0.3775E+03
      6.976  0.6917E+02  0.3820E+03
      7.033  0.7163E+02  0.3859E+03
      7.091  0.8909E+02  0.3901E+03
      7.149  0.8253E+02  0.3947E+03
      7.206  0.7206E+02  0.3991E+03
      7.264  0.6914E+02  0.4032E+03
      7.321  0.6785E+02  0.4070E+03
      7.379  0.6498E+02  0.4107E+03
      7.436  0.6351E+02  0.4144E+03
      7.494  0.5725E+02  0.4179E+03
      7.551  0.5849E+02  0.4212E+03
      7.609  0.5889E+02  0.4246E+03
      7.667  0.6468E+02  0.4281E+03
      7.724  0.6656E+02  0.4318E+03
      7.782  0.6527E+02  0.4357E+03
      7.839  0.6014E+02  0.4394E+03
      7.897  0.6396E+02  0.4429E+03
      7.954  0.6985E+02  0.4468E+03
      8.012  0.6894E+02  0.4507E+03
      8.070  0.6819E+02  0.4547E+03
      8.127  0.7106E+02  0.4590E+03
      8.185  0.8439E+02  0.4633E+03
      8.242  0.9386E+02  0.4684E+03
      8.300  0.9599E+02  0.4739E+03
      8.357  0.8291E+02  0.4790E+03
      8.415  0.7821E+02  0.4839E+03
      8.473  0.6992E+02  0.4882E+03
      8.530  0.7019E+02  0.4920E+03
      8.588  0.6611E+02  0.4959E+03
      8.645  0.5938E+02  0.4996E+03
      8.703  0.6543E+02  0.5034E+03
      8.760  0.6216E+02  0.5071E+03
      8.818  0.6662E+02  0.5111E+03
      8.876  0.6116E+02  0.5148E+03
      8.933  0.6640E+02  0.5184E+03
      8.991  0.6486E+02  0.5223E+03
      9.048  0.5972E+02  0.5261E+03
      9.106  0.4739E+02  0.5291E+03
      9.163  0.5045E+02  0.5319E+03
      9.221  0.6035E+02  0.5351E+03
      9.279  0.7276E+02  0.5391E+03
      9.336  0.5574E+02  0.5425E+03
      9.394  0.6111E+02  0.5460E+03
      9.451  0.5661E+02  0.5493E+03
      9.509  0.5125E+02  0.5523E+03
      9.566  0.5211E+02  0.5552E+03
      9.624  0.4975E+02  0.5581E+03
      9.681  0.6965E+02  0.5614E+03
      9.739  0.6766E+02  0.5658E+03
      9.797  0.6237E+02  0.5693E+03
      9.854  0.5822E+02  0.5726E+03
      9.912  0.6491E+02  0.5764E+03
      9.969  0.5991E+02  0.5799E+03
     10.027  0.7949E+02  0.5834E+03
     10.084  0.6085E+02  0.5870E+03
     10.142  0.6676E+02  0.5910E+03
     10.200  0.7479E+02  0.5950E+03
     10.257  0.6728E+02  0.5988E+03
     10.315  0.6812E+02  0.6026E+03
     10.372  0.8705E+02  0.6068E+03
     10.430  0.1033E+03  0.6122E+03
     10.487  0.1217E+03  0.6188E+03
     10.545  0.1137E+03  0.6259E+03
     10.603  0.9734E+02  0.6320E+03
     10.660  0.9010E+02  0.6374E+03
     10.718  0.9612E+02  0.6427E+03
     10.775  0.9853E+02  0.6485E+03
     10.833  0.9353E+02  0.6540E+03
     10.890  0.7210E+02  0.6588E+03
     10.948  0.6466E+02  0.6628E+03
     11.006  0.5883E+02  0.6664E+03
     11.063  0.5262E+02  0.6697E+03
     11.121  0.3993E+02  0.6725E+03
     11.178  0.3226E+02  0.6745E+03
     11.236  0.2679E+02  0.6762E+03
     11.293  0.1871E+02  0.6775E+03
     11.351  0.1123E+02  0.6783E+03
     11.408  0.8411E+01  0.6789E+03
     11.466  0.7022E+01  0.6793E+03
     11.524  0.6250E+01  0.6797E+03
     11.581  0.5696E+01  0.6800E+03
     11.639  0.5036E+01  0.6803E+03
     11.696  0.4717E+01  0.6806E+03
     11.754  0.4494E+01  0.6809E+03
     11.811  0.4296E+01  0.6811E+03
     11.869  0.4114E+01  0.6814E+03
     11.927  0.3970E+01  0.6816E+03
     11.984  0.3815E+01  0.6818E+03
     12.042  0.3636E+01  0.6820E+03
     12.099  0.3482E+01  0.6823E+03
     12.157  0.3397E+01  0.6825E+03
     12.214  0.3476E+01  0.6827E+03
     12.272  0.3587E+01  0.6829E+03
     12.330  0.3539E+01  0.6831E+03
     12.387  0.3493E+01  0.6833E+03
     12.445  0.3453E+01  0.6835E+03
     12.502  0.3440E+01  0.6837E+03
     12.560  0.3441E+01  0.6839E+03
     12.617  0.3485E+01  0.6841E+03
     12.675  0.3463E+01  0.6843E+03
     12.733  0.3401E+01  0.6845E+03
     12.790  0.3368E+01  0.6847E+03
     12.848  0.3134E+01  0.6848E+03
     12.905  0.2913E+01  0.6850E+03
     12.963  0.2840E+01  0.6852E+03
     13.020  0.2786E+01  0.6853E+03
     13.078  0.2794E+01  0.6855E+03
     13.136  0.2795E+01  0.6857E+03
     13.193  0.2705E+01  0.6858E+03
     13.251  0.2733E+01  0.6860E+03
     13.308  0.2907E+01  0.6861E+03
     13.366  0.2789E+01  0.6863E+03
     13.423  0.2750E+01  0.6865E+03
     13.481  0.2731E+01  0.6866E+03
     13.538  0.2726E+01  0.6868E+03
     13.596  0.2729E+01  0.6869E+03
     13.654  0.2622E+01  0.6871E+03
     13.711  0.2508E+01  0.6872E+03
     13.769  0.2348E+01  0.6874E+03
     13.826  0.2038E+01  0.6875E+03
     13.884  0.1614E+01  0.6876E+03
     13.941  0.1339E+01  0.6877E+03
     13.999  0.1084E+01  0.6878E+03
     14.057  0.8713E+00  0.6878E+03
     14.114  0.6651E+00  0.6879E+03
     14.172  0.5360E+00  0.6879E+03
     14.229  0.4599E+00  0.6879E+03
     14.287  0.4057E+00  0.6880E+03
     14.344  0.3619E+00  0.6880E+03
     14.402  0.2347E+00  0.6880E+03
     14.460  0.2750E-01  0.6880E+03
     14.517  0.0000E+00  0.6880E+03
     14.575  0.0000E+00  0.6880E+03
     14.632  0.0000E+00  0.6880E+03
     14.690  0.0000E+00  0.6880E+03
     14.747  0.0000E+00  0.6880E+03
     14.805  0.0000E+00  0.6880E+03
     14.863  0.0000E+00  0.6880E+03
     14.920  0.0000E+00  0.6880E+03
     14.978  0.0000E+00  0.6880E+03
     15.035  0.0000E+00  0.6880E+03
     15.093  0.0000E+00  0.6880E+03
     15.150  0.0000E+00  0.6880E+03
     15.208  0.0000E+00  0.6880E+03
     15.266  0.0000E+00  0.6880E+03
     15.323  0.0000E+00  0.6880E+03
     15.381  0.0000E+00  0.6880E+03
     15.438  0.0000E+00  0.6880E+03
     15.496  0.0000E+00  0.6880E+03
