 256 256   0   0
  0.1418917E+02  0.1588033E-08  0.1692661E-08  0.1693229E-08  0.5000000E-15
  1.000000000000000E-004
  CAR 
 Ir_Ru                                   
     14.26754049     -1.29218731  301      9.45701318      1.00000000
     -1.292  0.0000E+00  0.0000E+00
     -1.240  0.0000E+00  0.0000E+00
     -1.188  0.0000E+00  0.0000E+00
     -1.137 -0.2760E-30 -0.1431E-31
     -1.085 -0.1260E-26 -0.6538E-28
     -1.033 -0.3347E-23 -0.1737E-24
     -0.981 -0.5164E-20 -0.2680E-21
     -0.929 -0.4626E-17 -0.2402E-18
     -0.877 -0.2344E-14 -0.1218E-15
     -0.825 -0.6984E-12 -0.3634E-13
     -0.774 -0.1206E-09 -0.6292E-11
     -0.722 -0.1199E-07 -0.6281E-09
     -0.670 -0.6832E-06 -0.3607E-07
     -0.618 -0.2220E-04 -0.1187E-05
     -0.566 -0.4081E-03 -0.2235E-04
     -0.514 -0.4205E-02 -0.2405E-03
     -0.462 -0.2403E-01 -0.1487E-02
     -0.410 -0.7470E-01 -0.5361E-02
     -0.359 -0.1024E+00 -0.1067E-01
     -0.307  0.1995E+00 -0.3274E-03
     -0.255  0.1619E+01  0.8362E-01
     -0.203  0.4371E+01  0.3103E+00
     -0.151  0.6346E+01  0.6395E+00
     -0.099  0.6424E+01  0.9727E+00
     -0.047  0.6948E+01  0.1333E+01
      0.004  0.8835E+01  0.1791E+01
      0.056  0.1115E+02  0.2370E+01
      0.108  0.1358E+02  0.3074E+01
      0.160  0.1435E+02  0.3819E+01
      0.212  0.1174E+02  0.4428E+01
      0.264  0.1005E+02  0.4949E+01
      0.316  0.1419E+02  0.5685E+01
      0.368  0.2029E+02  0.6737E+01
      0.419  0.2250E+02  0.7904E+01
      0.471  0.2267E+02  0.9080E+01
      0.523  0.2349E+02  0.1030E+02
      0.575  0.2257E+02  0.1147E+02
      0.627  0.2045E+02  0.1253E+02
      0.679  0.2096E+02  0.1362E+02
      0.731  0.2044E+02  0.1468E+02
      0.782  0.1474E+02  0.1544E+02
      0.834  0.8956E+01  0.1591E+02
      0.886  0.8019E+01  0.1632E+02
      0.938  0.1161E+02  0.1692E+02
      0.990  0.1872E+02  0.1790E+02
      1.042  0.2769E+02  0.1933E+02
      1.094  0.3338E+02  0.2106E+02
      1.146  0.3318E+02  0.2278E+02
      1.197  0.2892E+02  0.2428E+02
      1.249  0.2295E+02  0.2547E+02
      1.301  0.1951E+02  0.2649E+02
      1.353  0.2156E+02  0.2760E+02
      1.405  0.2704E+02  0.2901E+02
      1.457  0.3035E+02  0.3058E+02
      1.509  0.2987E+02  0.3213E+02
      1.560  0.2930E+02  0.3365E+02
      1.612  0.3035E+02  0.3522E+02
      1.664  0.3109E+02  0.3684E+02
      1.716  0.3191E+02  0.3849E+02
      1.768  0.3481E+02  0.4030E+02
      1.820  0.3890E+02  0.4231E+02
      1.872  0.4523E+02  0.4466E+02
      1.923  0.5436E+02  0.4748E+02
      1.975  0.5931E+02  0.5056E+02
      2.027  0.5498E+02  0.5341E+02
      2.079  0.5047E+02  0.5603E+02
      2.131  0.6084E+02  0.5918E+02
      2.183  0.8588E+02  0.6363E+02
      2.235  0.1081E+03  0.6924E+02
      2.287  0.1194E+03  0.7544E+02
      2.338  0.1256E+03  0.8195E+02
      2.390  0.1312E+03  0.8876E+02
      2.442  0.1371E+03  0.9587E+02
      2.494  0.1465E+03  0.1035E+03
      2.546  0.1635E+03  0.1119E+03
      2.598  0.1822E+03  0.1214E+03
      2.650  0.1944E+03  0.1315E+03
      2.701  0.2061E+03  0.1422E+03
      2.753  0.2230E+03  0.1537E+03
      2.805  0.2309E+03  0.1657E+03
      2.857  0.2248E+03  0.1774E+03
      2.909  0.2271E+03  0.1891E+03
      2.961  0.2443E+03  0.2018E+03
      3.013  0.2577E+03  0.2152E+03
      3.065  0.2601E+03  0.2287E+03
      3.116  0.2605E+03  0.2422E+03
      3.168  0.2638E+03  0.2559E+03
      3.220  0.2724E+03  0.2700E+03
      3.272  0.2870E+03  0.2849E+03
      3.324  0.3061E+03  0.3007E+03
      3.376  0.3235E+03  0.3175E+03
      3.428  0.3306E+03  0.3347E+03
      3.479  0.3280E+03  0.3517E+03
      3.531  0.3215E+03  0.3684E+03
      3.583  0.3181E+03  0.3849E+03
      3.635  0.3166E+03  0.4013E+03
      3.687  0.3113E+03  0.4174E+03
      3.739  0.3053E+03  0.4333E+03
      3.791  0.3012E+03  0.4489E+03
      3.843  0.2970E+03  0.4643E+03
      3.894  0.2934E+03  0.4795E+03
      3.946  0.2891E+03  0.4945E+03
      3.998  0.2772E+03  0.5089E+03
      4.050  0.2668E+03  0.5227E+03
      4.102  0.2747E+03  0.5370E+03
      4.154  0.2932E+03  0.5522E+03
      4.206  0.3024E+03  0.5678E+03
      4.257  0.3048E+03  0.5837E+03
      4.309  0.3116E+03  0.5998E+03
      4.361  0.3184E+03  0.6163E+03
      4.413  0.3210E+03  0.6330E+03
      4.465  0.3234E+03  0.6498E+03
      4.517  0.3215E+03  0.6664E+03
      4.569  0.3106E+03  0.6825E+03
      4.621  0.2978E+03  0.6980E+03
      4.672  0.2932E+03  0.7132E+03
      4.724  0.2976E+03  0.7286E+03
      4.776  0.3053E+03  0.7445E+03
      4.828  0.3169E+03  0.7609E+03
      4.880  0.3305E+03  0.7780E+03
      4.932  0.3373E+03  0.7955E+03
      4.984  0.3442E+03  0.8134E+03
      5.035  0.3571E+03  0.8319E+03
      5.087  0.3652E+03  0.8509E+03
      5.139  0.3644E+03  0.8698E+03
      5.191  0.3561E+03  0.8882E+03
      5.243  0.3367E+03  0.9057E+03
      5.295  0.3052E+03  0.9215E+03
      5.347  0.2647E+03  0.9352E+03
      5.398  0.2213E+03  0.9467E+03
      5.450  0.1862E+03  0.9564E+03
      5.502  0.1725E+03  0.9653E+03
      5.554  0.1873E+03  0.9750E+03
      5.606  0.2245E+03  0.9867E+03
      5.658  0.2721E+03  0.1001E+04
      5.710  0.3218E+03  0.1017E+04
      5.762  0.3646E+03  0.1036E+04
      5.813  0.3934E+03  0.1057E+04
      5.865  0.4097E+03  0.1078E+04
      5.917  0.4191E+03  0.1100E+04
      5.969  0.4257E+03  0.1122E+04
      6.021  0.4285E+03  0.1144E+04
      6.073  0.4178E+03  0.1166E+04
      6.125  0.3937E+03  0.1186E+04
      6.176  0.3729E+03  0.1206E+04
      6.228  0.3617E+03  0.1224E+04
      6.280  0.3557E+03  0.1243E+04
      6.332  0.3560E+03  0.1261E+04
      6.384  0.3680E+03  0.1280E+04
      6.436  0.3812E+03  0.1300E+04
      6.488  0.3839E+03  0.1320E+04
      6.540  0.3903E+03  0.1340E+04
      6.591  0.4082E+03  0.1361E+04
      6.643  0.4231E+03  0.1383E+04
      6.695  0.4280E+03  0.1406E+04
      6.747  0.4259E+03  0.1428E+04
      6.799  0.4149E+03  0.1449E+04
      6.851  0.3941E+03  0.1470E+04
      6.903  0.3746E+03  0.1489E+04
      6.954  0.3669E+03  0.1508E+04
      7.006  0.3640E+03  0.1527E+04
      7.058  0.3669E+03  0.1546E+04
      7.110  0.3886E+03  0.1566E+04
      7.162  0.4134E+03  0.1588E+04
      7.214  0.4222E+03  0.1609E+04
      7.266  0.4225E+03  0.1631E+04
      7.318  0.4148E+03  0.1653E+04
      7.369  0.3908E+03  0.1673E+04
      7.421  0.3613E+03  0.1692E+04
      7.473  0.3413E+03  0.1710E+04
      7.525  0.3328E+03  0.1727E+04
      7.577  0.3291E+03  0.1744E+04
      7.629  0.3185E+03  0.1760E+04
      7.681  0.2978E+03  0.1776E+04
      7.732  0.2789E+03  0.1790E+04
      7.784  0.2693E+03  0.1804E+04
      7.836  0.2641E+03  0.1818E+04
      7.888  0.2584E+03  0.1831E+04
      7.940  0.2495E+03  0.1844E+04
      7.992  0.2431E+03  0.1857E+04
      8.044  0.2432E+03  0.1870E+04
      8.096  0.2399E+03  0.1882E+04
      8.147  0.2319E+03  0.1894E+04
      8.199  0.2287E+03  0.1906E+04
      8.251  0.2328E+03  0.1918E+04
      8.303  0.2375E+03  0.1930E+04
      8.355  0.2391E+03  0.1943E+04
      8.407  0.2374E+03  0.1955E+04
      8.459  0.2300E+03  0.1967E+04
      8.510  0.2196E+03  0.1978E+04
      8.562  0.2126E+03  0.1989E+04
      8.614  0.2076E+03  0.2000E+04
      8.666  0.2006E+03  0.2011E+04
      8.718  0.1923E+03  0.2021E+04
      8.770  0.1839E+03  0.2030E+04
      8.822  0.1793E+03  0.2039E+04
      8.874  0.1864E+03  0.2049E+04
      8.925  0.2101E+03  0.2060E+04
      8.977  0.2340E+03  0.2072E+04
      9.029  0.2373E+03  0.2084E+04
      9.081  0.2252E+03  0.2096E+04
      9.133  0.2085E+03  0.2107E+04
      9.185  0.1889E+03  0.2117E+04
      9.237  0.1785E+03  0.2126E+04
      9.288  0.1942E+03  0.2136E+04
      9.340  0.2254E+03  0.2148E+04
      9.392  0.2425E+03  0.2160E+04
      9.444  0.2430E+03  0.2173E+04
      9.496  0.2446E+03  0.2186E+04
      9.548  0.2447E+03  0.2198E+04
      9.600  0.2450E+03  0.2211E+04
      9.651  0.2697E+03  0.2225E+04
      9.703  0.3131E+03  0.2241E+04
      9.755  0.3352E+03  0.2259E+04
      9.807  0.3279E+03  0.2276E+04
      9.859  0.3173E+03  0.2292E+04
      9.911  0.3152E+03  0.2308E+04
      9.963  0.3205E+03  0.2325E+04
     10.015  0.3397E+03  0.2343E+04
     10.066  0.3752E+03  0.2362E+04
     10.118  0.4098E+03  0.2383E+04
     10.170  0.4274E+03  0.2405E+04
     10.222  0.4353E+03  0.2428E+04
     10.274  0.4470E+03  0.2451E+04
     10.326  0.4650E+03  0.2475E+04
     10.378  0.4842E+03  0.2500E+04
     10.429  0.4968E+03  0.2526E+04
     10.481  0.4925E+03  0.2552E+04
     10.533  0.4585E+03  0.2576E+04
     10.585  0.3994E+03  0.2596E+04
     10.637  0.3313E+03  0.2613E+04
     10.689  0.2503E+03  0.2626E+04
     10.741  0.1508E+03  0.2634E+04
     10.793  0.5823E+02  0.2637E+04
     10.844  0.6369E+01  0.2638E+04
     10.896 -0.5671E+01  0.2637E+04
     10.948 -0.3070E+01  0.2637E+04
     11.000 -0.7309E+00  0.2637E+04
     11.052 -0.1058E+00  0.2637E+04
     11.104 -0.1085E-01  0.2637E+04
     11.156 -0.8167E-03  0.2637E+04
     11.207 -0.4174E-04  0.2637E+04
     11.259 -0.1324E-05  0.2637E+04
     11.311 -0.2489E-07  0.2637E+04
     11.363 -0.2721E-09  0.2637E+04
     11.415 -0.1723E-11  0.2637E+04
     11.467 -0.7494E-12  0.2637E+04
     11.519 -0.1475E-09  0.2637E+04
     11.571 -0.1690E-07  0.2637E+04
     11.622 -0.1113E-05  0.2637E+04
     11.674 -0.4176E-04  0.2637E+04
     11.726 -0.8807E-03  0.2637E+04
     11.778 -0.1013E-01  0.2637E+04
     11.830 -0.5918E-01  0.2637E+04
     11.882 -0.1330E+00  0.2637E+04
     11.934  0.1755E+00  0.2637E+04
     11.985  0.1410E+01  0.2637E+04
     12.037  0.2611E+01  0.2637E+04
     12.089  0.2284E+01  0.2637E+04
     12.141  0.1288E+01  0.2638E+04
     12.193  0.1028E+01  0.2638E+04
     12.245  0.1809E+01  0.2638E+04
     12.297  0.3078E+01  0.2638E+04
     12.349  0.3422E+01  0.2638E+04
     12.400  0.2691E+01  0.2638E+04
     12.452  0.2162E+01  0.2638E+04
     12.504  0.2098E+01  0.2638E+04
     12.556  0.2375E+01  0.2638E+04
     12.608  0.2972E+01  0.2639E+04
     12.660  0.3647E+01  0.2639E+04
     12.712  0.4168E+01  0.2639E+04
     12.763  0.3364E+01  0.2639E+04
     12.815  0.1922E+01  0.2639E+04
     12.867  0.2001E+01  0.2639E+04
     12.919  0.2621E+01  0.2640E+04
     12.971  0.1993E+01  0.2640E+04
     13.023  0.1082E+01  0.2640E+04
     13.075  0.8216E+00  0.2640E+04
     13.126  0.7884E+00  0.2640E+04
     13.178  0.9563E+00  0.2640E+04
     13.230  0.1223E+01  0.2640E+04
     13.282  0.1169E+01  0.2640E+04
     13.334  0.6808E+00  0.2640E+04
     13.386  0.1493E+00  0.2640E+04
     13.438 -0.4705E-01  0.2640E+04
     13.490 -0.3313E-01  0.2640E+04
     13.541 -0.7189E-02  0.2640E+04
     13.593 -0.7588E-03  0.2640E+04
     13.645 -0.4284E-04  0.2640E+04
     13.697 -0.1342E-05  0.2640E+04
     13.749 -0.2376E-07  0.2640E+04
     13.801 -0.2400E-09  0.2640E+04
     13.853 -0.1393E-11  0.2640E+04
     13.904 -0.4757E-14  0.2640E+04
     13.956  0.0000E+00  0.2640E+04
     14.008  0.0000E+00  0.2640E+04
     14.060  0.0000E+00  0.2640E+04
     14.112  0.0000E+00  0.2640E+04
     14.164  0.0000E+00  0.2640E+04
     14.216  0.0000E+00  0.2640E+04
     14.268  0.0000E+00  0.2640E+04
