  96  96   0   0
  0.1375384E+02  0.1087497E-08  0.1087496E-08  0.1289166E-08  0.5000000E-15
  1.000000000000000E-004
  CAR 
 Ir_Ru                                   
     11.79910291     -0.09836972  301      8.82454589      1.00000000
     -0.098  0.0000E+00  0.0000E+00
     -0.059  0.0000E+00  0.0000E+00
     -0.019  0.0000E+00  0.0000E+00
      0.021  0.0000E+00  0.0000E+00
      0.060  0.0000E+00  0.0000E+00
      0.100 -0.1391E-27 -0.5517E-29
      0.140 -0.6513E-25 -0.2588E-26
      0.179 -0.2223E-22 -0.8841E-24
      0.219 -0.5521E-20 -0.2198E-21
      0.259 -0.9974E-18 -0.3978E-19
      0.298 -0.1310E-15 -0.5235E-17
      0.338 -0.1211E-13 -0.4853E-15
      0.378 -0.8344E-12 -0.3358E-13
      0.417 -0.4163E-10 -0.1684E-11
      0.457 -0.1501E-08 -0.6121E-10
      0.497 -0.3903E-07 -0.1609E-08
      0.536 -0.7297E-06 -0.3055E-07
      0.576 -0.9771E-05 -0.4180E-06
      0.615 -0.9330E-04 -0.4118E-05
      0.655 -0.6322E-03 -0.2919E-04
      0.695 -0.3027E-02 -0.1492E-03
      0.734 -0.1022E-01 -0.5544E-03
      0.774 -0.2415E-01 -0.1512E-02
      0.814 -0.3729E-01 -0.2991E-02
      0.853 -0.1539E-01 -0.3601E-02
      0.893  0.1303E+00  0.1564E-02
      0.933  0.5295E+00  0.2256E-01
      0.972  0.1217E+01  0.7083E-01
      1.012  0.1985E+01  0.1496E+00
      1.052  0.2443E+01  0.2464E+00
      1.091  0.2314E+01  0.3382E+00
      1.131  0.1869E+01  0.4123E+00
      1.171  0.1935E+01  0.4891E+00
      1.210  0.3076E+01  0.6111E+00
      1.250  0.4806E+01  0.8016E+00
      1.290  0.5807E+01  0.1032E+01
      1.329  0.5123E+01  0.1235E+01
      1.369  0.3239E+01  0.1364E+01
      1.409  0.1803E+01  0.1435E+01
      1.448  0.2097E+01  0.1518E+01
      1.488  0.4001E+01  0.1677E+01
      1.528  0.6391E+01  0.1930E+01
      1.567  0.7925E+01  0.2245E+01
      1.607  0.7696E+01  0.2550E+01
      1.647  0.6027E+01  0.2789E+01
      1.686  0.4507E+01  0.2968E+01
      1.726  0.4641E+01  0.3152E+01
      1.766  0.6152E+01  0.3396E+01
      1.805  0.7102E+01  0.3677E+01
      1.845  0.6480E+01  0.3934E+01
      1.885  0.5600E+01  0.4156E+01
      1.924  0.5929E+01  0.4392E+01
      1.964  0.7181E+01  0.4676E+01
      2.004  0.8387E+01  0.5009E+01
      2.043  0.9165E+01  0.5372E+01
      2.083  0.9399E+01  0.5745E+01
      2.122  0.9179E+01  0.6109E+01
      2.162  0.9454E+01  0.6484E+01
      2.202  0.1084E+02  0.6914E+01
      2.241  0.1161E+02  0.7374E+01
      2.281  0.9602E+01  0.7755E+01
      2.321  0.5812E+01  0.7986E+01
      2.360  0.3599E+01  0.8128E+01
      2.400  0.5060E+01  0.8329E+01
      2.440  0.9717E+01  0.8714E+01
      2.479  0.1525E+02  0.9319E+01
      2.519  0.1908E+02  0.1008E+02
      2.559  0.2099E+02  0.1091E+02
      2.598  0.2384E+02  0.1185E+02
      2.638  0.2931E+02  0.1302E+02
      2.678  0.3552E+02  0.1442E+02
      2.717  0.4104E+02  0.1605E+02
      2.757  0.4850E+02  0.1798E+02
      2.797  0.6060E+02  0.2038E+02
      2.836  0.7476E+02  0.2334E+02
      2.876  0.8613E+02  0.2676E+02
      2.916  0.9524E+02  0.3054E+02
      2.955  0.1063E+03  0.3475E+02
      2.995  0.1193E+03  0.3949E+02
      3.035  0.1305E+03  0.4466E+02
      3.074  0.1365E+03  0.5008E+02
      3.114  0.1361E+03  0.5547E+02
      3.154  0.1310E+03  0.6067E+02
      3.193  0.1248E+03  0.6562E+02
      3.233  0.1213E+03  0.7043E+02
      3.273  0.1281E+03  0.7551E+02
      3.312  0.1470E+03  0.8134E+02
      3.352  0.1662E+03  0.8793E+02
      3.392  0.1713E+03  0.9472E+02
      3.431  0.1639E+03  0.1012E+03
      3.471  0.1582E+03  0.1075E+03
      3.511  0.1621E+03  0.1139E+03
      3.550  0.1684E+03  0.1206E+03
      3.590  0.1643E+03  0.1271E+03
      3.630  0.1494E+03  0.1330E+03
      3.669  0.1375E+03  0.1385E+03
      3.709  0.1349E+03  0.1438E+03
      3.748  0.1328E+03  0.1491E+03
      3.788  0.1242E+03  0.1540E+03
      3.828  0.1146E+03  0.1586E+03
      3.867  0.1097E+03  0.1629E+03
      3.907  0.1075E+03  0.1672E+03
      3.947  0.1055E+03  0.1714E+03
      3.986  0.1055E+03  0.1756E+03
      4.026  0.1065E+03  0.1798E+03
      4.066  0.1049E+03  0.1839E+03
      4.105  0.1016E+03  0.1880E+03
      4.145  0.9915E+02  0.1919E+03
      4.185  0.9729E+02  0.1958E+03
      4.224  0.9893E+02  0.1997E+03
      4.264  0.1110E+03  0.2041E+03
      4.304  0.1306E+03  0.2093E+03
      4.343  0.1447E+03  0.2150E+03
      4.383  0.1471E+03  0.2208E+03
      4.423  0.1435E+03  0.2265E+03
      4.462  0.1405E+03  0.2321E+03
      4.502  0.1389E+03  0.2376E+03
      4.542  0.1374E+03  0.2431E+03
      4.581  0.1357E+03  0.2484E+03
      4.621  0.1310E+03  0.2536E+03
      4.661  0.1210E+03  0.2584E+03
      4.700  0.1101E+03  0.2628E+03
      4.740  0.1052E+03  0.2670E+03
      4.780  0.1075E+03  0.2712E+03
      4.819  0.1146E+03  0.2758E+03
      4.859  0.1242E+03  0.2807E+03
      4.899  0.1333E+03  0.2860E+03
      4.938  0.1391E+03  0.2915E+03
      4.978  0.1409E+03  0.2971E+03
      5.018  0.1386E+03  0.3026E+03
      5.057  0.1306E+03  0.3078E+03
      5.097  0.1202E+03  0.3125E+03
      5.137  0.1192E+03  0.3173E+03
      5.176  0.1356E+03  0.3226E+03
      5.216  0.1568E+03  0.3289E+03
      5.255  0.1606E+03  0.3352E+03
      5.295  0.1417E+03  0.3408E+03
      5.335  0.1161E+03  0.3454E+03
      5.374  0.9970E+02  0.3494E+03
      5.414  0.9259E+02  0.3531E+03
      5.454  0.8644E+02  0.3565E+03
      5.493  0.7679E+02  0.3595E+03
      5.533  0.6358E+02  0.3621E+03
      5.573  0.4932E+02  0.3640E+03
      5.612  0.4193E+02  0.3657E+03
      5.652  0.5132E+02  0.3677E+03
      5.692  0.7790E+02  0.3708E+03
      5.731  0.1088E+03  0.3751E+03
      5.771  0.1315E+03  0.3803E+03
      5.811  0.1472E+03  0.3862E+03
      5.850  0.1635E+03  0.3927E+03
      5.890  0.1779E+03  0.3997E+03
      5.930  0.1833E+03  0.4070E+03
      5.969  0.1841E+03  0.4143E+03
      6.009  0.1886E+03  0.4218E+03
      6.049  0.1929E+03  0.4294E+03
      6.088  0.1878E+03  0.4369E+03
      6.128  0.1733E+03  0.4437E+03
      6.168  0.1548E+03  0.4499E+03
      6.207  0.1384E+03  0.4554E+03
      6.247  0.1292E+03  0.4605E+03
      6.287  0.1263E+03  0.4655E+03
      6.326  0.1242E+03  0.4704E+03
      6.366  0.1212E+03  0.4752E+03
      6.406  0.1218E+03  0.4801E+03
      6.445  0.1294E+03  0.4852E+03
      6.485  0.1420E+03  0.4908E+03
      6.525  0.1566E+03  0.4970E+03
      6.564  0.1736E+03  0.5039E+03
      6.604  0.1920E+03  0.5115E+03
      6.644  0.2024E+03  0.5196E+03
      6.683  0.1952E+03  0.5273E+03
      6.723  0.1738E+03  0.5342E+03
      6.763  0.1526E+03  0.5403E+03
      6.802  0.1413E+03  0.5459E+03
      6.842  0.1377E+03  0.5513E+03
      6.881  0.1343E+03  0.5566E+03
      6.921  0.1286E+03  0.5617E+03
      6.961  0.1264E+03  0.5668E+03
      7.000  0.1309E+03  0.5719E+03
      7.040  0.1381E+03  0.5774E+03
      7.080  0.1449E+03  0.5832E+03
      7.119  0.1534E+03  0.5893E+03
      7.159  0.1641E+03  0.5958E+03
      7.199  0.1717E+03  0.6026E+03
      7.238  0.1725E+03  0.6094E+03
      7.278  0.1686E+03  0.6161E+03
      7.318  0.1636E+03  0.6226E+03
      7.357  0.1592E+03  0.6289E+03
      7.397  0.1540E+03  0.6350E+03
      7.437  0.1427E+03  0.6407E+03
      7.476  0.1253E+03  0.6456E+03
      7.516  0.1129E+03  0.6501E+03
      7.556  0.1158E+03  0.6547E+03
      7.595  0.1274E+03  0.6598E+03
      7.635  0.1306E+03  0.6649E+03
      7.675  0.1192E+03  0.6697E+03
      7.714  0.1035E+03  0.6738E+03
      7.754  0.9608E+02  0.6776E+03
      7.794  0.9932E+02  0.6815E+03
      7.833  0.1059E+03  0.6857E+03
      7.873  0.1076E+03  0.6900E+03
      7.913  0.1028E+03  0.6941E+03
      7.952  0.9488E+02  0.6978E+03
      7.992  0.8532E+02  0.7012E+03
      8.032  0.7554E+02  0.7042E+03
      8.071  0.7022E+02  0.7070E+03
      8.111  0.7146E+02  0.7098E+03
      8.151  0.7513E+02  0.7128E+03
      8.190  0.7844E+02  0.7159E+03
      8.230  0.8383E+02  0.7192E+03
      8.270  0.9389E+02  0.7230E+03
      8.309  0.1075E+03  0.7272E+03
      8.349  0.1195E+03  0.7320E+03
      8.388  0.1229E+03  0.7368E+03
      8.428  0.1146E+03  0.7414E+03
      8.468  0.9671E+02  0.7452E+03
      8.507  0.7763E+02  0.7483E+03
      8.547  0.6810E+02  0.7510E+03
      8.587  0.6972E+02  0.7538E+03
      8.626  0.7103E+02  0.7566E+03
      8.666  0.6196E+02  0.7590E+03
      8.706  0.4750E+02  0.7609E+03
      8.745  0.4203E+02  0.7626E+03
      8.785  0.5470E+02  0.7648E+03
      8.825  0.8224E+02  0.7680E+03
      8.864  0.1111E+03  0.7724E+03
      8.904  0.1268E+03  0.7775E+03
      8.944  0.1240E+03  0.7824E+03
      8.983  0.1067E+03  0.7866E+03
      9.023  0.8465E+02  0.7900E+03
      9.063  0.6770E+02  0.7926E+03
      9.102  0.6045E+02  0.7950E+03
      9.142  0.6247E+02  0.7975E+03
      9.182  0.7035E+02  0.8003E+03
      9.221  0.7797E+02  0.8034E+03
      9.261  0.8062E+02  0.8066E+03
      9.301  0.7965E+02  0.8098E+03
      9.340  0.7982E+02  0.8129E+03
      9.380  0.8494E+02  0.8163E+03
      9.420  0.9714E+02  0.8201E+03
      9.459  0.1136E+03  0.8246E+03
      9.499  0.1251E+03  0.8296E+03
      9.539  0.1269E+03  0.8346E+03
      9.578  0.1254E+03  0.8396E+03
      9.618  0.1284E+03  0.8447E+03
      9.658  0.1358E+03  0.8501E+03
      9.697  0.1401E+03  0.8556E+03
      9.737  0.1341E+03  0.8610E+03
      9.777  0.1175E+03  0.8656E+03
      9.816  0.1023E+03  0.8697E+03
      9.856  0.1048E+03  0.8738E+03
      9.896  0.1288E+03  0.8789E+03
      9.935  0.1587E+03  0.8852E+03
      9.975  0.1713E+03  0.8920E+03
     10.014  0.1566E+03  0.8982E+03
     10.054  0.1264E+03  0.9033E+03
     10.094  0.9894E+02  0.9072E+03
     10.133  0.8175E+02  0.9104E+03
     10.173  0.7055E+02  0.9132E+03
     10.213  0.5936E+02  0.9156E+03
     10.252  0.4597E+02  0.9174E+03
     10.292  0.3139E+02  0.9186E+03
     10.332  0.1835E+02  0.9194E+03
     10.371  0.9234E+01  0.9197E+03
     10.411  0.4258E+01  0.9199E+03
     10.451  0.1849E+01  0.9200E+03
     10.490  0.5789E+00  0.9200E+03
     10.530 -0.5742E-01  0.9200E+03
     10.570 -0.2181E+00  0.9200E+03
     10.609 -0.1504E+00  0.9200E+03
     10.649 -0.6611E-01  0.9200E+03
     10.689 -0.1788E-01  0.9200E+03
     10.728  0.3263E-01  0.9200E+03
     10.768  0.1070E+00  0.9200E+03
     10.808  0.1622E+00  0.9200E+03
     10.847  0.1453E+00  0.9200E+03
     10.887  0.7436E-01  0.9200E+03
     10.927  0.1391E-01  0.9200E+03
     10.966 -0.7715E-02  0.9200E+03
     11.006 -0.6769E-02  0.9200E+03
     11.046 -0.2531E-02  0.9200E+03
     11.085 -0.5820E-03  0.9200E+03
     11.125 -0.8969E-04  0.9200E+03
     11.165 -0.9584E-05  0.9200E+03
     11.204 -0.7227E-06  0.9200E+03
     11.244 -0.3884E-07  0.9200E+03
     11.284 -0.1497E-08  0.9200E+03
     11.323 -0.4157E-10  0.9200E+03
     11.363 -0.8339E-12  0.9200E+03
     11.403 -0.1209E-13  0.9200E+03
     11.442 -0.1120E-15  0.9200E+03
     11.482  0.0000E+00  0.9200E+03
     11.521  0.0000E+00  0.9200E+03
     11.561  0.0000E+00  0.9200E+03
     11.601  0.0000E+00  0.9200E+03
     11.640  0.0000E+00  0.9200E+03
     11.680  0.0000E+00  0.9200E+03
     11.720  0.0000E+00  0.9200E+03
     11.759  0.0000E+00  0.9200E+03
     11.799  0.0000E+00  0.9200E+03
