 256 256   0   0
  0.1419206E+02  0.1537080E-08  0.1537218E-08  0.1537636E-08  0.5000000E-15
  1.000000000000000E-004
  CAR 
 Ir_Ru                                   
     12.68642778     -1.29507051  301      9.24209726      1.00000000
     -1.295  0.0000E+00  0.0000E+00
     -1.248  0.0000E+00  0.0000E+00
     -1.202  0.0000E+00  0.0000E+00
     -1.155  0.0000E+00  0.0000E+00
     -1.109 -0.2759E-28 -0.1286E-29
     -1.062 -0.4118E-25 -0.1921E-26
     -1.015 -0.3965E-22 -0.1850E-23
     -0.969 -0.2463E-19 -0.1150E-20
     -0.922 -0.9873E-17 -0.4613E-18
     -0.876 -0.2478E-14 -0.1159E-15
     -0.829 -0.4109E-12 -0.1926E-13
     -0.782 -0.4388E-10 -0.2064E-11
     -0.736 -0.3019E-08 -0.1428E-09
     -0.689 -0.1339E-06 -0.6385E-08
     -0.643 -0.3837E-05 -0.1852E-06
     -0.596 -0.7116E-04 -0.3502E-05
     -0.549 -0.8569E-03 -0.4344E-04
     -0.503 -0.6703E-02 -0.3558E-03
     -0.456 -0.3365E-01 -0.1924E-02
     -0.410 -0.1022E+00 -0.6688E-02
     -0.363 -0.1376E+00 -0.1310E-01
     -0.316  0.2256E+00 -0.2584E-02
     -0.270  0.1514E+01  0.6796E-01
     -0.223  0.3544E+01  0.2331E+00
     -0.177  0.5073E+01  0.4696E+00
     -0.130  0.5735E+01  0.7369E+00
     -0.083  0.7335E+01  0.1079E+01
     -0.037  0.1020E+02  0.1554E+01
      0.010  0.1102E+02  0.2068E+01
      0.056  0.9147E+01  0.2494E+01
      0.103  0.9394E+01  0.2932E+01
      0.150  0.1317E+02  0.3546E+01
      0.196  0.1592E+02  0.4288E+01
      0.243  0.1605E+02  0.5036E+01
      0.289  0.1674E+02  0.5816E+01
      0.336  0.1850E+02  0.6678E+01
      0.383  0.1833E+02  0.7533E+01
      0.429  0.1744E+02  0.8345E+01
      0.476  0.1982E+02  0.9269E+01
      0.523  0.2338E+02  0.1036E+02
      0.569  0.2405E+02  0.1148E+02
      0.616  0.2227E+02  0.1252E+02
      0.662  0.1871E+02  0.1339E+02
      0.709  0.1406E+02  0.1405E+02
      0.756  0.1114E+02  0.1456E+02
      0.802  0.1072E+02  0.1506E+02
      0.849  0.1113E+02  0.1558E+02
      0.895  0.1214E+02  0.1615E+02
      0.942  0.1463E+02  0.1683E+02
      0.989  0.1832E+02  0.1768E+02
      1.035  0.2287E+02  0.1875E+02
      1.082  0.2808E+02  0.2006E+02
      1.128  0.3125E+02  0.2151E+02
      1.175  0.2973E+02  0.2290E+02
      1.222  0.2591E+02  0.2411E+02
      1.268  0.2307E+02  0.2518E+02
      1.315  0.2096E+02  0.2616E+02
      1.361  0.2002E+02  0.2709E+02
      1.408  0.2162E+02  0.2810E+02
      1.455  0.2407E+02  0.2922E+02
      1.501  0.2567E+02  0.3042E+02
      1.548  0.2898E+02  0.3177E+02
      1.594  0.3510E+02  0.3340E+02
      1.641  0.3873E+02  0.3521E+02
      1.688  0.3786E+02  0.3697E+02
      1.734  0.3926E+02  0.3880E+02
      1.781  0.4551E+02  0.4092E+02
      1.827  0.4934E+02  0.4322E+02
      1.874  0.4783E+02  0.4545E+02
      1.921  0.4731E+02  0.4766E+02
      1.967  0.5093E+02  0.5003E+02
      2.014  0.5413E+02  0.5256E+02
      2.060  0.5549E+02  0.5514E+02
      2.107  0.6137E+02  0.5800E+02
      2.154  0.7455E+02  0.6148E+02
      2.200  0.8937E+02  0.6564E+02
      2.247  0.1031E+03  0.7045E+02
      2.294  0.1178E+03  0.7594E+02
      2.340  0.1310E+03  0.8205E+02
      2.387  0.1383E+03  0.8849E+02
      2.433  0.1433E+03  0.9517E+02
      2.480  0.1524E+03  0.1023E+03
      2.527  0.1610E+03  0.1098E+03
      2.573  0.1617E+03  0.1173E+03
      2.620  0.1614E+03  0.1248E+03
      2.666  0.1690E+03  0.1327E+03
      2.713  0.1785E+03  0.1410E+03
      2.760  0.1848E+03  0.1496E+03
      2.806  0.1978E+03  0.1589E+03
      2.853  0.2230E+03  0.1693E+03
      2.899  0.2476E+03  0.1808E+03
      2.946  0.2563E+03  0.1927E+03
      2.993  0.2498E+03  0.2044E+03
      3.039  0.2468E+03  0.2159E+03
      3.086  0.2622E+03  0.2281E+03
      3.132  0.2865E+03  0.2415E+03
      3.179  0.3011E+03  0.2555E+03
      3.226  0.3038E+03  0.2697E+03
      3.272  0.3051E+03  0.2839E+03
      3.319  0.3085E+03  0.2983E+03
      3.365  0.3111E+03  0.3128E+03
      3.412  0.3143E+03  0.3274E+03
      3.459  0.3215E+03  0.3424E+03
      3.505  0.3332E+03  0.3579E+03
      3.552  0.3440E+03  0.3739E+03
      3.598  0.3469E+03  0.3901E+03
      3.645  0.3450E+03  0.4062E+03
      3.692  0.3489E+03  0.4225E+03
      3.738  0.3578E+03  0.4391E+03
      3.785  0.3594E+03  0.4559E+03
      3.831  0.3522E+03  0.4723E+03
      3.878  0.3477E+03  0.4885E+03
      3.925  0.3496E+03  0.5048E+03
      3.971  0.3505E+03  0.5211E+03
      4.018  0.3414E+03  0.5370E+03
      4.065  0.3228E+03  0.5521E+03
      4.111  0.3067E+03  0.5664E+03
      4.158  0.2976E+03  0.5803E+03
      4.204  0.2873E+03  0.5936E+03
      4.251  0.2711E+03  0.6063E+03
      4.298  0.2535E+03  0.6181E+03
      4.344  0.2427E+03  0.6294E+03
      4.391  0.2453E+03  0.6408E+03
      4.437  0.2579E+03  0.6529E+03
      4.484  0.2617E+03  0.6651E+03
      4.531  0.2506E+03  0.6767E+03
      4.577  0.2477E+03  0.6883E+03
      4.624  0.2673E+03  0.7007E+03
      4.670  0.2921E+03  0.7143E+03
      4.717  0.3070E+03  0.7287E+03
      4.764  0.3138E+03  0.7433E+03
      4.810  0.3135E+03  0.7579E+03
      4.857  0.3047E+03  0.7721E+03
      4.903  0.2899E+03  0.7856E+03
      4.950  0.2784E+03  0.7986E+03
      4.997  0.2813E+03  0.8117E+03
      5.043  0.2953E+03  0.8255E+03
      5.090  0.3079E+03  0.8398E+03
      5.136  0.3092E+03  0.8542E+03
      5.183  0.2975E+03  0.8681E+03
      5.230  0.2855E+03  0.8814E+03
      5.276  0.2845E+03  0.8946E+03
      5.323  0.2905E+03  0.9082E+03
      5.369  0.2974E+03  0.9220E+03
      5.416  0.3018E+03  0.9361E+03
      5.463  0.2985E+03  0.9500E+03
      5.509  0.2886E+03  0.9635E+03
      5.556  0.2868E+03  0.9768E+03
      5.602  0.3029E+03  0.9910E+03
      5.649  0.3218E+03  0.1006E+04
      5.696  0.3254E+03  0.1021E+04
      5.742  0.3203E+03  0.1036E+04
      5.789  0.3200E+03  0.1051E+04
      5.835  0.3263E+03  0.1066E+04
      5.882  0.3368E+03  0.1082E+04
      5.929  0.3503E+03  0.1098E+04
      5.975  0.3655E+03  0.1115E+04
      6.022  0.3791E+03  0.1133E+04
      6.069  0.3855E+03  0.1151E+04
      6.115  0.3875E+03  0.1169E+04
      6.162  0.3917E+03  0.1187E+04
      6.208  0.3987E+03  0.1206E+04
      6.255  0.4096E+03  0.1225E+04
      6.302  0.4273E+03  0.1245E+04
      6.348  0.4465E+03  0.1266E+04
      6.395  0.4573E+03  0.1287E+04
      6.441  0.4572E+03  0.1308E+04
      6.488  0.4531E+03  0.1329E+04
      6.535  0.4499E+03  0.1350E+04
      6.581  0.4454E+03  0.1371E+04
      6.628  0.4390E+03  0.1391E+04
      6.674  0.4318E+03  0.1412E+04
      6.721  0.4249E+03  0.1431E+04
      6.768  0.4170E+03  0.1451E+04
      6.814  0.4013E+03  0.1470E+04
      6.861  0.3764E+03  0.1487E+04
      6.907  0.3541E+03  0.1504E+04
      6.954  0.3441E+03  0.1520E+04
      7.001  0.3390E+03  0.1535E+04
      7.047  0.3274E+03  0.1551E+04
      7.094  0.3147E+03  0.1565E+04
      7.140  0.3137E+03  0.1580E+04
      7.187  0.3195E+03  0.1595E+04
      7.234  0.3132E+03  0.1609E+04
      7.280  0.2870E+03  0.1623E+04
      7.327  0.2555E+03  0.1635E+04
      7.373  0.2402E+03  0.1646E+04
      7.420  0.2490E+03  0.1658E+04
      7.467  0.2715E+03  0.1670E+04
      7.513  0.2846E+03  0.1683E+04
      7.560  0.2761E+03  0.1696E+04
      7.606  0.2582E+03  0.1708E+04
      7.653  0.2482E+03  0.1720E+04
      7.700  0.2575E+03  0.1732E+04
      7.746  0.2833E+03  0.1745E+04
      7.793  0.3056E+03  0.1759E+04
      7.840  0.3119E+03  0.1774E+04
      7.886  0.3087E+03  0.1788E+04
      7.933  0.3031E+03  0.1802E+04
      7.979  0.2961E+03  0.1816E+04
      8.026  0.2911E+03  0.1830E+04
      8.073  0.2960E+03  0.1844E+04
      8.119  0.3094E+03  0.1858E+04
      8.166  0.3170E+03  0.1873E+04
      8.212  0.3176E+03  0.1888E+04
      8.259  0.3301E+03  0.1903E+04
      8.306  0.3541E+03  0.1919E+04
      8.352  0.3623E+03  0.1936E+04
      8.399  0.3392E+03  0.1952E+04
      8.445  0.2992E+03  0.1966E+04
      8.492  0.2665E+03  0.1979E+04
      8.539  0.2558E+03  0.1990E+04
      8.585  0.2714E+03  0.2003E+04
      8.632  0.2959E+03  0.2017E+04
      8.678  0.3001E+03  0.2031E+04
      8.725  0.2837E+03  0.2044E+04
      8.772  0.2673E+03  0.2057E+04
      8.818  0.2567E+03  0.2069E+04
      8.865  0.2489E+03  0.2080E+04
      8.911  0.2450E+03  0.2092E+04
      8.958  0.2453E+03  0.2103E+04
      9.005  0.2537E+03  0.2115E+04
      9.051  0.2738E+03  0.2128E+04
      9.098  0.2840E+03  0.2141E+04
      9.144  0.2656E+03  0.2153E+04
      9.191  0.2404E+03  0.2164E+04
      9.238  0.2281E+03  0.2175E+04
      9.284  0.2197E+03  0.2185E+04
      9.331  0.2138E+03  0.2195E+04
      9.377  0.2222E+03  0.2206E+04
      9.424  0.2429E+03  0.2217E+04
      9.471  0.2627E+03  0.2229E+04
      9.517  0.2737E+03  0.2242E+04
      9.564  0.2772E+03  0.2255E+04
      9.610  0.2761E+03  0.2268E+04
      9.657  0.2708E+03  0.2280E+04
      9.704  0.2607E+03  0.2292E+04
      9.750  0.2435E+03  0.2304E+04
      9.797  0.2240E+03  0.2314E+04
      9.844  0.2196E+03  0.2324E+04
      9.890  0.2370E+03  0.2336E+04
      9.937  0.2648E+03  0.2348E+04
      9.983  0.2958E+03  0.2362E+04
     10.030  0.3279E+03  0.2377E+04
     10.077  0.3494E+03  0.2393E+04
     10.123  0.3461E+03  0.2409E+04
     10.170  0.3235E+03  0.2424E+04
     10.216  0.3102E+03  0.2439E+04
     10.263  0.3299E+03  0.2454E+04
     10.310  0.3886E+03  0.2472E+04
     10.356  0.4679E+03  0.2494E+04
     10.403  0.5191E+03  0.2518E+04
     10.449  0.5084E+03  0.2542E+04
     10.496  0.4490E+03  0.2563E+04
     10.543  0.3723E+03  0.2580E+04
     10.589  0.3006E+03  0.2594E+04
     10.636  0.2471E+03  0.2606E+04
     10.682  0.2117E+03  0.2616E+04
     10.729  0.1803E+03  0.2624E+04
     10.776  0.1412E+03  0.2631E+04
     10.822  0.9623E+02  0.2635E+04
     10.869  0.5541E+02  0.2638E+04
     10.915  0.2654E+02  0.2639E+04
     10.962  0.1022E+02  0.2639E+04
     11.009  0.3199E+01  0.2640E+04
     11.055  0.1583E+01  0.2640E+04
     11.102  0.1807E+01  0.2640E+04
     11.148  0.1568E+01  0.2640E+04
     11.195  0.6576E+00  0.2640E+04
     11.242  0.5676E-02  0.2640E+04
     11.288 -0.1130E+00  0.2640E+04
     11.335 -0.4948E-01  0.2640E+04
     11.381 -0.1067E-01  0.2640E+04
     11.428 -0.3475E-02  0.2640E+04
     11.475 -0.1358E-01  0.2640E+04
     11.521 -0.4300E-01  0.2640E+04
     11.568 -0.3378E-01  0.2640E+04
     11.615  0.2089E+00  0.2640E+04
     11.661  0.7269E+00  0.2640E+04
     11.708  0.1025E+01  0.2640E+04
     11.754  0.7108E+00  0.2640E+04
     11.801  0.1963E+00  0.2640E+04
     11.848 -0.3634E-01  0.2640E+04
     11.894 -0.4203E-01  0.2640E+04
     11.941 -0.1287E-01  0.2640E+04
     11.987 -0.2064E-02  0.2640E+04
     12.034 -0.1946E-03  0.2640E+04
     12.081 -0.1125E-04  0.2640E+04
     12.127 -0.4065E-06  0.2640E+04
     12.174 -0.9291E-08  0.2640E+04
     12.220 -0.1352E-09  0.2640E+04
     12.267 -0.1258E-11  0.2640E+04
     12.314 -0.7444E-14  0.2640E+04
     12.360  0.0000E+00  0.2640E+04
     12.407  0.0000E+00  0.2640E+04
     12.453  0.0000E+00  0.2640E+04
     12.500  0.0000E+00  0.2640E+04
     12.547  0.0000E+00  0.2640E+04
     12.593  0.0000E+00  0.2640E+04
     12.640  0.0000E+00  0.2640E+04
     12.686  0.0000E+00  0.2640E+04
