 256 256   0   0
  0.1418917E+02  0.1588033E-08  0.1692661E-08  0.1693229E-08  0.5000000E-15
  1.000000000000000E-004
  CAR 
 Ir_Ru                                   
     14.28132062     -1.29191016  301      9.45696952      1.00000000
     -1.292  0.0000E+00  0.0000E+00
     -1.240  0.0000E+00  0.0000E+00
     -1.188  0.0000E+00  0.0000E+00
     -1.136 -0.2821E-30 -0.1464E-31
     -1.084 -0.1295E-26 -0.6726E-28
     -1.032 -0.3456E-23 -0.1795E-24
     -0.980 -0.5353E-20 -0.2781E-21
     -0.929 -0.4809E-17 -0.2499E-18
     -0.877 -0.2444E-14 -0.1271E-15
     -0.825 -0.7280E-12 -0.3792E-13
     -0.773 -0.1257E-09 -0.6564E-11
     -0.721 -0.1248E-07 -0.6546E-09
     -0.669 -0.7100E-06 -0.3751E-07
     -0.617 -0.2300E-04 -0.1231E-05
     -0.565 -0.4210E-03 -0.2309E-04
     -0.513 -0.4316E-02 -0.2471E-03
     -0.461 -0.2451E-01 -0.1519E-02
     -0.409 -0.7555E-01 -0.5441E-02
     -0.358 -0.1016E+00 -0.1072E-01
     -0.306  0.2109E+00  0.2336E-03
     -0.254  0.1657E+01  0.8623E-01
     -0.202  0.4421E+01  0.3157E+00
     -0.150  0.6361E+01  0.6459E+00
     -0.098  0.6422E+01  0.9793E+00
     -0.046  0.6975E+01  0.1341E+01
      0.006  0.8880E+01  0.1802E+01
      0.058  0.1121E+02  0.2384E+01
      0.110  0.1363E+02  0.3092E+01
      0.162  0.1433E+02  0.3836E+01
      0.214  0.1166E+02  0.4441E+01
      0.265  0.1008E+02  0.4964E+01
      0.317  0.1435E+02  0.5709E+01
      0.369  0.2040E+02  0.6768E+01
      0.421  0.2252E+02  0.7938E+01
      0.473  0.2271E+02  0.9117E+01
      0.525  0.2352E+02  0.1034E+02
      0.577  0.2250E+02  0.1151E+02
      0.629  0.2043E+02  0.1257E+02
      0.681  0.2101E+02  0.1366E+02
      0.733  0.2032E+02  0.1471E+02
      0.785  0.1449E+02  0.1546E+02
      0.836  0.8805E+01  0.1592E+02
      0.888  0.8031E+01  0.1634E+02
      0.940  0.1177E+02  0.1695E+02
      0.992  0.1904E+02  0.1794E+02
      1.044  0.2799E+02  0.1939E+02
      1.096  0.3341E+02  0.2112E+02
      1.148  0.3305E+02  0.2284E+02
      1.200  0.2873E+02  0.2433E+02
      1.252  0.2275E+02  0.2551E+02
      1.304  0.1947E+02  0.2652E+02
      1.356  0.2177E+02  0.2765E+02
      1.407  0.2727E+02  0.2907E+02
      1.459  0.3037E+02  0.3065E+02
      1.511  0.2981E+02  0.3219E+02
      1.563  0.2934E+02  0.3372E+02
      1.615  0.3041E+02  0.3529E+02
      1.667  0.3110E+02  0.3691E+02
      1.719  0.3205E+02  0.3857E+02
      1.771  0.3506E+02  0.4039E+02
      1.823  0.3917E+02  0.4243E+02
      1.875  0.4565E+02  0.4480E+02
      1.927  0.5483E+02  0.4764E+02
      1.978  0.5934E+02  0.5072E+02
      2.030  0.5461E+02  0.5356E+02
      2.082  0.5053E+02  0.5618E+02
      2.134  0.6197E+02  0.5940E+02
      2.186  0.8738E+02  0.6393E+02
      2.238  0.1091E+03  0.6959E+02
      2.290  0.1199E+03  0.7582E+02
      2.342  0.1259E+03  0.8236E+02
      2.394  0.1316E+03  0.8919E+02
      2.446  0.1376E+03  0.9633E+02
      2.498  0.1474E+03  0.1040E+03
      2.549  0.1648E+03  0.1125E+03
      2.601  0.1832E+03  0.1220E+03
      2.653  0.1951E+03  0.1322E+03
      2.705  0.2072E+03  0.1429E+03
      2.757  0.2240E+03  0.1546E+03
      2.809  0.2307E+03  0.1665E+03
      2.861  0.2244E+03  0.1782E+03
      2.913  0.2280E+03  0.1900E+03
      2.965  0.2457E+03  0.2028E+03
      3.017  0.2581E+03  0.2162E+03
      3.069  0.2600E+03  0.2297E+03
      3.121  0.2605E+03  0.2432E+03
      3.172  0.2641E+03  0.2569E+03
      3.224  0.2734E+03  0.2711E+03
      3.276  0.2887E+03  0.2861E+03
      3.328  0.3081E+03  0.3021E+03
      3.380  0.3248E+03  0.3189E+03
      3.432  0.3308E+03  0.3361E+03
      3.484  0.3276E+03  0.3531E+03
      3.536  0.3212E+03  0.3698E+03
      3.588  0.3181E+03  0.3863E+03
      3.640  0.3162E+03  0.4027E+03
      3.692  0.3106E+03  0.4188E+03
      3.743  0.3049E+03  0.4347E+03
      3.795  0.3010E+03  0.4503E+03
      3.847  0.2967E+03  0.4657E+03
      3.899  0.2932E+03  0.4809E+03
      3.951  0.2883E+03  0.4959E+03
      4.003  0.2756E+03  0.5102E+03
      4.055  0.2663E+03  0.5240E+03
      4.107  0.2761E+03  0.5383E+03
      4.159  0.2946E+03  0.5536E+03
      4.211  0.3029E+03  0.5693E+03
      4.263  0.3054E+03  0.5852E+03
      4.314  0.3126E+03  0.6014E+03
      4.366  0.3191E+03  0.6180E+03
      4.418  0.3216E+03  0.6347E+03
      4.470  0.3237E+03  0.6515E+03
      4.522  0.3207E+03  0.6681E+03
      4.574  0.3090E+03  0.6842E+03
      4.626  0.2969E+03  0.6996E+03
      4.678  0.2935E+03  0.7148E+03
      4.730  0.2985E+03  0.7303E+03
      4.782  0.3063E+03  0.7462E+03
      4.834  0.3183E+03  0.7627E+03
      4.885  0.3317E+03  0.7800E+03
      4.937  0.3380E+03  0.7975E+03
      4.989  0.3458E+03  0.8155E+03
      5.041  0.3588E+03  0.8341E+03
      5.093  0.3656E+03  0.8531E+03
      5.145  0.3637E+03  0.8719E+03
      5.197  0.3541E+03  0.8903E+03
      5.249  0.3334E+03  0.9076E+03
      5.301  0.3009E+03  0.9232E+03
      5.353  0.2597E+03  0.9367E+03
      5.405  0.2165E+03  0.9480E+03
      5.456  0.1832E+03  0.9575E+03
      5.508  0.1727E+03  0.9664E+03
      5.560  0.1906E+03  0.9763E+03
      5.612  0.2295E+03  0.9883E+03
      5.664  0.2782E+03  0.1003E+04
      5.716  0.3282E+03  0.1020E+04
      5.768  0.3697E+03  0.1039E+04
      5.820  0.3964E+03  0.1060E+04
      5.872  0.4110E+03  0.1081E+04
      5.924  0.4194E+03  0.1103E+04
      5.976  0.4258E+03  0.1125E+04
      6.028  0.4278E+03  0.1147E+04
      6.079  0.4150E+03  0.1168E+04
      6.131  0.3905E+03  0.1189E+04
      6.183  0.3711E+03  0.1208E+04
      6.235  0.3608E+03  0.1227E+04
      6.287  0.3552E+03  0.1245E+04
      6.339  0.3568E+03  0.1264E+04
      6.391  0.3700E+03  0.1283E+04
      6.443  0.3823E+03  0.1303E+04
      6.495  0.3845E+03  0.1323E+04
      6.547  0.3925E+03  0.1343E+04
      6.599  0.4109E+03  0.1364E+04
      6.650  0.4244E+03  0.1386E+04
      6.702  0.4281E+03  0.1409E+04
      6.754  0.4248E+03  0.1431E+04
      6.806  0.4121E+03  0.1452E+04
      6.858  0.3906E+03  0.1472E+04
      6.910  0.3727E+03  0.1492E+04
      6.962  0.3664E+03  0.1511E+04
      7.014  0.3637E+03  0.1530E+04
      7.066  0.3690E+03  0.1549E+04
      7.118  0.3929E+03  0.1569E+04
      7.170  0.4157E+03  0.1591E+04
      7.221  0.4224E+03  0.1613E+04
      7.273  0.4221E+03  0.1635E+04
      7.325  0.4122E+03  0.1656E+04
      7.377  0.3861E+03  0.1676E+04
      7.429  0.3573E+03  0.1695E+04
      7.481  0.3395E+03  0.1712E+04
      7.533  0.3325E+03  0.1729E+04
      7.585  0.3285E+03  0.1747E+04
      7.637  0.3161E+03  0.1763E+04
      7.689  0.2944E+03  0.1778E+04
      7.741  0.2767E+03  0.1793E+04
      7.792  0.2683E+03  0.1806E+04
      7.844  0.2633E+03  0.1820E+04
      7.896  0.2571E+03  0.1834E+04
      7.948  0.2479E+03  0.1846E+04
      8.000  0.2428E+03  0.1859E+04
      8.052  0.2432E+03  0.1872E+04
      8.104  0.2388E+03  0.1884E+04
      8.156  0.2309E+03  0.1896E+04
      8.208  0.2291E+03  0.1908E+04
      8.260  0.2337E+03  0.1920E+04
      8.312  0.2377E+03  0.1932E+04
      8.363  0.2389E+03  0.1945E+04
      8.415  0.2366E+03  0.1957E+04
      8.467  0.2282E+03  0.1969E+04
      8.519  0.2179E+03  0.1980E+04
      8.571  0.2117E+03  0.1991E+04
      8.623  0.2067E+03  0.2002E+04
      8.675  0.1994E+03  0.2012E+04
      8.727  0.1910E+03  0.2022E+04
      8.779  0.1827E+03  0.2032E+04
      8.831  0.1795E+03  0.2041E+04
      8.883  0.1894E+03  0.2051E+04
      8.935  0.2149E+03  0.2062E+04
      8.986  0.2362E+03  0.2074E+04
      9.038  0.2358E+03  0.2086E+04
      9.090  0.2226E+03  0.2098E+04
      9.142  0.2051E+03  0.2109E+04
      9.194  0.1858E+03  0.2118E+04
      9.246  0.1793E+03  0.2128E+04
      9.298  0.1997E+03  0.2138E+04
      9.350  0.2302E+03  0.2150E+04
      9.402  0.2432E+03  0.2163E+04
      9.454  0.2429E+03  0.2175E+04
      9.506  0.2450E+03  0.2188E+04
      9.557  0.2441E+03  0.2201E+04
      9.609  0.2473E+03  0.2213E+04
      9.661  0.2777E+03  0.2228E+04
      9.713  0.3201E+03  0.2244E+04
      9.765  0.3355E+03  0.2262E+04
      9.817  0.3253E+03  0.2279E+04
      9.869  0.3162E+03  0.2295E+04
      9.921  0.3154E+03  0.2312E+04
      9.973  0.3228E+03  0.2328E+04
     10.025  0.3456E+03  0.2346E+04
     10.077  0.3830E+03  0.2366E+04
     10.128  0.4147E+03  0.2388E+04
     10.180  0.4290E+03  0.2410E+04
     10.232  0.4369E+03  0.2433E+04
     10.284  0.4501E+03  0.2456E+04
     10.336  0.4690E+03  0.2480E+04
     10.388  0.4874E+03  0.2506E+04
     10.440  0.4975E+03  0.2531E+04
     10.492  0.4881E+03  0.2557E+04
     10.544  0.4480E+03  0.2580E+04
     10.596  0.3862E+03  0.2600E+04
     10.648  0.3160E+03  0.2616E+04
     10.699  0.2306E+03  0.2628E+04
     10.751  0.1299E+03  0.2635E+04
     10.803  0.4409E+02  0.2637E+04
     10.855  0.1670E+01  0.2638E+04
     10.907 -0.5549E+01  0.2637E+04
     10.959 -0.2446E+01  0.2637E+04
     11.011 -0.5179E+00  0.2637E+04
     11.063 -0.6660E-01  0.2637E+04
     11.115 -0.5810E-02  0.2637E+04
     11.167 -0.3544E-03  0.2637E+04
     11.219 -0.1442E-04  0.2637E+04
     11.270 -0.3662E-06  0.2637E+04
     11.322 -0.5562E-08  0.2637E+04
     11.374 -0.2739E-09  0.2637E+04
     11.426 -0.2246E-07  0.2637E+04
     11.478 -0.1282E-05  0.2637E+04
     11.530 -0.4127E-04  0.2637E+04
     11.582 -0.7357E-03  0.2637E+04
     11.634 -0.6975E-02  0.2637E+04
     11.686 -0.3163E-01  0.2637E+04
     11.738 -0.3942E-01  0.2637E+04
     11.790  0.1621E+00  0.2637E+04
     11.842  0.6095E+00  0.2637E+04
     11.893  0.8680E+00  0.2637E+04
     11.945  0.1086E+01  0.2637E+04
     11.997  0.1688E+01  0.2637E+04
     12.049  0.1876E+01  0.2637E+04
     12.101  0.1345E+01  0.2638E+04
     12.153  0.8193E+00  0.2638E+04
     12.205  0.8722E+00  0.2638E+04
     12.257  0.1535E+01  0.2638E+04
     12.309  0.2385E+01  0.2638E+04
     12.361  0.3087E+01  0.2638E+04
     12.413  0.3067E+01  0.2638E+04
     12.464  0.2538E+01  0.2638E+04
     12.516  0.2345E+01  0.2638E+04
     12.568  0.2628E+01  0.2639E+04
     12.620  0.3147E+01  0.2639E+04
     12.672  0.3742E+01  0.2639E+04
     12.724  0.3764E+01  0.2639E+04
     12.776  0.2806E+01  0.2639E+04
     12.828  0.2272E+01  0.2639E+04
     12.880  0.2604E+01  0.2639E+04
     12.932  0.2438E+01  0.2640E+04
     12.984  0.1641E+01  0.2640E+04
     13.035  0.1104E+01  0.2640E+04
     13.087  0.7639E+00  0.2640E+04
     13.139  0.5781E+00  0.2640E+04
     13.191  0.8579E+00  0.2640E+04
     13.243  0.1195E+01  0.2640E+04
     13.295  0.1150E+01  0.2640E+04
     13.347  0.6841E+00  0.2640E+04
     13.399  0.1577E+00  0.2640E+04
     13.451 -0.4492E-01  0.2640E+04
     13.503 -0.3337E-01  0.2640E+04
     13.555 -0.7345E-02  0.2640E+04
     13.606 -0.7814E-03  0.2640E+04
     13.658 -0.4434E-04  0.2640E+04
     13.710 -0.1394E-05  0.2640E+04
     13.762 -0.2473E-07  0.2640E+04
     13.814 -0.2502E-09  0.2640E+04
     13.866 -0.1451E-11  0.2640E+04
     13.918 -0.5228E-14  0.2640E+04
     13.970  0.0000E+00  0.2640E+04
     14.022  0.0000E+00  0.2640E+04
     14.074  0.0000E+00  0.2640E+04
     14.126  0.0000E+00  0.2640E+04
     14.177  0.0000E+00  0.2640E+04
     14.229  0.0000E+00  0.2640E+04
     14.281  0.0000E+00  0.2640E+04
