   4   4   0   0
  0.1401122E+02  0.3826884E-09  0.3826884E-09  0.3826884E-09  0.5000000E-15
  1.000000000000000E-004
  CAR 
 Ir_Ru                                   
     14.72715179     -0.73818399  301      8.93366652      1.00000000
     -0.738  0.0000E+00  0.0000E+00
     -0.687  0.0000E+00  0.0000E+00
     -0.635  0.0000E+00  0.0000E+00
     -0.584  0.0000E+00  0.0000E+00
     -0.532  0.0000E+00  0.0000E+00
     -0.480  0.0000E+00  0.0000E+00
     -0.429  0.0000E+00  0.0000E+00
     -0.377  0.0000E+00  0.0000E+00
     -0.326  0.0000E+00  0.0000E+00
     -0.274  0.0000E+00  0.0000E+00
     -0.223  0.0000E+00  0.0000E+00
     -0.171  0.0000E+00  0.0000E+00
     -0.120  0.0000E+00  0.0000E+00
     -0.068  0.0000E+00  0.0000E+00
     -0.016  0.0000E+00  0.0000E+00
      0.035  0.0000E+00  0.0000E+00
      0.087  0.0000E+00  0.0000E+00
      0.138  0.0000E+00  0.0000E+00
      0.190  0.0000E+00  0.0000E+00
      0.241  0.0000E+00  0.0000E+00
      0.293  0.6304E-02  0.6519E-04
      0.344  0.4466E-01  0.1229E-02
      0.396  0.8400E-01  0.4697E-02
      0.447  0.9206E-01  0.9312E-02
      0.499  0.1044E+00  0.1432E-01
      0.551  0.1253E+00  0.2023E-01
      0.602  0.1473E+00  0.2727E-01
      0.654  0.1593E+00  0.3523E-01
      0.705  0.1650E+00  0.4356E-01
      0.757  0.1768E+00  0.5236E-01
      0.808  0.1894E+00  0.6180E-01
      0.860  0.2019E+00  0.7188E-01
      0.911  0.2143E+00  0.8261E-01
      0.963  0.2292E+00  0.9403E-01
      1.015  0.2438E+00  0.1062E+00
      1.066  0.2536E+00  0.1191E+00
      1.118  0.2642E+00  0.1324E+00
      1.169  0.2759E+00  0.1463E+00
      1.221  0.2873E+00  0.1608E+00
      1.272  0.2988E+00  0.1759E+00
      1.324  0.3134E+00  0.1917E+00
      1.375  0.3279E+00  0.2082E+00
      1.427  0.3433E+00  0.2255E+00
      1.479  0.3596E+00  0.2437E+00
      1.530  0.3751E+00  0.2626E+00
      1.582  0.3900E+00  0.2823E+00
      1.633  0.4059E+00  0.3028E+00
      1.685  0.4242E+00  0.3242E+00
      1.736  0.4441E+00  0.3466E+00
      1.788  0.4649E+00  0.3700E+00
      1.839  0.4866E+00  0.3945E+00
      1.891  0.5089E+00  0.4202E+00
      1.942  0.5320E+00  0.4470E+00
      1.994  0.5571E+00  0.4751E+00
      2.046  0.5925E+00  0.5046E+00
      2.097  0.6370E+00  0.5363E+00
      2.149  0.7654E+00  0.5730E+00
      2.200  0.8951E+00  0.6156E+00
      2.252  0.1021E+01  0.6653E+00
      2.303  0.1154E+01  0.7210E+00
      2.355  0.1485E+01  0.7882E+00
      2.406  0.1932E+01  0.8758E+00
      2.458  0.2426E+01  0.9875E+00
      2.510  0.2445E+01  0.1114E+01
      2.561  0.2453E+01  0.1240E+01
      2.613  0.2473E+01  0.1367E+01
      2.664  0.2571E+01  0.1498E+01
      2.716  0.2931E+01  0.1644E+01
      2.767  0.2969E+01  0.1796E+01
      2.819  0.2806E+01  0.1943E+01
      2.870  0.3022E+01  0.2092E+01
      2.922  0.3262E+01  0.2255E+01
      2.973  0.3468E+01  0.2429E+01
      3.025  0.3683E+01  0.2613E+01
      3.077  0.3903E+01  0.2808E+01
      3.128  0.4150E+01  0.3016E+01
      3.180  0.4423E+01  0.3237E+01
      3.231  0.4718E+01  0.3472E+01
      3.283  0.5094E+01  0.3725E+01
      3.334  0.5617E+01  0.4000E+01
      3.386  0.6328E+01  0.4308E+01
      3.437  0.7409E+01  0.4658E+01
      3.489  0.7828E+01  0.5053E+01
      3.541  0.7648E+01  0.5449E+01
      3.592  0.6956E+01  0.5833E+01
      3.644  0.6791E+01  0.6188E+01
      3.695  0.6433E+01  0.6535E+01
      3.747  0.6195E+01  0.6860E+01
      3.798  0.5971E+01  0.7174E+01
      3.850  0.5749E+01  0.7476E+01
      3.901  0.5636E+01  0.7769E+01
      3.953  0.5737E+01  0.8061E+01
      4.005  0.5625E+01  0.8353E+01
      4.056  0.5577E+01  0.8641E+01
      4.108  0.4930E+01  0.8911E+01
      4.159  0.4616E+01  0.9156E+01
      4.211  0.4341E+01  0.9386E+01
      4.262  0.4303E+01  0.9611E+01
      4.314  0.4081E+01  0.9826E+01
      4.365  0.3999E+01  0.1003E+02
      4.417  0.3946E+01  0.1025E+02
      4.468  0.3766E+01  0.1045E+02
      4.520  0.3858E+01  0.1064E+02
      4.572  0.3949E+01  0.1084E+02
      4.623  0.4516E+01  0.1106E+02
      4.675  0.3820E+01  0.1129E+02
      4.726  0.3705E+01  0.1149E+02
      4.778  0.4471E+01  0.1171E+02
      4.829  0.3764E+01  0.1194E+02
      4.881  0.5155E+01  0.1217E+02
      4.932  0.5092E+01  0.1244E+02
      4.984  0.4242E+01  0.1267E+02
      5.036  0.4065E+01  0.1289E+02
      5.087  0.4209E+01  0.1310E+02
      5.139  0.4431E+01  0.1332E+02
      5.190  0.4353E+01  0.1355E+02
      5.242  0.4437E+01  0.1378E+02
      5.293  0.4511E+01  0.1401E+02
      5.345  0.4663E+01  0.1424E+02
      5.396  0.4901E+01  0.1449E+02
      5.448  0.4868E+01  0.1474E+02
      5.500  0.5029E+01  0.1500E+02
      5.551  0.5120E+01  0.1526E+02
      5.603  0.5368E+01  0.1553E+02
      5.654  0.5317E+01  0.1583E+02
      5.706  0.5242E+01  0.1611E+02
      5.757  0.4187E+01  0.1636E+02
      5.809  0.4249E+01  0.1658E+02
      5.860  0.4062E+01  0.1679E+02
      5.912  0.4184E+01  0.1700E+02
      5.963  0.4490E+01  0.1723E+02
      6.015  0.4836E+01  0.1747E+02
      6.067  0.6005E+01  0.1775E+02
      6.118  0.5961E+01  0.1808E+02
      6.170  0.5930E+01  0.1837E+02
      6.221  0.7084E+01  0.1872E+02
      6.273  0.7957E+01  0.1910E+02
      6.324  0.8088E+01  0.1952E+02
      6.376  0.8362E+01  0.1994E+02
      6.427  0.9128E+01  0.2041E+02
      6.479  0.9075E+01  0.2088E+02
      6.531  0.9289E+01  0.2134E+02
      6.582  0.8334E+01  0.2182E+02
      6.634  0.6870E+01  0.2219E+02
      6.685  0.6313E+01  0.2253E+02
      6.737  0.6733E+01  0.2286E+02
      6.788  0.4950E+01  0.2315E+02
      6.840  0.3970E+01  0.2338E+02
      6.891  0.3547E+01  0.2356E+02
      6.943  0.3648E+01  0.2374E+02
      6.994  0.4645E+01  0.2395E+02
      7.046  0.4966E+01  0.2420E+02
      7.098  0.5108E+01  0.2447E+02
      7.149  0.5165E+01  0.2474E+02
      7.201  0.5334E+01  0.2501E+02
      7.252  0.5169E+01  0.2528E+02
      7.304  0.4745E+01  0.2554E+02
      7.355  0.4581E+01  0.2578E+02
      7.407  0.4371E+01  0.2601E+02
      7.458  0.4236E+01  0.2623E+02
      7.510  0.4231E+01  0.2645E+02
      7.562  0.4434E+01  0.2667E+02
      7.613  0.4531E+01  0.2690E+02
      7.665  0.4574E+01  0.2714E+02
      7.716  0.4327E+01  0.2738E+02
      7.768  0.4833E+01  0.2761E+02
      7.819  0.5278E+01  0.2787E+02
      7.871  0.5438E+01  0.2815E+02
      7.922  0.5475E+01  0.2843E+02
      7.974  0.4623E+01  0.2869E+02
      8.026  0.4212E+01  0.2892E+02
      8.077  0.4208E+01  0.2914E+02
      8.129  0.4202E+01  0.2935E+02
      8.180  0.4241E+01  0.2957E+02
      8.232  0.4094E+01  0.2979E+02
      8.283  0.5974E+01  0.3004E+02
      8.335  0.4717E+01  0.3029E+02
      8.386  0.5301E+01  0.3053E+02
      8.438  0.5203E+01  0.3080E+02
      8.489  0.4996E+01  0.3107E+02
      8.541  0.4983E+01  0.3132E+02
      8.593  0.4786E+01  0.3158E+02
      8.644  0.4426E+01  0.3181E+02
      8.696  0.4429E+01  0.3204E+02
      8.747  0.4538E+01  0.3227E+02
      8.799  0.4174E+01  0.3250E+02
      8.850  0.3808E+01  0.3270E+02
      8.902  0.3524E+01  0.3289E+02
      8.953  0.3444E+01  0.3307E+02
      9.005  0.3562E+01  0.3325E+02
      9.057  0.3653E+01  0.3344E+02
      9.108  0.3765E+01  0.3363E+02
      9.160  0.3701E+01  0.3382E+02
      9.211  0.3636E+01  0.3401E+02
      9.263  0.3535E+01  0.3419E+02
      9.314  0.3539E+01  0.3438E+02
      9.366  0.3461E+01  0.3456E+02
      9.417  0.3552E+01  0.3474E+02
      9.469  0.3406E+01  0.3492E+02
      9.520  0.3315E+01  0.3509E+02
      9.572  0.4025E+01  0.3526E+02
      9.624  0.3249E+01  0.3543E+02
      9.675  0.3316E+01  0.3560E+02
      9.727  0.3422E+01  0.3577E+02
      9.778  0.3578E+01  0.3595E+02
      9.830  0.3608E+01  0.3614E+02
      9.881  0.3736E+01  0.3633E+02
      9.933  0.3748E+01  0.3652E+02
      9.984  0.3781E+01  0.3671E+02
     10.036  0.3819E+01  0.3691E+02
     10.088  0.4023E+01  0.3711E+02
     10.139  0.4284E+01  0.3732E+02
     10.191  0.4704E+01  0.3756E+02
     10.242  0.4716E+01  0.3781E+02
     10.294  0.4695E+01  0.3804E+02
     10.345  0.3999E+01  0.3827E+02
     10.397  0.3644E+01  0.3849E+02
     10.448  0.3568E+01  0.3866E+02
     10.500  0.3187E+01  0.3884E+02
     10.552  0.2662E+01  0.3899E+02
     10.603  0.2205E+01  0.3911E+02
     10.655  0.1967E+01  0.3922E+02
     10.706  0.1768E+01  0.3932E+02
     10.758  0.1640E+01  0.3940E+02
     10.809  0.1398E+01  0.3949E+02
     10.861  0.1044E+01  0.3955E+02
     10.912  0.6669E+00  0.3959E+02
     10.964  0.4942E+00  0.3962E+02
     11.015  0.4457E+00  0.3965E+02
     11.067  0.4092E+00  0.3967E+02
     11.119  0.3847E+00  0.3969E+02
     11.170  0.3668E+00  0.3971E+02
     11.222  0.3527E+00  0.3973E+02
     11.273  0.3535E+00  0.3974E+02
     11.325  0.3382E+00  0.3976E+02
     11.376  0.3235E+00  0.3978E+02
     11.428  0.3101E+00  0.3980E+02
     11.479  0.2970E+00  0.3981E+02
     11.531  0.2842E+00  0.3983E+02
     11.583  0.2723E+00  0.3984E+02
     11.634  0.2620E+00  0.3985E+02
     11.686  0.2363E+00  0.3987E+02
     11.737  0.2223E+00  0.3988E+02
     11.789  0.2088E+00  0.3989E+02
     11.840  0.1977E+00  0.3990E+02
     11.892  0.1859E+00  0.3991E+02
     11.943  0.1736E+00  0.3992E+02
     11.995  0.1608E+00  0.3993E+02
     12.046  0.1475E+00  0.3994E+02
     12.098  0.1486E+00  0.3994E+02
     12.150  0.1319E+00  0.3995E+02
     12.201  0.1147E+00  0.3996E+02
     12.253  0.1050E+00  0.3996E+02
     12.304  0.9634E-01  0.3997E+02
     12.356  0.8869E-01  0.3997E+02
     12.407  0.8148E-01  0.3998E+02
     12.459  0.7427E-01  0.3998E+02
     12.510  0.6704E-01  0.3998E+02
     12.562  0.5934E-01  0.3999E+02
     12.614  0.5161E-01  0.3999E+02
     12.665  0.4447E-01  0.3999E+02
     12.717  0.3803E-01  0.4000E+02
     12.768  0.2296E-01  0.4000E+02
     12.820  0.1871E-01  0.4000E+02
     12.871  0.1508E-01  0.4000E+02
     12.923  0.2677E-02  0.4000E+02
     12.974  0.1968E-02  0.4000E+02
     13.026  0.1700E-02  0.4000E+02
     13.078  0.1459E-02  0.4000E+02
     13.129  0.1237E-02  0.4000E+02
     13.181  0.1033E-02  0.4000E+02
     13.232  0.8472E-03  0.4000E+02
     13.284  0.6799E-03  0.4000E+02
     13.335  0.5310E-03  0.4000E+02
     13.387  0.4005E-03  0.4000E+02
     13.438  0.2884E-03  0.4000E+02
     13.490  0.1946E-03  0.4000E+02
     13.541  0.1192E-03  0.4000E+02
     13.593  0.6221E-04  0.4000E+02
     13.645  0.2358E-04  0.4000E+02
     13.696  0.3328E-05  0.4000E+02
     13.748  0.0000E+00  0.4000E+02
     13.799  0.0000E+00  0.4000E+02
     13.851  0.0000E+00  0.4000E+02
     13.902  0.0000E+00  0.4000E+02
     13.954  0.0000E+00  0.4000E+02
     14.005  0.0000E+00  0.4000E+02
     14.057  0.0000E+00  0.4000E+02
     14.109  0.0000E+00  0.4000E+02
     14.160  0.0000E+00  0.4000E+02
     14.212  0.0000E+00  0.4000E+02
     14.263  0.0000E+00  0.4000E+02
     14.315  0.0000E+00  0.4000E+02
     14.366  0.0000E+00  0.4000E+02
     14.418  0.0000E+00  0.4000E+02
     14.469  0.0000E+00  0.4000E+02
     14.521  0.0000E+00  0.4000E+02
     14.572  0.0000E+00  0.4000E+02
     14.624  0.0000E+00  0.4000E+02
     14.676  0.0000E+00  0.4000E+02
     14.727  0.0000E+00  0.4000E+02
