       N       E                     dE             d eps       ncg     rms          rms(c)
RMM:   1     0.136790601249E+05    0.13679E+05   -0.47218E+05 25080   0.725E+02
RMM:   2     0.131329805785E+04   -0.12366E+05   -0.13120E+05 25080   0.260E+02
RMM:   3    -0.104566504791E+04   -0.23590E+04   -0.22855E+04 25080   0.111E+02
RMM:   4    -0.184600249003E+04   -0.80034E+03   -0.57406E+03 25080   0.768E+01
RMM:   5    -0.212910676523E+04   -0.28310E+03   -0.24895E+03 25080   0.451E+01
RMM:   6    -0.227482381298E+04   -0.14572E+03   -0.12951E+03 25080   0.349E+01
RMM:   7    -0.235268563284E+04   -0.77862E+02   -0.73852E+02 25080   0.235E+01
RMM:   8    -0.240018324304E+04   -0.47498E+02   -0.44556E+02 25080   0.195E+01
RMM:   9    -0.247907567131E+04   -0.78892E+02   -0.77972E+02 71858   0.137E+01
RMM:  10    -0.248863326118E+04   -0.95576E+01   -0.11980E+02 79648   0.283E+00
RMM:  11    -0.249087379200E+04   -0.22405E+01   -0.17843E+01 77281   0.687E-01
RMM:  12    -0.249118067499E+04   -0.30688E+00   -0.19865E+00 79531   0.198E-01    0.782E+01
RMM:  13    -0.241364675215E+04    0.77534E+02   -0.68484E+02 57183   0.246E+01    0.583E+01
RMM:  14    -0.236778054588E+04    0.45866E+02   -0.34131E+02 51434   0.174E+01    0.416E+01
RMM:  15    -0.233561438859E+04    0.32166E+02   -0.11844E+02 53325   0.101E+01    0.255E+01
RMM:  16    -0.232132965806E+04    0.14285E+02   -0.25840E+01 56032   0.434E+00    0.442E+00
RMM:  17    -0.232152637329E+04   -0.19672E+00   -0.64554E+00 73779   0.130E+00    0.445E+00
RMM:  18    -0.232113955502E+04    0.38682E+00   -0.11698E+00 64846   0.687E-01    0.344E+00
RMM:  19    -0.232074722852E+04    0.39233E+00   -0.67325E-01 59512   0.771E-01    0.164E+00
RMM:  20    -0.232069285757E+04    0.54371E-01   -0.24402E-01 63012   0.362E-01    0.150E+00
RMM:  21    -0.232066069873E+04    0.32159E-01   -0.10942E-01 63150   0.226E-01    0.125E+00
RMM:  22    -0.232063408679E+04    0.26612E-01   -0.47802E-02 61474   0.157E-01    0.720E-01
RMM:  23    -0.232062855797E+04    0.55288E-02   -0.13792E-02 67094   0.687E-02    0.491E-01
RMM:  24    -0.232062491253E+04    0.36454E-02   -0.10580E-02 62361   0.766E-02    0.243E-01
RMM:  25    -0.232062589190E+04   -0.97937E-03   -0.13723E-02 65879   0.815E-02    0.255E-01
RMM:  26    -0.232062601037E+04   -0.11847E-03   -0.31789E-03 75323   0.279E-02    0.263E-01
RMM:  27    -0.232062512516E+04    0.88521E-03   -0.68053E-04 60261   0.199E-02    0.175E-01
RMM:  28    -0.232062457850E+04    0.54666E-03   -0.10390E-03 63712   0.235E-02    0.748E-02
RMM:  29    -0.232062448495E+04    0.93550E-04   -0.53365E-04 71166   0.144E-02
   1 F= -.23206245E+04 E0= -.23206245E+04  d E =-.465475E-04
