       N       E                     dE             d eps       ncg     rms          rms(c)
RMM:   1     0.136790852689E+05    0.13679E+05   -0.47218E+05 25080   0.725E+02
RMM:   2     0.131335701648E+04   -0.12366E+05   -0.13120E+05 25080   0.260E+02
RMM:   3    -0.104568340724E+04   -0.23590E+04   -0.22855E+04 25080   0.111E+02
RMM:   4    -0.184600722475E+04   -0.80032E+03   -0.57405E+03 25080   0.768E+01
RMM:   5    -0.212912688048E+04   -0.28312E+03   -0.24896E+03 25080   0.451E+01
RMM:   6    -0.227484369308E+04   -0.14572E+03   -0.12951E+03 25080   0.349E+01
RMM:   7    -0.235270356839E+04   -0.77860E+02   -0.73851E+02 25080   0.235E+01
RMM:   8    -0.240019852659E+04   -0.47495E+02   -0.44554E+02 25080   0.195E+01
RMM:   9    -0.247908778104E+04   -0.78889E+02   -0.77969E+02 71849   0.137E+01
RMM:  10    -0.248864699967E+04   -0.95592E+01   -0.11982E+02 79657   0.283E+00
RMM:  11    -0.249088657568E+04   -0.22396E+01   -0.17839E+01 77256   0.687E-01
RMM:  12    -0.249119212842E+04   -0.30555E+00   -0.19760E+00 79532   0.198E-01    0.782E+01
RMM:  13    -0.241371662539E+04    0.77476E+02   -0.68524E+02 57203   0.246E+01    0.584E+01
RMM:  14    -0.236778161644E+04    0.45935E+02   -0.34135E+02 51446   0.174E+01    0.416E+01
RMM:  15    -0.233568516112E+04    0.32096E+02   -0.11852E+02 53324   0.101E+01    0.255E+01
RMM:  16    -0.232139917383E+04    0.14286E+02   -0.25873E+01 56077   0.434E+00    0.475E+00
RMM:  17    -0.232164367225E+04   -0.24450E+00   -0.65571E+00 74422   0.126E+00    0.470E+00
RMM:  18    -0.232114042791E+04    0.50324E+00   -0.11828E+00 64010   0.739E-01    0.333E+00
RMM:  19    -0.232075414355E+04    0.38628E+00   -0.70523E-01 59135   0.815E-01    0.169E+00
RMM:  20    -0.232071116019E+04    0.42983E-01   -0.25174E-01 65349   0.331E-01    0.167E+00
RMM:  21    -0.232066045453E+04    0.50706E-01   -0.12115E-01 62324   0.252E-01    0.121E+00
RMM:  22    -0.232063687780E+04    0.23577E-01   -0.52562E-02 61537   0.164E-01    0.767E-01
RMM:  23    -0.232062935625E+04    0.75216E-02   -0.15265E-02 66687   0.747E-02    0.469E-01
RMM:  24    -0.232062642707E+04    0.29292E-02   -0.92985E-03 62398   0.704E-02    0.262E-01
RMM:  25    -0.232062680468E+04   -0.37760E-03   -0.10496E-02 66767   0.687E-02    0.237E-01
RMM:  26    -0.232062721074E+04   -0.40607E-03   -0.42035E-03 70987   0.383E-02    0.250E-01
RMM:  27    -0.232062648906E+04    0.72168E-03   -0.63318E-04 60621   0.185E-02    0.178E-01
RMM:  28    -0.232062594957E+04    0.53949E-03   -0.70869E-04 61895   0.201E-02    0.906E-02
RMM:  29    -0.232062578947E+04    0.16010E-03   -0.63529E-04 68084   0.171E-02    0.305E-02
RMM:  30    -0.232062577446E+04    0.15007E-04   -0.13936E-04 73329   0.626E-03
   1 F= -.23206258E+04 E0= -.23206257E+04  d E =-.132328E-03
