 256 256   0   0
  0.1419206E+02  0.1537080E-08  0.1537218E-08  0.1537636E-08  0.5000000E-15
  1.000000000000000E-004
  CAR 
 Ir_Ru                                   
     12.68301115     -1.29531925  301      9.24213016      1.00000000
     -1.295  0.0000E+00  0.0000E+00
     -1.249  0.0000E+00  0.0000E+00
     -1.202  0.0000E+00  0.0000E+00
     -1.156  0.0000E+00  0.0000E+00
     -1.109 -0.2741E-28 -0.1277E-29
     -1.062 -0.4086E-25 -0.1905E-26
     -1.016 -0.3930E-22 -0.1833E-23
     -0.969 -0.2440E-19 -0.1139E-20
     -0.923 -0.9772E-17 -0.4565E-18
     -0.876 -0.2451E-14 -0.1146E-15
     -0.829 -0.4064E-12 -0.1905E-13
     -0.783 -0.4340E-10 -0.2041E-11
     -0.736 -0.2987E-08 -0.1412E-09
     -0.690 -0.1326E-06 -0.6318E-08
     -0.643 -0.3799E-05 -0.1834E-06
     -0.596 -0.7052E-04 -0.3469E-05
     -0.550 -0.8500E-03 -0.4308E-04
     -0.503 -0.6657E-02 -0.3532E-03
     -0.457 -0.3347E-01 -0.1913E-02
     -0.410 -0.1019E+00 -0.6659E-02
     -0.363 -0.1379E+00 -0.1309E-01
     -0.317  0.2221E+00 -0.2736E-02
     -0.270  0.1505E+01  0.6738E-01
     -0.224  0.3534E+01  0.2320E+00
     -0.177  0.5068E+01  0.4682E+00
     -0.130  0.5731E+01  0.7352E+00
     -0.084  0.7320E+01  0.1076E+01
     -0.037  0.1019E+02  0.1551E+01
      0.009  0.1102E+02  0.2065E+01
      0.056  0.9156E+01  0.2491E+01
      0.103  0.9374E+01  0.2928E+01
      0.149  0.1314E+02  0.3540E+01
      0.196  0.1591E+02  0.4282E+01
      0.242  0.1605E+02  0.5029E+01
      0.289  0.1672E+02  0.5809E+01
      0.335  0.1849E+02  0.6670E+01
      0.382  0.1835E+02  0.7525E+01
      0.429  0.1744E+02  0.8337E+01
      0.475  0.1980E+02  0.9260E+01
      0.522  0.2337E+02  0.1035E+02
      0.568  0.2406E+02  0.1147E+02
      0.615  0.2229E+02  0.1251E+02
      0.662  0.1875E+02  0.1338E+02
      0.708  0.1410E+02  0.1404E+02
      0.755  0.1115E+02  0.1456E+02
      0.801  0.1071E+02  0.1506E+02
      0.848  0.1114E+02  0.1558E+02
      0.895  0.1216E+02  0.1614E+02
      0.941  0.1463E+02  0.1682E+02
      0.988  0.1831E+02  0.1768E+02
      1.034  0.2285E+02  0.1874E+02
      1.081  0.2806E+02  0.2005E+02
      1.128  0.3126E+02  0.2151E+02
      1.174  0.2975E+02  0.2289E+02
      1.221  0.2589E+02  0.2410E+02
      1.267  0.2304E+02  0.2517E+02
      1.314  0.2096E+02  0.2615E+02
      1.361  0.2003E+02  0.2708E+02
      1.407  0.2164E+02  0.2809E+02
      1.454  0.2409E+02  0.2921E+02
      1.500  0.2565E+02  0.3041E+02
      1.547  0.2890E+02  0.3175E+02
      1.594  0.3503E+02  0.3339E+02
      1.640  0.3874E+02  0.3519E+02
      1.687  0.3790E+02  0.3696E+02
      1.733  0.3924E+02  0.3879E+02
      1.780  0.4546E+02  0.4090E+02
      1.827  0.4935E+02  0.4320E+02
      1.873  0.4786E+02  0.4543E+02
      1.920  0.4726E+02  0.4763E+02
      1.966  0.5081E+02  0.5000E+02
      2.013  0.5401E+02  0.5252E+02
      2.059  0.5536E+02  0.5510E+02
      2.106  0.6117E+02  0.5795E+02
      2.153  0.7432E+02  0.6141E+02
      2.199  0.8921E+02  0.6557E+02
      2.246  0.1030E+03  0.7037E+02
      2.292  0.1177E+03  0.7585E+02
      2.339  0.1309E+03  0.8195E+02
      2.386  0.1381E+03  0.8839E+02
      2.432  0.1430E+03  0.9505E+02
      2.479  0.1520E+03  0.1021E+03
      2.525  0.1608E+03  0.1096E+03
      2.572  0.1617E+03  0.1172E+03
      2.619  0.1614E+03  0.1247E+03
      2.665  0.1689E+03  0.1325E+03
      2.712  0.1784E+03  0.1409E+03
      2.758  0.1847E+03  0.1495E+03
      2.805  0.1974E+03  0.1587E+03
      2.852  0.2223E+03  0.1690E+03
      2.898  0.2473E+03  0.1805E+03
      2.945  0.2564E+03  0.1925E+03
      2.991  0.2500E+03  0.2041E+03
      3.038  0.2467E+03  0.2156E+03
      3.085  0.2618E+03  0.2278E+03
      3.131  0.2862E+03  0.2412E+03
      3.178  0.3011E+03  0.2552E+03
      3.224  0.3038E+03  0.2693E+03
      3.271  0.3049E+03  0.2836E+03
      3.318  0.3082E+03  0.2979E+03
      3.364  0.3109E+03  0.3124E+03
      3.411  0.3142E+03  0.3270E+03
      3.457  0.3214E+03  0.3420E+03
      3.504  0.3330E+03  0.3575E+03
      3.551  0.3437E+03  0.3735E+03
      3.597  0.3467E+03  0.3897E+03
      3.644  0.3447E+03  0.4058E+03
      3.690  0.3483E+03  0.4220E+03
      3.737  0.3573E+03  0.4386E+03
      3.783  0.3593E+03  0.4554E+03
      3.830  0.3524E+03  0.4718E+03
      3.877  0.3478E+03  0.4880E+03
      3.923  0.3497E+03  0.5043E+03
      3.970  0.3508E+03  0.5206E+03
      4.016  0.3418E+03  0.5366E+03
      4.063  0.3233E+03  0.5516E+03
      4.110  0.3070E+03  0.5659E+03
      4.156  0.2977E+03  0.5798E+03
      4.203  0.2877E+03  0.5932E+03
      4.249  0.2717E+03  0.6059E+03
      4.296  0.2541E+03  0.6177E+03
      4.343  0.2430E+03  0.6290E+03
      4.389  0.2451E+03  0.6405E+03
      4.436  0.2573E+03  0.6524E+03
      4.482  0.2617E+03  0.6646E+03
      4.529  0.2510E+03  0.6763E+03
      4.576  0.2474E+03  0.6879E+03
      4.622  0.2664E+03  0.7003E+03
      4.669  0.2912E+03  0.7138E+03
      4.715  0.3065E+03  0.7281E+03
      4.762  0.3136E+03  0.7427E+03
      4.809  0.3136E+03  0.7573E+03
      4.855  0.3052E+03  0.7716E+03
      4.902  0.2905E+03  0.7851E+03
      4.948  0.2786E+03  0.7981E+03
      4.995  0.2809E+03  0.8112E+03
      5.042  0.2946E+03  0.8249E+03
      5.088  0.3074E+03  0.8392E+03
      5.135  0.3092E+03  0.8536E+03
      5.181  0.2981E+03  0.8675E+03
      5.228  0.2860E+03  0.8808E+03
      5.274  0.2845E+03  0.8941E+03
      5.321  0.2902E+03  0.9076E+03
      5.368  0.2972E+03  0.9215E+03
      5.414  0.3019E+03  0.9355E+03
      5.461  0.2990E+03  0.9495E+03
      5.507  0.2891E+03  0.9629E+03
      5.554  0.2867E+03  0.9763E+03
      5.601  0.3022E+03  0.9904E+03
      5.647  0.3213E+03  0.1005E+04
      5.694  0.3253E+03  0.1021E+04
      5.740  0.3202E+03  0.1035E+04
      5.787  0.3198E+03  0.1050E+04
      5.834  0.3261E+03  0.1066E+04
      5.880  0.3365E+03  0.1081E+04
      5.927  0.3498E+03  0.1097E+04
      5.973  0.3650E+03  0.1115E+04
      6.020  0.3787E+03  0.1132E+04
      6.067  0.3854E+03  0.1150E+04
      6.113  0.3875E+03  0.1168E+04
      6.160  0.3916E+03  0.1186E+04
      6.206  0.3984E+03  0.1205E+04
      6.253  0.4093E+03  0.1224E+04
      6.300  0.4268E+03  0.1244E+04
      6.346  0.4460E+03  0.1265E+04
      6.393  0.4571E+03  0.1286E+04
      6.439  0.4572E+03  0.1307E+04
      6.486  0.4533E+03  0.1328E+04
      6.533  0.4502E+03  0.1349E+04
      6.579  0.4457E+03  0.1370E+04
      6.626  0.4392E+03  0.1391E+04
      6.672  0.4317E+03  0.1411E+04
      6.719  0.4248E+03  0.1431E+04
      6.766  0.4172E+03  0.1450E+04
      6.812  0.4022E+03  0.1469E+04
      6.859  0.3776E+03  0.1486E+04
      6.905  0.3548E+03  0.1503E+04
      6.952  0.3444E+03  0.1519E+04
      6.998  0.3394E+03  0.1535E+04
      7.045  0.3282E+03  0.1550E+04
      7.092  0.3151E+03  0.1565E+04
      7.138  0.3133E+03  0.1579E+04
      7.185  0.3192E+03  0.1594E+04
      7.231  0.3139E+03  0.1609E+04
      7.278  0.2885E+03  0.1622E+04
      7.325  0.2567E+03  0.1634E+04
      7.371  0.2403E+03  0.1645E+04
      7.418  0.2481E+03  0.1657E+04
      7.464  0.2705E+03  0.1670E+04
      7.511  0.2845E+03  0.1683E+04
      7.558  0.2770E+03  0.1696E+04
      7.604  0.2590E+03  0.1708E+04
      7.651  0.2484E+03  0.1719E+04
      7.697  0.2566E+03  0.1731E+04
      7.744  0.2819E+03  0.1744E+04
      7.791  0.3049E+03  0.1759E+04
      7.837  0.3120E+03  0.1773E+04
      7.884  0.3089E+03  0.1788E+04
      7.930  0.3033E+03  0.1802E+04
      7.977  0.2963E+03  0.1816E+04
      8.024  0.2911E+03  0.1829E+04
      8.070  0.2954E+03  0.1843E+04
      8.117  0.3087E+03  0.1857E+04
      8.163  0.3169E+03  0.1872E+04
      8.210  0.3176E+03  0.1887E+04
      8.257  0.3291E+03  0.1902E+04
      8.303  0.3529E+03  0.1919E+04
      8.350  0.3626E+03  0.1935E+04
      8.396  0.3411E+03  0.1951E+04
      8.443  0.3015E+03  0.1965E+04
      8.490  0.2679E+03  0.1978E+04
      8.536  0.2557E+03  0.1990E+04
      8.583  0.2700E+03  0.2002E+04
      8.629  0.2948E+03  0.2016E+04
      8.676  0.3006E+03  0.2030E+04
      8.722  0.2848E+03  0.2043E+04
      8.769  0.2681E+03  0.2056E+04
      8.816  0.2572E+03  0.2068E+04
      8.862  0.2492E+03  0.2079E+04
      8.909  0.2451E+03  0.2091E+04
      8.955  0.2452E+03  0.2102E+04
      9.002  0.2529E+03  0.2114E+04
      9.049  0.2726E+03  0.2127E+04
      9.095  0.2841E+03  0.2140E+04
      9.142  0.2671E+03  0.2152E+04
      9.188  0.2416E+03  0.2164E+04
      9.235  0.2286E+03  0.2174E+04
      9.282  0.2202E+03  0.2185E+04
      9.328  0.2138E+03  0.2195E+04
      9.375  0.2212E+03  0.2205E+04
      9.421  0.2416E+03  0.2216E+04
      9.468  0.2617E+03  0.2228E+04
      9.515  0.2733E+03  0.2241E+04
      9.561  0.2772E+03  0.2254E+04
      9.608  0.2764E+03  0.2267E+04
      9.654  0.2713E+03  0.2280E+04
      9.701  0.2615E+03  0.2292E+04
      9.748  0.2447E+03  0.2303E+04
      9.794  0.2249E+03  0.2314E+04
      9.841  0.2192E+03  0.2324E+04
      9.887  0.2355E+03  0.2335E+04
      9.934  0.2630E+03  0.2347E+04
      9.981  0.2939E+03  0.2361E+04
     10.027  0.3262E+03  0.2376E+04
     10.074  0.3487E+03  0.2392E+04
     10.120  0.3471E+03  0.2408E+04
     10.167  0.3249E+03  0.2424E+04
     10.214  0.3102E+03  0.2438E+04
     10.260  0.3275E+03  0.2453E+04
     10.307  0.3841E+03  0.2471E+04
     10.353  0.4634E+03  0.2493E+04
     10.400  0.5177E+03  0.2517E+04
     10.446  0.5107E+03  0.2541E+04
     10.493  0.4534E+03  0.2562E+04
     10.540  0.3770E+03  0.2579E+04
     10.586  0.3047E+03  0.2594E+04
     10.633  0.2499E+03  0.2605E+04
     10.679  0.2136E+03  0.2615E+04
     10.726  0.1823E+03  0.2624E+04
     10.773  0.1439E+03  0.2630E+04
     10.819  0.9916E+02  0.2635E+04
     10.866  0.5795E+02  0.2638E+04
     10.912  0.2833E+02  0.2639E+04
     10.959  0.1118E+02  0.2639E+04
     11.006  0.3426E+01  0.2640E+04
     11.052  0.1433E+01  0.2640E+04
     11.099  0.1623E+01  0.2640E+04
     11.145  0.1485E+01  0.2640E+04
     11.192  0.6580E+00  0.2640E+04
     11.239  0.2344E-01  0.2640E+04
     11.285 -0.1071E+00  0.2640E+04
     11.332 -0.4978E-01  0.2640E+04
     11.378 -0.1116E-01  0.2640E+04
     11.425 -0.3437E-02  0.2640E+04
     11.472 -0.1292E-01  0.2640E+04
     11.518 -0.4201E-01  0.2640E+04
     11.565 -0.3684E-01  0.2640E+04
     11.611  0.1950E+00  0.2640E+04
     11.658  0.7099E+00  0.2640E+04
     11.705  0.1026E+01  0.2640E+04
     11.751  0.7287E+00  0.2640E+04
     11.798  0.2096E+00  0.2640E+04
     11.844 -0.3387E-01  0.2640E+04
     11.891 -0.4314E-01  0.2640E+04
     11.938 -0.1353E-01  0.2640E+04
     11.984 -0.2206E-02  0.2640E+04
     12.031 -0.2110E-03  0.2640E+04
     12.077 -0.1235E-04  0.2640E+04
     12.124 -0.4521E-06  0.2640E+04
     12.170 -0.1046E-07  0.2640E+04
     12.217 -0.1539E-09  0.2640E+04
     12.264 -0.1448E-11  0.2640E+04
     12.310 -0.8637E-14  0.2640E+04
     12.357  0.0000E+00  0.2640E+04
     12.403  0.0000E+00  0.2640E+04
     12.450  0.0000E+00  0.2640E+04
     12.497  0.0000E+00  0.2640E+04
     12.543  0.0000E+00  0.2640E+04
     12.590  0.0000E+00  0.2640E+04
     12.636  0.0000E+00  0.2640E+04
     12.683  0.0000E+00  0.2640E+04
