  96  96   0   0
  0.1439516E+02  0.1183914E-08  0.1183913E-08  0.1183900E-08  0.5000000E-15
  1.000000000000000E-004
  CAR 
 Ir_Ru                                   
     15.43593478     -1.53578872  301      9.75774662      1.00000000
     -1.536  0.0000E+00  0.0000E+00
     -1.479  0.0000E+00  0.0000E+00
     -1.423  0.0000E+00  0.0000E+00
     -1.366 -0.7624E-30 -0.4313E-31
     -1.309 -0.6200E-26 -0.3508E-27
     -1.253 -0.2644E-22 -0.1496E-23
     -1.196 -0.5907E-19 -0.3343E-20
     -1.140 -0.6907E-16 -0.3911E-17
     -1.083 -0.4082E-13 -0.2313E-14
     -1.027 -0.1290E-10 -0.7323E-12
     -0.970 -0.2116E-08 -0.1204E-09
     -0.913 -0.1791E-06 -0.1025E-07
     -0.857 -0.7796E-05 -0.4513E-06
     -0.800 -0.1741E-03 -0.1030E-04
     -0.744 -0.2012E-02 -0.1241E-03
     -0.687 -0.1239E-01 -0.8252E-03
     -0.631 -0.3964E-01 -0.3068E-02
     -0.574 -0.1804E-01 -0.4088E-02
     -0.517  0.3621E+00  0.1639E-01
     -0.461  0.1218E+01  0.8530E-01
     -0.404  0.1733E+01  0.1833E+00
     -0.348  0.1942E+01  0.2932E+00
     -0.291  0.2859E+01  0.4550E+00
     -0.235  0.3506E+01  0.6533E+00
     -0.178  0.3302E+01  0.8401E+00
     -0.121  0.3572E+01  0.1042E+01
     -0.065  0.3822E+01  0.1258E+01
     -0.008  0.3839E+01  0.1476E+01
      0.048  0.4682E+01  0.1740E+01
      0.105  0.5510E+01  0.2052E+01
      0.161  0.5374E+01  0.2356E+01
      0.218  0.5648E+01  0.2676E+01
      0.275  0.5868E+01  0.3008E+01
      0.331  0.4894E+01  0.3284E+01
      0.388  0.4819E+01  0.3557E+01
      0.444  0.6228E+01  0.3909E+01
      0.501  0.7910E+01  0.4357E+01
      0.557  0.9021E+01  0.4867E+01
      0.614  0.8505E+01  0.5348E+01
      0.671  0.7288E+01  0.5761E+01
      0.727  0.6935E+01  0.6153E+01
      0.784  0.6064E+01  0.6496E+01
      0.840  0.5942E+01  0.6832E+01
      0.897  0.9059E+01  0.7345E+01
      0.953  0.1256E+02  0.8055E+01
      1.010  0.1315E+02  0.8800E+01
      1.067  0.1184E+02  0.9470E+01
      1.123  0.1008E+02  0.1004E+02
      1.180  0.8553E+01  0.1052E+02
      1.236  0.8656E+01  0.1101E+02
      1.293  0.1068E+02  0.1162E+02
      1.349  0.1395E+02  0.1241E+02
      1.406  0.1650E+02  0.1334E+02
      1.463  0.1667E+02  0.1428E+02
      1.519  0.1450E+02  0.1510E+02
      1.576  0.9982E+01  0.1567E+02
      1.632  0.7299E+01  0.1608E+02
      1.689  0.9912E+01  0.1664E+02
      1.745  0.1404E+02  0.1744E+02
      1.802  0.1625E+02  0.1836E+02
      1.859  0.1842E+02  0.1940E+02
      1.915  0.1797E+02  0.2042E+02
      1.972  0.1444E+02  0.2123E+02
      2.028  0.1625E+02  0.2215E+02
      2.085  0.2293E+02  0.2345E+02
      2.141  0.2885E+02  0.2508E+02
      2.198  0.3280E+02  0.2694E+02
      2.255  0.3803E+02  0.2909E+02
      2.311  0.5252E+02  0.3206E+02
      2.368  0.7194E+02  0.3613E+02
      2.424  0.7931E+02  0.4062E+02
      2.481  0.7480E+02  0.4485E+02
      2.537  0.7035E+02  0.4883E+02
      2.594  0.6685E+02  0.5261E+02
      2.651  0.6590E+02  0.5634E+02
      2.707  0.7068E+02  0.6034E+02
      2.764  0.7747E+02  0.6472E+02
      2.820  0.8487E+02  0.6952E+02
      2.877  0.9100E+02  0.7467E+02
      2.933  0.9306E+02  0.7993E+02
      2.990  0.9901E+02  0.8553E+02
      3.047  0.1106E+03  0.9179E+02
      3.103  0.1125E+03  0.9815E+02
      3.160  0.1053E+03  0.1041E+03
      3.216  0.1054E+03  0.1101E+03
      3.273  0.1106E+03  0.1163E+03
      3.329  0.1146E+03  0.1228E+03
      3.386  0.1230E+03  0.1298E+03
      3.443  0.1308E+03  0.1372E+03
      3.499  0.1256E+03  0.1443E+03
      3.556  0.1130E+03  0.1507E+03
      3.612  0.1074E+03  0.1567E+03
      3.669  0.1046E+03  0.1627E+03
      3.725  0.1017E+03  0.1684E+03
      3.782  0.9869E+02  0.1740E+03
      3.839  0.9325E+02  0.1793E+03
      3.895  0.9291E+02  0.1845E+03
      3.952  0.9145E+02  0.1897E+03
      4.008  0.9011E+02  0.1948E+03
      4.065  0.1021E+03  0.2006E+03
      4.121  0.1142E+03  0.2070E+03
      4.178  0.1237E+03  0.2140E+03
      4.235  0.1372E+03  0.2218E+03
      4.291  0.1424E+03  0.2299E+03
      4.348  0.1354E+03  0.2375E+03
      4.404  0.1242E+03  0.2445E+03
      4.461  0.1121E+03  0.2509E+03
      4.517  0.9841E+02  0.2565E+03
      4.574  0.9070E+02  0.2616E+03
      4.631  0.9211E+02  0.2668E+03
      4.687  0.9786E+02  0.2723E+03
      4.744  0.1129E+03  0.2787E+03
      4.800  0.1291E+03  0.2860E+03
      4.857  0.1324E+03  0.2935E+03
      4.913  0.1333E+03  0.3011E+03
      4.970  0.1358E+03  0.3087E+03
      5.027  0.1332E+03  0.3163E+03
      5.083  0.1346E+03  0.3239E+03
      5.140  0.1371E+03  0.3316E+03
      5.196  0.1242E+03  0.3387E+03
      5.253  0.9694E+02  0.3442E+03
      5.309  0.8005E+02  0.3487E+03
      5.366  0.8040E+02  0.3532E+03
      5.423  0.7785E+02  0.3576E+03
      5.479  0.6692E+02  0.3614E+03
      5.536  0.5796E+02  0.3647E+03
      5.592  0.6073E+02  0.3681E+03
      5.649  0.8262E+02  0.3728E+03
      5.705  0.1190E+03  0.3795E+03
      5.762  0.1521E+03  0.3881E+03
      5.819  0.1655E+03  0.3975E+03
      5.875  0.1631E+03  0.4067E+03
      5.932  0.1639E+03  0.4160E+03
      5.988  0.1614E+03  0.4251E+03
      6.045  0.1458E+03  0.4334E+03
      6.101  0.1325E+03  0.4409E+03
      6.158  0.1391E+03  0.4487E+03
      6.215  0.1519E+03  0.4573E+03
      6.271  0.1525E+03  0.4660E+03
      6.328  0.1474E+03  0.4743E+03
      6.384  0.1419E+03  0.4823E+03
      6.441  0.1353E+03  0.4900E+03
      6.497  0.1342E+03  0.4976E+03
      6.554  0.1440E+03  0.5057E+03
      6.611  0.1587E+03  0.5147E+03
      6.667  0.1656E+03  0.5241E+03
      6.724  0.1614E+03  0.5332E+03
      6.780  0.1608E+03  0.5423E+03
      6.837  0.1683E+03  0.5518E+03
      6.894  0.1589E+03  0.5608E+03
      6.950  0.1373E+03  0.5686E+03
      7.007  0.1364E+03  0.5763E+03
      7.063  0.1540E+03  0.5850E+03
      7.120  0.1678E+03  0.5945E+03
      7.176  0.1641E+03  0.6038E+03
      7.233  0.1442E+03  0.6119E+03
      7.290  0.1222E+03  0.6188E+03
      7.346  0.1112E+03  0.6251E+03
      7.403  0.1160E+03  0.6317E+03
      7.459  0.1279E+03  0.6389E+03
      7.516  0.1290E+03  0.6462E+03
      7.572  0.1242E+03  0.6533E+03
      7.629  0.1242E+03  0.6603E+03
      7.686  0.1200E+03  0.6671E+03
      7.742  0.1072E+03  0.6731E+03
      7.799  0.9225E+02  0.6784E+03
      7.855  0.8828E+02  0.6834E+03
      7.912  0.9428E+02  0.6887E+03
      7.968  0.9576E+02  0.6941E+03
      8.025  0.9512E+02  0.6995E+03
      8.082  0.9808E+02  0.7050E+03
      8.138  0.9327E+02  0.7103E+03
      8.195  0.8141E+02  0.7149E+03
      8.251  0.7790E+02  0.7193E+03
      8.308  0.8259E+02  0.7240E+03
      8.364  0.8531E+02  0.7288E+03
      8.421  0.7964E+02  0.7333E+03
      8.478  0.7257E+02  0.7374E+03
      8.534  0.7515E+02  0.7417E+03
      8.591  0.8201E+02  0.7463E+03
      8.647  0.8332E+02  0.7510E+03
      8.704  0.7750E+02  0.7554E+03
      8.760  0.6487E+02  0.7591E+03
      8.817  0.5845E+02  0.7624E+03
      8.874  0.6356E+02  0.7660E+03
      8.930  0.7081E+02  0.7700E+03
      8.987  0.8013E+02  0.7745E+03
      9.043  0.8366E+02  0.7793E+03
      9.100  0.7338E+02  0.7834E+03
      9.156  0.6044E+02  0.7868E+03
      9.213  0.6345E+02  0.7904E+03
      9.270  0.7585E+02  0.7947E+03
      9.326  0.8110E+02  0.7993E+03
      9.383  0.8494E+02  0.8041E+03
      9.439  0.9297E+02  0.8094E+03
      9.496  0.1003E+03  0.8150E+03
      9.552  0.1003E+03  0.8207E+03
      9.609  0.9042E+02  0.8258E+03
      9.666  0.8559E+02  0.8307E+03
      9.722  0.9613E+02  0.8361E+03
      9.779  0.1116E+03  0.8424E+03
      9.835  0.1192E+03  0.8492E+03
      9.892  0.1160E+03  0.8557E+03
      9.948  0.1183E+03  0.8624E+03
     10.005  0.1321E+03  0.8699E+03
     10.062  0.1426E+03  0.8780E+03
     10.118  0.1418E+03  0.8860E+03
     10.175  0.1390E+03  0.8938E+03
     10.231  0.1419E+03  0.9019E+03
     10.288  0.1492E+03  0.9103E+03
     10.344  0.1593E+03  0.9193E+03
     10.401  0.1730E+03  0.9291E+03
     10.458  0.1893E+03  0.9398E+03
     10.514  0.2035E+03  0.9513E+03
     10.571  0.2007E+03  0.9627E+03
     10.627  0.1781E+03  0.9728E+03
     10.684  0.1620E+03  0.9819E+03
     10.740  0.1539E+03  0.9906E+03
     10.797  0.1320E+03  0.9981E+03
     10.854  0.1015E+03  0.1004E+04
     10.910  0.7360E+02  0.1008E+04
     10.967  0.4877E+02  0.1011E+04
     11.023  0.2950E+02  0.1012E+04
     11.080  0.1852E+02  0.1013E+04
     11.136  0.1353E+02  0.1014E+04
     11.193  0.9953E+01  0.1015E+04
     11.250  0.6832E+01  0.1015E+04
     11.306  0.5789E+01  0.1016E+04
     11.363  0.5735E+01  0.1016E+04
     11.419  0.4738E+01  0.1016E+04
     11.476  0.3158E+01  0.1016E+04
     11.532  0.2299E+01  0.1016E+04
     11.589  0.2843E+01  0.1017E+04
     11.646  0.3692E+01  0.1017E+04
     11.702  0.3286E+01  0.1017E+04
     11.759  0.2176E+01  0.1017E+04
     11.815  0.2051E+01  0.1017E+04
     11.872  0.2421E+01  0.1017E+04
     11.928  0.2406E+01  0.1018E+04
     11.985  0.2709E+01  0.1018E+04
     12.042  0.3594E+01  0.1018E+04
     12.098  0.4478E+01  0.1018E+04
     12.155  0.4542E+01  0.1018E+04
     12.211  0.3603E+01  0.1019E+04
     12.268  0.3266E+01  0.1019E+04
     12.324  0.4381E+01  0.1019E+04
     12.381  0.5192E+01  0.1019E+04
     12.438  0.4778E+01  0.1020E+04
     12.494  0.4669E+01  0.1020E+04
     12.551  0.5039E+01  0.1020E+04
     12.607  0.4385E+01  0.1020E+04
     12.664  0.3028E+01  0.1021E+04
     12.720  0.2552E+01  0.1021E+04
     12.777  0.2870E+01  0.1021E+04
     12.834  0.3055E+01  0.1021E+04
     12.890  0.3224E+01  0.1021E+04
     12.947  0.3544E+01  0.1021E+04
     13.003  0.3958E+01  0.1022E+04
     13.060  0.4336E+01  0.1022E+04
     13.116  0.4634E+01  0.1022E+04
     13.173  0.4591E+01  0.1022E+04
     13.230  0.3197E+01  0.1023E+04
     13.286  0.1673E+01  0.1023E+04
     13.343  0.1532E+01  0.1023E+04
     13.399  0.1862E+01  0.1023E+04
     13.456  0.1680E+01  0.1023E+04
     13.512  0.1618E+01  0.1023E+04
     13.569  0.2207E+01  0.1023E+04
     13.626  0.2557E+01  0.1023E+04
     13.682  0.2049E+01  0.1023E+04
     13.739  0.1187E+01  0.1023E+04
     13.795  0.6358E+00  0.1024E+04
     13.852  0.4169E+00  0.1024E+04
     13.908  0.2860E+00  0.1024E+04
     13.965  0.2931E+00  0.1024E+04
     14.022  0.6792E+00  0.1024E+04
     14.078  0.1121E+01  0.1024E+04
     14.135  0.1086E+01  0.1024E+04
     14.191  0.8491E+00  0.1024E+04
     14.248  0.6631E+00  0.1024E+04
     14.304  0.6386E+00  0.1024E+04
     14.361  0.7543E+00  0.1024E+04
     14.418  0.7542E+00  0.1024E+04
     14.474  0.5542E+00  0.1024E+04
     14.531  0.2011E+00  0.1024E+04
     14.587 -0.8784E-02  0.1024E+04
     14.644 -0.2449E-01  0.1024E+04
     14.700 -0.5789E-02  0.1024E+04
     14.757 -0.5582E-03  0.1024E+04
     14.814 -0.2549E-04  0.1024E+04
     14.870 -0.5793E-06  0.1024E+04
     14.927 -0.6701E-08  0.1024E+04
     14.983 -0.3992E-10  0.1024E+04
     15.040 -0.1233E-12  0.1024E+04
     15.097 -0.2512E-15  0.1024E+04
     15.153  0.0000E+00  0.1024E+04
     15.210  0.0000E+00  0.1024E+04
     15.266  0.0000E+00  0.1024E+04
     15.323  0.0000E+00  0.1024E+04
     15.379  0.0000E+00  0.1024E+04
     15.436  0.0000E+00  0.1024E+04
