<?xml version="1.0" encoding="ISO-8859-1"?>
<modeling>
 <generator>
  <i name="program" type="string">vasp </i>
  <i name="version" type="string">5.4.1  </i>
  <i name="subversion" type="string">24Jun15 (build Dec 12 2017 15:24:27) complex                          parallel </i>
  <i name="platform" type="string">IFC91_ompi </i>
  <i name="date" type="string">2020 04 03 </i>
  <i name="time" type="string">19:55:43 </i>
 </generator>
 <incar>
  <i type="string" name="SYSTEM"> Ir_Ru</i>
  <i type="int" name="ISTART">     0</i>
  <i type="string" name="PREC">accurate</i>
  <i type="string" name="ALGO"> Very_Fast</i>
  <i type="int" name="ICHARG">     2</i>
  <i type="int" name="NELMIN">     5</i>
  <i type="int" name="IBRION">    -1</i>
  <i name="EDIFFG">      0.00001000</i>
  <i type="int" name="ISIF">     2</i>
  <i type="string" name="LREAL"> AUTO</i>
  <i type="int" name="ISMEAR">     1</i>
  <i name="SIGMA">      0.10000000</i>
  <v type="int" name="KPOINT_BSE">    -1     0     0     0</v>
 </incar>
 <kpoints>
  <generation param="Gamma">
   <v type="int" name="divisions">       5        5        5 </v>
   <v name="usershift">      0.00000000       0.00000000       0.00000000 </v>
   <v name="genvec1">      0.20000000       0.00000000       0.00000000 </v>
   <v name="genvec2">      0.00000000       0.20000000      -0.00000000 </v>
   <v name="genvec3">     -0.00000000      -0.00000000       0.20000000 </v>
   <v name="shift">      0.00000000       0.00000000       0.00000000 </v>
  </generation>
  <varray name="kpointlist" >
   <v>       0.00000000       0.00000000       0.00000000 </v>
   <v>       0.20000000       0.00000000       0.00000000 </v>
   <v>       0.40000000       0.00000000       0.00000000 </v>
   <v>       0.00000000       0.20000000      -0.00000000 </v>
   <v>       0.20000000       0.20000000       0.00000000 </v>
   <v>       0.40000000       0.20000000       0.00000000 </v>
   <v>      -0.40000000       0.20000000      -0.00000000 </v>
   <v>      -0.20000000       0.20000000      -0.00000000 </v>
   <v>       0.00000000       0.40000000      -0.00000000 </v>
   <v>       0.20000000       0.40000000       0.00000000 </v>
   <v>       0.40000000       0.40000000       0.00000000 </v>
   <v>      -0.40000000       0.40000000      -0.00000000 </v>
   <v>      -0.20000000       0.40000000      -0.00000000 </v>
   <v>       0.00000000       0.00000000       0.20000000 </v>
   <v>       0.20000000       0.00000000       0.20000000 </v>
   <v>       0.40000000       0.00000000       0.20000000 </v>
   <v>      -0.40000000       0.00000000       0.20000000 </v>
   <v>      -0.20000000       0.00000000       0.20000000 </v>
   <v>       0.00000000       0.20000000       0.20000000 </v>
   <v>       0.20000000       0.20000000       0.20000000 </v>
   <v>       0.40000000       0.20000000       0.20000000 </v>
   <v>      -0.40000000       0.20000000       0.20000000 </v>
   <v>      -0.20000000       0.20000000       0.20000000 </v>
   <v>       0.00000000       0.40000000       0.20000000 </v>
   <v>       0.20000000       0.40000000       0.20000000 </v>
   <v>       0.40000000       0.40000000       0.20000000 </v>
   <v>      -0.40000000       0.40000000       0.20000000 </v>
   <v>      -0.20000000       0.40000000       0.20000000 </v>
   <v>      -0.00000000      -0.40000000       0.20000000 </v>
   <v>       0.20000000      -0.40000000       0.20000000 </v>
   <v>       0.40000000      -0.40000000       0.20000000 </v>
   <v>      -0.40000000      -0.40000000       0.20000000 </v>
   <v>      -0.20000000      -0.40000000       0.20000000 </v>
   <v>      -0.00000000      -0.20000000       0.20000000 </v>
   <v>       0.20000000      -0.20000000       0.20000000 </v>
   <v>       0.40000000      -0.20000000       0.20000000 </v>
   <v>      -0.40000000      -0.20000000       0.20000000 </v>
   <v>      -0.20000000      -0.20000000       0.20000000 </v>
   <v>       0.00000000       0.00000000       0.40000000 </v>
   <v>       0.20000000       0.00000000       0.40000000 </v>
   <v>       0.40000000       0.00000000       0.40000000 </v>
   <v>      -0.40000000       0.00000000       0.40000000 </v>
   <v>      -0.20000000       0.00000000       0.40000000 </v>
   <v>       0.00000000       0.20000000       0.40000000 </v>
   <v>       0.20000000       0.20000000       0.40000000 </v>
   <v>       0.40000000       0.20000000       0.40000000 </v>
   <v>      -0.40000000       0.20000000       0.40000000 </v>
   <v>      -0.20000000       0.20000000       0.40000000 </v>
   <v>       0.00000000       0.40000000       0.40000000 </v>
   <v>       0.20000000       0.40000000       0.40000000 </v>
   <v>       0.40000000       0.40000000       0.40000000 </v>
   <v>      -0.40000000       0.40000000       0.40000000 </v>
   <v>      -0.20000000       0.40000000       0.40000000 </v>
   <v>      -0.00000000      -0.40000000       0.40000000 </v>
   <v>       0.20000000      -0.40000000       0.40000000 </v>
   <v>       0.40000000      -0.40000000       0.40000000 </v>
   <v>      -0.40000000      -0.40000000       0.40000000 </v>
   <v>      -0.20000000      -0.40000000       0.40000000 </v>
   <v>       0.00000000      -0.20000000       0.40000000 </v>
   <v>       0.20000000      -0.20000000       0.40000000 </v>
   <v>       0.40000000      -0.20000000       0.40000000 </v>
   <v>      -0.40000000      -0.20000000       0.40000000 </v>
   <v>      -0.20000000      -0.20000000       0.40000000 </v>
  </varray>
  <varray name="weights" >
   <v>       0.00800000 </v>
   <v>       0.01600000 </v>
   <v>       0.01600000 </v>
   <v>       0.01600000 </v>
   <v>       0.01600000 </v>
   <v>       0.01600000 </v>
   <v>       0.01600000 </v>
   <v>       0.01600000 </v>
   <v>       0.01600000 </v>
   <v>       0.01600000 </v>
   <v>       0.01600000 </v>
   <v>       0.01600000 </v>
   <v>       0.01600000 </v>
   <v>       0.01600000 </v>
   <v>       0.01600000 </v>
   <v>       0.01600000 </v>
   <v>       0.01600000 </v>
   <v>       0.01600000 </v>
   <v>       0.01600000 </v>
   <v>       0.01600000 </v>
   <v>       0.01600000 </v>
   <v>       0.01600000 </v>
   <v>       0.01600000 </v>
   <v>       0.01600000 </v>
   <v>       0.01600000 </v>
   <v>       0.01600000 </v>
   <v>       0.01600000 </v>
   <v>       0.01600000 </v>
   <v>       0.01600000 </v>
   <v>       0.01600000 </v>
   <v>       0.01600000 </v>
   <v>       0.01600000 </v>
   <v>       0.01600000 </v>
   <v>       0.01600000 </v>
   <v>       0.01600000 </v>
   <v>       0.01600000 </v>
   <v>       0.01600000 </v>
   <v>       0.01600000 </v>
   <v>       0.01600000 </v>
   <v>       0.01600000 </v>
   <v>       0.01600000 </v>
   <v>       0.01600000 </v>
   <v>       0.01600000 </v>
   <v>       0.01600000 </v>
   <v>       0.01600000 </v>
   <v>       0.01600000 </v>
   <v>       0.01600000 </v>
   <v>       0.01600000 </v>
   <v>       0.01600000 </v>
   <v>       0.01600000 </v>
   <v>       0.01600000 </v>
   <v>       0.01600000 </v>
   <v>       0.01600000 </v>
   <v>       0.01600000 </v>
   <v>       0.01600000 </v>
   <v>       0.01600000 </v>
   <v>       0.01600000 </v>
   <v>       0.01600000 </v>
   <v>       0.01600000 </v>
   <v>       0.01600000 </v>
   <v>       0.01600000 </v>
   <v>       0.01600000 </v>
   <v>       0.01600000 </v>
  </varray>
 </kpoints>
 <parameters>
  <separator name="general" >
   <i type="string" name="SYSTEM">Ir_Ru</i>
   <i type="logical" name="LCOMPAT"> F  </i>
  </separator>
  <separator name="electronic" >
   <i type="string" name="PREC">accura</i>
   <i name="ENMAX">    213.27600000</i>
   <i name="ENAUG">    333.49400000</i>
   <i name="EDIFF">      0.00010000</i>
   <i type="int" name="IALGO">    48</i>
   <i type="int" name="IWAVPR">    10</i>
   <i type="int" name="NBANDS">   512</i>
   <i name="NELECT">    840.00000000</i>
   <i type="int" name="TURBO">     0</i>
   <i type="int" name="IRESTART">     0</i>
   <i type="int" name="NREBOOT">     0</i>
   <i type="int" name="NMIN">     0</i>
   <i name="EREF">      0.00000000</i>
   <separator name="electronic smearing" >
    <i type="int" name="ISMEAR">     1</i>
    <i name="SIGMA">      0.10000000</i>
    <i name="KSPACING">      0.50000000</i>
    <i type="logical" name="KGAMMA"> T  </i>
   </separator>
   <separator name="electronic projectors" >
    <i type="logical" name="LREAL"> T  </i>
    <v name="ROPT">     -0.00025000     -0.00025000</v>
    <i type="int" name="LMAXPAW">  -100</i>
    <i type="int" name="LMAXMIX">     2</i>
    <i type="logical" name="NLSPLINE"> F  </i>
   </separator>
   <separator name="electronic startup" >
    <i type="int" name="ISTART">     0</i>
    <i type="int" name="ICHARG">     2</i>
    <i type="int" name="INIWAV">     1</i>
   </separator>
   <separator name="electronic spin" >
    <i type="int" name="ISPIN">     1</i>
    <i type="logical" name="LNONCOLLINEAR"> F  </i>
    <v name="MAGMOM">      1.00000000      1.00000000      1.00000000      1.00000000      1.00000000      1.00000000      1.00000000      1.00000000      1.00000000      1.00000000      1.00000000      1.00000000      1.00000000      1.00000000      1.00000000      1.00000000      1.00000000      1.00000000      1.00000000      1.00000000
      1.00000000      1.00000000      1.00000000      1.00000000      1.00000000      1.00000000      1.00000000      1.00000000      1.00000000      1.00000000      1.00000000      1.00000000      1.00000000      1.00000000      1.00000000      1.00000000      1.00000000      1.00000000      1.00000000      1.00000000
      1.00000000      1.00000000      1.00000000      1.00000000      1.00000000      1.00000000      1.00000000      1.00000000      1.00000000      1.00000000      1.00000000      1.00000000      1.00000000      1.00000000      1.00000000      1.00000000      1.00000000      1.00000000      1.00000000      1.00000000
      1.00000000      1.00000000      1.00000000      1.00000000      1.00000000      1.00000000      1.00000000      1.00000000      1.00000000      1.00000000      1.00000000      1.00000000      1.00000000      1.00000000      1.00000000      1.00000000      1.00000000      1.00000000      1.00000000      1.00000000
      1.00000000      1.00000000      1.00000000      1.00000000      1.00000000      1.00000000      1.00000000      1.00000000      1.00000000      1.00000000      1.00000000      1.00000000      1.00000000      1.00000000      1.00000000      1.00000000</v>
    <i name="NUPDOWN">     -1.00000000</i>
    <i type="logical" name="LSORBIT"> F  </i>
    <v name="SAXIS">      0.00000000      0.00000000      1.00000000</v>
    <i type="logical" name="LSPIRAL"> F  </i>
    <v name="QSPIRAL">      0.00000000      0.00000000      0.00000000</v>
    <i type="logical" name="LZEROZ"> F  </i>
   </separator>
   <separator name="electronic exchange-correlation" >
    <i type="logical" name="LASPH"> F  </i>
    <i type="logical" name="LMETAGGA"> F  </i>
   </separator>
   <separator name="electronic convergence" >
    <i type="int" name="NELM">    60</i>
    <i type="int" name="NELMDL">   -12</i>
    <i type="int" name="NELMIN">     5</i>
    <i name="ENINI">    213.27600000</i>
    <separator name="electronic convergence detail" >
     <i type="logical" name="LDIAG"> T  </i>
     <i type="logical" name="LSUBROT"> F  </i>
     <i name="WEIMIN">      0.00000000</i>
     <i name="EBREAK">      0.00000000</i>
     <i name="DEPER">      0.30000000</i>
     <i type="int" name="NRMM">     4</i>
     <i name="TIME">      0.40000000</i>
    </separator>
   </separator>
   <separator name="electronic mixer" >
    <i name="AMIX">      0.40000000</i>
    <i name="BMIX">      1.00000000</i>
    <i name="AMIN">      0.10000000</i>
    <i name="AMIX_MAG">      1.60000000</i>
    <i name="BMIX_MAG">      1.00000000</i>
    <separator name="electronic mixer details" >
     <i type="int" name="IMIX">     4</i>
     <i type="logical" name="MIXFIRST"> F  </i>
     <i type="int" name="MAXMIX">   -45</i>
     <i name="WC">    100.00000000</i>
     <i type="int" name="INIMIX">     1</i>
     <i type="int" name="MIXPRE">     1</i>
     <i type="int" name="MREMOVE">     5</i>
    </separator>
   </separator>
   <separator name="electronic dipolcorrection" >
    <i type="logical" name="LDIPOL"> F  </i>
    <i type="logical" name="LMONO"> F  </i>
    <i type="int" name="IDIPOL">     0</i>
    <i name="EPSILON">      1.00000000</i>
    <v name="DIPOL">   -100.00000000   -100.00000000   -100.00000000</v>
    <i name="EFIELD">      0.00000000</i>
   </separator>
  </separator>
  <separator name="grids" >
   <i type="int" name="NGX">    56</i>
   <i type="int" name="NGY">    56</i>
   <i type="int" name="NGZ">    56</i>
   <i type="int" name="NGXF">   112</i>
   <i type="int" name="NGYF">   112</i>
   <i type="int" name="NGZF">   112</i>
   <i type="logical" name="ADDGRID"> F  </i>
  </separator>
  <separator name="ionic" >
   <i type="int" name="NSW">     0</i>
   <i type="int" name="IBRION">    -1</i>
   <i type="int" name="ISIF">     2</i>
   <i name="PSTRESS">      0.00000000</i>
   <i name="EDIFFG">      0.00001000</i>
   <i type="int" name="NFREE">     0</i>
   <i name="POTIM">      0.50000000</i>
   <i name="SMASS">     -3.00000000</i>
   <i name="SCALEE">      1.00000000</i>
  </separator>
  <separator name="ionic md" >
   <i name="TEBEG">      0.00010000</i>
   <i name="TEEND">      0.00010000</i>
   <i type="int" name="NBLOCK">     1</i>
   <i type="int" name="KBLOCK">     1</i>
   <i type="int" name="NPACO">   256</i>
   <i name="APACO">     16.00000000</i>
  </separator>
  <separator name="symmetry" >
   <i type="int" name="ISYM">     2</i>
   <i name="SYMPREC">      0.00001000</i>
  </separator>
  <separator name="dos" >
   <i type="logical" name="LORBIT"> F  </i>
   <v name="RWIGS">     -1.00000000     -1.00000000</v>
   <i type="int" name="NEDOS">   301</i>
   <i name="EMIN">     10.00000000</i>
   <i name="EMAX">    -10.00000000</i>
   <i name="EFERMI">      0.00000000</i>
  </separator>
  <separator name="writing" >
   <i type="int" name="NWRITE">     2</i>
   <i type="logical" name="LWAVE"> T  </i>
   <i type="logical" name="LCHARG"> T  </i>
   <i type="logical" name="LPARD"> F  </i>
   <i type="logical" name="LVTOT"> F  </i>
   <i type="logical" name="LVHAR"> F  </i>
   <i type="logical" name="LELF"> F  </i>
   <i type="logical" name="LOPTICS"> F  </i>
   <v name="STM">      0.00000000      0.00000000      0.00000000      0.00000000      0.00000000      0.00000000      0.00000000</v>
  </separator>
  <separator name="performance" >
   <i type="int" name="NPAR">    64</i>
   <i type="int" name="NSIM">     4</i>
   <i type="int" name="NBLK">    -1</i>
   <i type="logical" name="LPLANE"> T  </i>
   <i type="logical" name="LSCALAPACK"> T  </i>
   <i type="logical" name="LSCAAWARE"> T  </i>
   <i type="logical" name="LSCALU"> F  </i>
   <i type="logical" name="LASYNC"> F  </i>
   <i type="logical" name="LORBITALREAL"> F  </i>
  </separator>
  <separator name="miscellaneous" >
   <i type="int" name="IDIOT">     3</i>
   <i type="logical" name="LMUSIC"> F  </i>
   <v name="POMASS">    192.22000000    101.07000000</v>
   <v name="DARWINR">      0.00000000      0.00000000</v>
   <v name="DARWINV">      1.00000000      1.00000000</v>
   <i type="logical" name="LCORR"> T  </i>
  </separator>
  <i type="logical" name="GGA_COMPAT"> T  </i>
  <i type="logical" name="LBERRY"> F  </i>
  <i type="int" name="ICORELEVEL">     0</i>
  <i type="logical" name="LDAU"> F  </i>
  <i type="int" name="I_CONSTRAINED_M">     0</i>
  <separator name="electronic exchange-correlation" >
   <i type="string" name="GGA">--</i>
   <i type="int" name="VOSKOWN">     0</i>
   <i type="logical" name="LHFCALC"> F  </i>
   <i type="string" name="PRECFOCK"></i>
   <i type="logical" name="LSYMGRAD"> F  </i>
   <i type="logical" name="LHFONE"> F  </i>
   <i type="logical" name="LRHFCALC"> F  </i>
   <i type="logical" name="LTHOMAS"> F  </i>
   <i type="logical" name="LMODELHF"> F  </i>
   <i name="ENCUT4O">     -1.00000000</i>
   <i type="int" name="EXXOEP">     0</i>
   <i type="int" name="FOURORBIT">     0</i>
   <i name="AEXX">      0.00000000</i>
   <i name="HFALPHA">      0.00000000</i>
   <i name="MCALPHA">      0.00000000</i>
   <i name="ALDAX">      1.00000000</i>
   <i name="AGGAX">      1.00000000</i>
   <i name="ALDAC">      1.00000000</i>
   <i name="AGGAC">      1.00000000</i>
   <i type="int" name="NKREDX">     1</i>
   <i type="int" name="NKREDY">     1</i>
   <i type="int" name="NKREDZ">     1</i>
   <i type="logical" name="SHIFTRED"> F  </i>
   <i type="logical" name="ODDONLY"> F  </i>
   <i type="logical" name="EVENONLY"> F  </i>
   <i type="int" name="LMAXFOCK">     0</i>
   <i type="int" name="NMAXFOCKAE">     0</i>
   <i type="logical" name="LFOCKAEDFT"> F  </i>
   <i name="HFSCREEN">      0.00000000</i>
   <i name="HFSCREENC">      0.00000000</i>
   <i type="int" name="NBANDSGWLOW">     0</i>
  </separator>
  <separator name="vdW DFT" >
   <i type="logical" name="LUSE_VDW"> F  </i>
   <i name="Zab_VDW">     -0.84910000</i>
   <i name="PARAM1">      0.12340000</i>
   <i name="PARAM2">      1.00000000</i>
   <i name="PARAM3">      0.00000000</i>
  </separator>
  <separator name="model GW" >
   <i type="int" name="MODEL_GW">     0</i>
   <i name="MODEL_EPS0">      8.63709588</i>
   <i name="MODEL_ALPHA">      1.00000000</i>
  </separator>
  <separator name="linear response parameters" >
   <i type="logical" name="LEPSILON"> F  </i>
   <i type="logical" name="LRPA"> F  </i>
   <i type="logical" name="LNABLA"> F  </i>
   <i type="logical" name="LVEL"> F  </i>
   <i type="int" name="KINTER">     0</i>
   <i name="CSHIFT">      0.10000000</i>
   <i name="OMEGAMAX">     -1.00000000</i>
   <i name="DEG_THRESHOLD">      0.00200000</i>
  </separator>
  <separator name="orbital magnetization" >
   <i type="logical" name="NUCIND"> F  </i>
   <v name="MAGPOS">      0.00000000      0.00000000      0.00000000</v>
   <i type="logical" name="LNICSALL"> T  </i>
   <i type="logical" name="ORBITALMAG"> F  </i>
   <i type="logical" name="LMAGBLOCH"> F  </i>
   <i type="logical" name="LCHIMAG"> F  </i>
   <i type="logical" name="LGAUGE"> T  </i>
   <i type="int" name="MAGATOM">     0</i>
   <v name="MAGDIPOL">      0.00000000      0.00000000      0.00000000</v>
   <v name="AVECCONST">      0.00000000      0.00000000      0.00000000</v>
  </separator>
  <separator name="response functions" >
   <i type="logical" name="LADDER"> F  </i>
   <i type="logical" name="LFXC"> F  </i>
   <i type="logical" name="LHARTREE"> T  </i>
   <i type="int" name="IBSE">     0</i>
   <v type="int" name="KPOINT">    -1     0     0     0</v>
   <i type="logical" name="LTCTE"> F  </i>
   <i type="logical" name="LTETE"> F  </i>
   <i type="logical" name="LTRIPLET"> F  </i>
   <i type="logical" name="LFXCEPS"> F  </i>
   <i type="logical" name="LFXHEG"> F  </i>
   <i type="int" name="NATURALO">     0</i>
   <i type="logical" name="L2ORDER"> F  </i>
   <i type="logical" name="LUSEW"> F  </i>
   <i name="ENCUTGW">     -2.00000000</i>
   <i name="ENCUTGWSOFT">     -2.00000000</i>
   <i name="ENCUTLF">     -1.00000000</i>
   <i type="int" name="LMAXMP2">    -1</i>
   <i name="SCISSOR">      0.00000000</i>
   <i type="int" name="NOMEGA">     0</i>
   <i type="int" name="NOMEGAR">     0</i>
   <i type="int" name="NBANDSGW">    -1</i>
   <i type="int" name="NBANDSO">    -1</i>
   <i type="int" name="NBANDSV">    -1</i>
   <i type="int" name="NELM">     1</i>
   <i type="int" name="NELMHF">     1</i>
   <i type="int" name="DIM">     3</i>
   <i type="int" name="ANTIRES">     0</i>
   <i name="OMEGAMAX">    -30.00000000</i>
   <i name="OMEGAMIN">    -30.00000000</i>
   <i name="OMEGATL">   -200.00000000</i>
   <i type="int" name="OMEGAGRID">     0</i>
   <i name="CSHIFT">     -0.10000000</i>
   <i type="logical" name="SELFENERGY"> F  </i>
   <i type="logical" name="LSPECTRAL"> F  </i>
   <i type="logical" name="LSPECTRALGW"> F  </i>
   <i type="logical" name="LSINGLES"> F  </i>
   <i type="logical" name="LFERMIGW"> F  </i>
   <i type="logical" name="ODDONLYGW"> F  </i>
   <i type="logical" name="EVENONLYGW"> F  </i>
   <i type="int" name="NKREDLFX">     1</i>
   <i type="int" name="NKREDLFY">     1</i>
   <i type="int" name="NKREDLFZ">     1</i>
   <i type="int" name="MAXMEM">  1800</i>
   <i type="int" name="TELESCOPE">     0</i>
   <i type="int" name="TAUPAR">     1</i>
   <i type="int" name="OMEGAPAR">    -1</i>
   <i name="LAMBDA">      1.00000000</i>
  </separator>
  <separator name="External order field" >
   <i name="OFIELD_KAPPA">      0.00000000</i>
   <v name="OFIELD_K">      0.00000000      0.00000000      0.00000000</v>
   <i name="OFIELD_Q6_NEAR">      0.00000000</i>
   <i name="OFIELD_Q6_FAR">      0.00000000</i>
   <i name="OFIELD_A">      0.00000000</i>
  </separator>
 </parameters>
 <atominfo>
  <atoms>      96 </atoms>
  <types>       2 </types>
  <array name="atoms" >
   <dimension dim="1">ion</dimension>
   <field type="string">element</field>
   <field type="int">atomtype</field>
   <set>
    <rc><c>Ir</c><c>   1</c></rc>
    <rc><c>Ir</c><c>   1</c></rc>
    <rc><c>Ir</c><c>   1</c></rc>
    <rc><c>Ir</c><c>   1</c></rc>
    <rc><c>Ir</c><c>   1</c></rc>
    <rc><c>Ir</c><c>   1</c></rc>
    <rc><c>Ir</c><c>   1</c></rc>
    <rc><c>Ir</c><c>   1</c></rc>
    <rc><c>Ir</c><c>   1</c></rc>
    <rc><c>Ir</c><c>   1</c></rc>
    <rc><c>Ir</c><c>   1</c></rc>
    <rc><c>Ir</c><c>   1</c></rc>
    <rc><c>Ir</c><c>   1</c></rc>
    <rc><c>Ir</c><c>   1</c></rc>
    <rc><c>Ir</c><c>   1</c></rc>
    <rc><c>Ir</c><c>   1</c></rc>
    <rc><c>Ir</c><c>   1</c></rc>
    <rc><c>Ir</c><c>   1</c></rc>
    <rc><c>Ir</c><c>   1</c></rc>
    <rc><c>Ir</c><c>   1</c></rc>
    <rc><c>Ir</c><c>   1</c></rc>
    <rc><c>Ir</c><c>   1</c></rc>
    <rc><c>Ir</c><c>   1</c></rc>
    <rc><c>Ir</c><c>   1</c></rc>
    <rc><c>Ir</c><c>   1</c></rc>
    <rc><c>Ir</c><c>   1</c></rc>
    <rc><c>Ir</c><c>   1</c></rc>
    <rc><c>Ir</c><c>   1</c></rc>
    <rc><c>Ir</c><c>   1</c></rc>
    <rc><c>Ir</c><c>   1</c></rc>
    <rc><c>Ir</c><c>   1</c></rc>
    <rc><c>Ir</c><c>   1</c></rc>
    <rc><c>Ir</c><c>   1</c></rc>
    <rc><c>Ir</c><c>   1</c></rc>
    <rc><c>Ir</c><c>   1</c></rc>
    <rc><c>Ir</c><c>   1</c></rc>
    <rc><c>Ir</c><c>   1</c></rc>
    <rc><c>Ir</c><c>   1</c></rc>
    <rc><c>Ir</c><c>   1</c></rc>
    <rc><c>Ir</c><c>   1</c></rc>
    <rc><c>Ir</c><c>   1</c></rc>
    <rc><c>Ir</c><c>   1</c></rc>
    <rc><c>Ir</c><c>   1</c></rc>
    <rc><c>Ir</c><c>   1</c></rc>
    <rc><c>Ir</c><c>   1</c></rc>
    <rc><c>Ir</c><c>   1</c></rc>
    <rc><c>Ir</c><c>   1</c></rc>
    <rc><c>Ir</c><c>   1</c></rc>
    <rc><c>Ir</c><c>   1</c></rc>
    <rc><c>Ir</c><c>   1</c></rc>
    <rc><c>Ir</c><c>   1</c></rc>
    <rc><c>Ir</c><c>   1</c></rc>
    <rc><c>Ir</c><c>   1</c></rc>
    <rc><c>Ir</c><c>   1</c></rc>
    <rc><c>Ir</c><c>   1</c></rc>
    <rc><c>Ir</c><c>   1</c></rc>
    <rc><c>Ir</c><c>   1</c></rc>
    <rc><c>Ir</c><c>   1</c></rc>
    <rc><c>Ir</c><c>   1</c></rc>
    <rc><c>Ir</c><c>   1</c></rc>
    <rc><c>Ir</c><c>   1</c></rc>
    <rc><c>Ir</c><c>   1</c></rc>
    <rc><c>Ir</c><c>   1</c></rc>
    <rc><c>Ir</c><c>   1</c></rc>
    <rc><c>Ir</c><c>   1</c></rc>
    <rc><c>Ir</c><c>   1</c></rc>
    <rc><c>Ir</c><c>   1</c></rc>
    <rc><c>Ir</c><c>   1</c></rc>
    <rc><c>Ir</c><c>   1</c></rc>
    <rc><c>Ir</c><c>   1</c></rc>
    <rc><c>Ir</c><c>   1</c></rc>
    <rc><c>Ir</c><c>   1</c></rc>
    <rc><c>Ru</c><c>   2</c></rc>
    <rc><c>Ru</c><c>   2</c></rc>
    <rc><c>Ru</c><c>   2</c></rc>
    <rc><c>Ru</c><c>   2</c></rc>
    <rc><c>Ru</c><c>   2</c></rc>
    <rc><c>Ru</c><c>   2</c></rc>
    <rc><c>Ru</c><c>   2</c></rc>
    <rc><c>Ru</c><c>   2</c></rc>
    <rc><c>Ru</c><c>   2</c></rc>
    <rc><c>Ru</c><c>   2</c></rc>
    <rc><c>Ru</c><c>   2</c></rc>
    <rc><c>Ru</c><c>   2</c></rc>
    <rc><c>Ru</c><c>   2</c></rc>
    <rc><c>Ru</c><c>   2</c></rc>
    <rc><c>Ru</c><c>   2</c></rc>
    <rc><c>Ru</c><c>   2</c></rc>
    <rc><c>Ru</c><c>   2</c></rc>
    <rc><c>Ru</c><c>   2</c></rc>
    <rc><c>Ru</c><c>   2</c></rc>
    <rc><c>Ru</c><c>   2</c></rc>
    <rc><c>Ru</c><c>   2</c></rc>
    <rc><c>Ru</c><c>   2</c></rc>
    <rc><c>Ru</c><c>   2</c></rc>
    <rc><c>Ru</c><c>   2</c></rc>
   </set>
  </array>
  <array name="atomtypes" >
   <dimension dim="1">type</dimension>
   <field type="int">atomspertype</field>
   <field type="string">element</field>
   <field>mass</field>
   <field>valence</field>
   <field type="string">pseudopotential</field>
   <set>
    <rc><c>  72</c><c>Ir</c><c>    192.22000000</c><c>      9.00000000</c><c> PAW_PBE Ir 06Sep2000                   </c></rc>
    <rc><c>  24</c><c>Ru</c><c>    101.07000000</c><c>      8.00000000</c><c> PAW_PBE Ru 06Sep2000                   </c></rc>
   </set>
  </array>
 </atominfo>
 <structure name="initialpos" >
  <crystal>
   <varray name="basis" >
    <v>     -10.98934000       0.00008000       4.40450000 </v>
    <v>       5.49474000      -9.51700000       4.40450000 </v>
    <v>       5.49460000       9.51692000       4.40450000 </v>
   </varray>
   <i name="volume">   1381.93534042 </i>
   <varray name="rec_basis" >
    <v>      -0.06066485      -0.00000045       0.07568018 </v>
    <v>       0.03033204      -0.05253756       0.07568018 </v>
    <v>       0.03033281       0.05253801       0.07568018 </v>
   </varray>
  </crystal>
  <varray name="positions" >
   <v>       0.91352333       0.99796833       0.33326833 </v>
   <v>       0.83357500       0.16642500       0.25000000 </v>
   <v>       0.99977000       0.08333000       0.16690000 </v>
   <v>       0.24999667       0.16643667       0.33356667 </v>
   <v>       0.16689333       0.08333833       0.49976833 </v>
   <v>       0.33309167       0.00024167       0.41666667 </v>
   <v>       0.41667167       0.50022667       0.33310167 </v>
   <v>       0.33357500       0.66642500       0.25000000 </v>
   <v>       0.49977000       0.58333000       0.16690000 </v>
   <v>       0.74999667       0.66643667       0.33356667 </v>
   <v>       0.66689333       0.58333833       0.49976833 </v>
   <v>       0.83309167       0.50024167       0.41666667 </v>
   <v>       0.08333833       0.66689333       0.49976833 </v>
   <v>       0.00024167       0.83309167       0.41666667 </v>
   <v>       0.16643667       0.74999667       0.33356667 </v>
   <v>       0.41666333       0.83310333       0.50023333 </v>
   <v>       0.33356000       0.75000500       0.66643500 </v>
   <v>       0.49975833       0.66690833       0.58333333 </v>
   <v>       0.58333833       0.16689333       0.49976833 </v>
   <v>       0.50024167       0.33309167       0.41666667 </v>
   <v>       0.66644000       0.24999500       0.33356500 </v>
   <v>       0.91666333       0.33310333       0.50023333 </v>
   <v>       0.83356333       0.25000333       0.66643333 </v>
   <v>       0.99975833       0.16690833       0.58333333 </v>
   <v>       0.25000500       0.33356000       0.66643500 </v>
   <v>       0.16690833       0.49975833       0.58333333 </v>
   <v>       0.33310333       0.41666333       0.50023333 </v>
   <v>       0.58333000       0.49977000       0.66690000 </v>
   <v>       0.50022667       0.41667167       0.83310167 </v>
   <v>       0.66642500       0.33357500       0.75000000 </v>
   <v>       0.91667167       0.50022667       0.83310167 </v>
   <v>       0.83357500       0.66642500       0.75000000 </v>
   <v>       0.99977000       0.58333000       0.66690000 </v>
   <v>       0.24999667       0.66643667       0.83356667 </v>
   <v>       0.16689667       0.58333667       0.99976667 </v>
   <v>       0.33309167       0.50024167       0.91666667 </v>
   <v>       0.41667167       0.00022667       0.83310167 </v>
   <v>       0.33357500       0.16642500       0.75000000 </v>
   <v>       0.49977333       0.08332833       0.66689833 </v>
   <v>       0.74999667       0.16643667       0.83356667 </v>
   <v>       0.66689667       0.08333667       0.99976667 </v>
   <v>       0.83309167       0.00024167       0.91666667 </v>
   <v>       0.08333833       0.16689333       0.99976833 </v>
   <v>       0.00024167       0.33309167       0.91666667 </v>
   <v>       0.16644000       0.24999500       0.83356500 </v>
   <v>       0.41666333       0.33310333       0.00023333 </v>
   <v>       0.33356000       0.25000500       0.16643500 </v>
   <v>       0.49975833       0.16690833       0.08333333 </v>
   <v>       0.75000500       0.83356000       0.66643500 </v>
   <v>       0.66690833       0.99975833       0.58333333 </v>
   <v>       0.83310667       0.91666167       0.50023167 </v>
   <v>       0.08333000       0.99977000       0.66690000 </v>
   <v>       0.00022667       0.91667167       0.83310167 </v>
   <v>       0.16642500       0.83357500       0.75000000 </v>
   <v>       0.58333833       0.66689333       0.99976833 </v>
   <v>       0.50024167       0.83309167       0.91666667 </v>
   <v>       0.66644000       0.74999500       0.83356500 </v>
   <v>       0.91666333       0.83310333       0.00023333 </v>
   <v>       0.83356000       0.75000500       0.16643500 </v>
   <v>       0.99975833       0.66690833       0.08333333 </v>
   <v>       0.25000500       0.83356000       0.16643500 </v>
   <v>       0.16690833       0.99975833       0.08333333 </v>
   <v>       0.33310333       0.91666333       0.00023333 </v>
   <v>       0.58333000       0.99977000       0.16690000 </v>
   <v>       0.50022667       0.91667167       0.33310167 </v>
   <v>       0.66642500       0.83357500       0.25000000 </v>
   <v>       0.75000500       0.33356000       0.16643500 </v>
   <v>       0.66690833       0.49975833       0.08333333 </v>
   <v>       0.83310333       0.41666333       0.00023333 </v>
   <v>       0.08333000       0.49977000       0.16690000 </v>
   <v>       0.00022667       0.41667167       0.33310167 </v>
   <v>       0.16642500       0.33357500       0.25000000 </v>
   <v>       0.08334000       0.91666000       0.25000000 </v>
   <v>       0.08332667       0.25000667       0.41666667 </v>
   <v>       0.58334000       0.41666000       0.25000000 </v>
   <v>       0.58332667       0.75000667       0.41666667 </v>
   <v>       0.25000667       0.58332667       0.41666667 </v>
   <v>       0.24999333       0.91667333       0.58333333 </v>
   <v>       0.75000667       0.08332667       0.41666667 </v>
   <v>       0.74999333       0.41667333       0.58333333 </v>
   <v>       0.41667333       0.24999333       0.58333333 </v>
   <v>       0.41666000       0.58334000       0.75000000 </v>
   <v>       0.08334000       0.41666000       0.75000000 </v>
   <v>       0.08332667       0.75000667       0.91666667 </v>
   <v>       0.58334000       0.91666000       0.75000000 </v>
   <v>       0.58332667       0.25000667       0.91666667 </v>
   <v>       0.25000667       0.08332667       0.91666667 </v>
   <v>       0.24999333       0.41667333       0.08333333 </v>
   <v>       0.91667333       0.74999333       0.58333333 </v>
   <v>       0.91666000       0.08334000       0.75000000 </v>
   <v>       0.75000667       0.58332667       0.91666667 </v>
   <v>       0.74999333       0.91667333       0.08333333 </v>
   <v>       0.41667333       0.74999333       0.08333333 </v>
   <v>       0.41666000       0.08334000       0.25000000 </v>
   <v>       0.91667333       0.24999333       0.08333333 </v>
   <v>       0.91666000       0.58334000       0.25000000 </v>
  </varray>
 </structure>
 <calculation>
  <scstep>
   <time name="diag">   20.15   20.49</time>
   <time name="diis">   26.95   26.98</time>
   <time name="orth">    7.11    7.22</time>
   <time name="total">   54.26   54.78</time>
   <energy>
    <i name="alphaZ">   7084.49813302 </i>
    <i name="ewald"> -62902.84266534 </i>
    <i name="hartreedc">  -3906.20830531 </i>
    <i name="XCdc">  -1992.88549627 </i>
    <i name="pawpsdc">  42085.03955087 </i>
    <i name="pawaedc"> -37971.12201991 </i>
    <i name="eentropy">      0.00744941 </i>
    <i name="bandstr">  11772.96323055 </i>
    <i name="atom">  51250.07572940 </i>
    <i name="e_fr_energy">   5419.52560641 </i>
    <i name="e_wo_entrp">   5419.51815700 </i>
    <i name="e_0_energy">   5419.52312327 </i>
   </energy>
  </scstep>
  <scstep>
   <time name="diag">   19.08   19.09</time>
   <time name="diis">   26.92   27.08</time>
   <time name="orth">    7.85    8.05</time>
   <time name="total">   53.86   54.23</time>
   <energy>
    <i name="e_fr_energy">    594.61383147 </i>
    <i name="e_wo_entrp">    594.60085112 </i>
    <i name="e_0_energy">    594.60950469 </i>
   </energy>
  </scstep>
  <scstep>
   <time name="diag">   18.92   18.93</time>
   <time name="diis">   27.18   27.37</time>
   <time name="orth">    7.51    7.52</time>
   <time name="total">   53.61   53.82</time>
   <energy>
    <i name="e_fr_energy">   -356.96017068 </i>
    <i name="e_wo_entrp">   -356.96969982 </i>
    <i name="e_0_energy">   -356.96334706 </i>
   </energy>
  </scstep>
  <scstep>
   <time name="diag">   19.51   19.87</time>
   <time name="diis">   27.26   27.31</time>
   <time name="orth">    6.72    6.72</time>
   <time name="total">   53.49   53.91</time>
   <energy>
    <i name="e_fr_energy">   -674.24465940 </i>
    <i name="e_wo_entrp">   -674.25109355 </i>
    <i name="e_0_energy">   -674.24680412 </i>
   </energy>
  </scstep>
  <scstep>
   <time name="diag">   20.80   20.91</time>
   <time name="diis">   27.23   27.42</time>
   <time name="orth">    6.72    6.73</time>
   <time name="total">   54.75   55.07</time>
   <energy>
    <i name="e_fr_energy">   -783.17848554 </i>
    <i name="e_wo_entrp">   -783.17466422 </i>
    <i name="e_0_energy">   -783.17721176 </i>
   </energy>
  </scstep>
  <scstep>
   <time name="diag">   20.82   20.91</time>
   <time name="diis">   27.48   27.51</time>
   <time name="orth">    6.72    6.73</time>
   <time name="total">   55.03   55.16</time>
   <energy>
    <i name="e_fr_energy">   -838.72501285 </i>
    <i name="e_wo_entrp">   -838.72235990 </i>
    <i name="e_0_energy">   -838.72412853 </i>
   </energy>
  </scstep>
  <scstep>
   <time name="diag">   21.21   21.23</time>
   <time name="diis">   27.42   27.45</time>
   <time name="orth">    7.05    7.06</time>
   <time name="total">   55.69   55.74</time>
   <energy>
    <i name="e_fr_energy">   -867.51285413 </i>
    <i name="e_wo_entrp">   -867.51479016 </i>
    <i name="e_0_energy">   -867.51349947 </i>
   </energy>
  </scstep>
  <scstep>
   <time name="diag">   19.79   19.81</time>
   <time name="diis">   27.01   27.52</time>
   <time name="orth">    8.47    8.49</time>
   <time name="total">   55.28   55.82</time>
   <energy>
    <i name="e_fr_energy">   -884.60012101 </i>
    <i name="e_wo_entrp">   -884.60216174 </i>
    <i name="e_0_energy">   -884.60080125 </i>
   </energy>
  </scstep>
  <scstep>
   <time name="diag">   25.19   25.45</time>
   <time name="diis">   82.65   84.12</time>
   <time name="orth">    9.69    9.76</time>
   <time name="total">  117.54  119.33</time>
   <energy>
    <i name="e_fr_energy">   -910.91207098 </i>
    <i name="e_wo_entrp">   -910.91132589 </i>
    <i name="e_0_energy">   -910.91182262 </i>
   </energy>
  </scstep>
  <scstep>
   <time name="diag">   24.37   24.51</time>
   <time name="diis">   89.86   90.45</time>
   <time name="orth">    9.27    9.48</time>
   <time name="total">  123.51  124.44</time>
   <energy>
    <i name="e_fr_energy">   -914.69373538 </i>
    <i name="e_wo_entrp">   -914.69266072 </i>
    <i name="e_0_energy">   -914.69337716 </i>
   </energy>
  </scstep>
  <scstep>
   <time name="diag">   21.40   21.57</time>
   <time name="diis">   89.09   90.34</time>
   <time name="orth">    7.49    7.59</time>
   <time name="total">  117.99  119.51</time>
   <energy>
    <i name="e_fr_energy">   -915.61475542 </i>
    <i name="e_wo_entrp">   -915.61469022 </i>
    <i name="e_0_energy">   -915.61473369 </i>
   </energy>
  </scstep>
  <scstep>
   <time name="diag">   19.50   19.52</time>
   <time name="diis">   89.70   89.87</time>
   <time name="orth">    8.02    8.04</time>
   <time name="total">  118.72  118.93</time>
   <energy>
    <i name="e_fr_energy">   -915.76370793 </i>
    <i name="e_wo_entrp">   -915.76345410 </i>
    <i name="e_0_energy">   -915.76362332 </i>
   </energy>
  </scstep>
  <scstep>
   <time name="diag">   18.95   18.97</time>
   <time name="diis">   65.27   65.36</time>
   <time name="orth">    7.52    7.57</time>
   <time name="total">   93.24   93.41</time>
   <energy>
    <i name="e_fr_energy">   -871.19531536 </i>
    <i name="e_wo_entrp">   -871.17469693 </i>
    <i name="e_0_energy">   -871.18844255 </i>
   </energy>
  </scstep>
  <scstep>
   <time name="diag">   19.11   19.12</time>
   <time name="diis">   65.91   66.23</time>
   <time name="orth">    6.68    6.68</time>
   <time name="total">   93.19   93.53</time>
   <energy>
    <i name="e_fr_energy">   -876.49129640 </i>
    <i name="e_wo_entrp">   -876.47098994 </i>
    <i name="e_0_energy">   -876.48452758 </i>
   </energy>
  </scstep>
  <scstep>
   <time name="diag">   19.78   20.05</time>
   <time name="diis">   66.56   66.89</time>
   <time name="orth">    6.67    6.69</time>
   <time name="total">   94.50   95.13</time>
   <energy>
    <i name="e_fr_energy">   -859.11722307 </i>
    <i name="e_wo_entrp">   -859.09767901 </i>
    <i name="e_0_energy">   -859.11070838 </i>
   </energy>
  </scstep>
  <scstep>
   <time name="diag">   19.99   20.07</time>
   <time name="diis">   89.34   89.80</time>
   <time name="orth">    8.17    8.42</time>
   <time name="total">  119.01  119.81</time>
   <energy>
    <i name="e_fr_energy">   -859.16266566 </i>
    <i name="e_wo_entrp">   -859.14679894 </i>
    <i name="e_0_energy">   -859.15737675 </i>
   </energy>
  </scstep>
  <scstep>
   <time name="diag">   21.37   21.75</time>
   <time name="diis">   81.10   82.08</time>
   <time name="orth">    8.70    8.73</time>
   <time name="total">  112.69  114.08</time>
   <energy>
    <i name="e_fr_energy">   -859.05432026 </i>
    <i name="e_wo_entrp">   -859.03756114 </i>
    <i name="e_0_energy">   -859.04873389 </i>
   </energy>
  </scstep>
  <scstep>
   <time name="diag">   24.02   24.32</time>
   <time name="diis">   76.59   77.84</time>
   <time name="orth">    9.23    9.48</time>
   <time name="total">  111.41  113.22</time>
   <energy>
    <i name="e_fr_energy">   -858.93473133 </i>
    <i name="e_wo_entrp">   -858.91655022 </i>
    <i name="e_0_energy">   -858.92867096 </i>
   </energy>
  </scstep>
  <scstep>
   <time name="diag">   22.77   22.91</time>
   <time name="diis">   84.29   85.96</time>
   <time name="orth">    8.33    8.33</time>
   <time name="total">  116.97  118.80</time>
   <energy>
    <i name="e_fr_energy">   -858.93902356 </i>
    <i name="e_wo_entrp">   -858.92002790 </i>
    <i name="e_0_energy">   -858.93269168 </i>
   </energy>
  </scstep>
  <scstep>
   <time name="diag">   19.21   19.22</time>
   <time name="diis">   87.56   87.88</time>
   <time name="orth">    7.59    7.59</time>
   <time name="total">  115.86  116.20</time>
   <energy>
    <i name="e_fr_energy">   -858.93466580 </i>
    <i name="e_wo_entrp">   -858.91583605 </i>
    <i name="e_0_energy">   -858.92838921 </i>
   </energy>
  </scstep>
  <scstep>
   <time name="diag">   19.07   19.23</time>
   <time name="diis">   78.57   79.53</time>
   <time name="orth">    6.68    6.69</time>
   <time name="total">  105.83  106.95</time>
   <energy>
    <i name="e_fr_energy">   -858.92695081 </i>
    <i name="e_wo_entrp">   -858.90865582 </i>
    <i name="e_0_energy">   -858.92085248 </i>
   </energy>
  </scstep>
  <scstep>
   <time name="diag">   20.23   20.33</time>
   <time name="diis">   89.55   90.01</time>
   <time name="orth">    6.68    6.68</time>
   <time name="total">  117.96  118.54</time>
   <energy>
    <i name="e_fr_energy">   -858.92702633 </i>
    <i name="e_wo_entrp">   -858.90890312 </i>
    <i name="e_0_energy">   -858.92098526 </i>
   </energy>
  </scstep>
  <scstep>
   <time name="diag">   19.92   20.08</time>
   <time name="diis">   84.35   84.62</time>
   <time name="orth">    7.46    7.54</time>
   <time name="total">  113.24  113.75</time>
   <energy>
    <i name="e_fr_energy">   -858.92698488 </i>
    <i name="e_wo_entrp">   -858.90885062 </i>
    <i name="e_0_energy">   -858.92094013 </i>
   </energy>
  </scstep>
  <scstep>
   <time name="diag">   18.82   18.84</time>
   <time name="diis">   78.83   79.28</time>
   <time name="orth">    6.81    6.88</time>
   <time name="total">  105.98  106.53</time>
   <energy>
    <i name="e_fr_energy">   -858.92682128 </i>
    <i name="e_wo_entrp">   -858.90863724 </i>
    <i name="e_0_energy">   -858.92075994 </i>
   </energy>
  </scstep>
  <scstep>
   <time name="diag">   24.93   25.14</time>
   <time name="diis">   82.20   83.50</time>
   <time name="orth">    7.06    7.13</time>
   <time name="total">  114.22  115.80</time>
   <energy>
    <i name="alphaZ">   7084.49813302 </i>
    <i name="ewald"> -62902.84266534 </i>
    <i name="hartreedc">  -3006.29074647 </i>
    <i name="XCdc">  -2001.77420023 </i>
    <i name="pawpsdc">  47513.14984229 </i>
    <i name="pawaedc"> -43673.35573165 </i>
    <i name="eentropy">     -0.01819848 </i>
    <i name="bandstr">   4877.63103474 </i>
    <i name="atom">  51250.07572940 </i>
    <i name="e_fr_energy">   -858.92680273 </i>
    <i name="e_wo_entrp">   -858.90860424 </i>
    <i name="e_0_energy">   -858.92073657 </i>
   </energy>
  </scstep>
  <structure>
   <crystal>
    <varray name="basis" >
     <v>     -10.98934000       0.00008000       4.40450000 </v>
     <v>       5.49474000      -9.51700000       4.40450000 </v>
     <v>       5.49460000       9.51692000       4.40450000 </v>
    </varray>
    <i name="volume">   1381.93534042 </i>
    <varray name="rec_basis" >
     <v>      -0.06066485      -0.00000045       0.07568018 </v>
     <v>       0.03033204      -0.05253756       0.07568018 </v>
     <v>       0.03033281       0.05253801       0.07568018 </v>
    </varray>
   </crystal>
   <varray name="positions" >
    <v>       0.91352333       0.99796833       0.33326833 </v>
    <v>       0.83357500       0.16642500       0.25000000 </v>
    <v>       0.99977000       0.08333000       0.16690000 </v>
    <v>       0.24999667       0.16643667       0.33356667 </v>
    <v>       0.16689333       0.08333833       0.49976833 </v>
    <v>       0.33309167       0.00024167       0.41666667 </v>
    <v>       0.41667167       0.50022667       0.33310167 </v>
    <v>       0.33357500       0.66642500       0.25000000 </v>
    <v>       0.49977000       0.58333000       0.16690000 </v>
    <v>       0.74999667       0.66643667       0.33356667 </v>
    <v>       0.66689333       0.58333833       0.49976833 </v>
    <v>       0.83309167       0.50024167       0.41666667 </v>
    <v>       0.08333833       0.66689333       0.49976833 </v>
    <v>       0.00024167       0.83309167       0.41666667 </v>
    <v>       0.16643667       0.74999667       0.33356667 </v>
    <v>       0.41666333       0.83310333       0.50023333 </v>
    <v>       0.33356000       0.75000500       0.66643500 </v>
    <v>       0.49975833       0.66690833       0.58333333 </v>
    <v>       0.58333833       0.16689333       0.49976833 </v>
    <v>       0.50024167       0.33309167       0.41666667 </v>
    <v>       0.66644000       0.24999500       0.33356500 </v>
    <v>       0.91666333       0.33310333       0.50023333 </v>
    <v>       0.83356333       0.25000333       0.66643333 </v>
    <v>       0.99975833       0.16690833       0.58333333 </v>
    <v>       0.25000500       0.33356000       0.66643500 </v>
    <v>       0.16690833       0.49975833       0.58333333 </v>
    <v>       0.33310333       0.41666333       0.50023333 </v>
    <v>       0.58333000       0.49977000       0.66690000 </v>
    <v>       0.50022667       0.41667167       0.83310167 </v>
    <v>       0.66642500       0.33357500       0.75000000 </v>
    <v>       0.91667167       0.50022667       0.83310167 </v>
    <v>       0.83357500       0.66642500       0.75000000 </v>
    <v>       0.99977000       0.58333000       0.66690000 </v>
    <v>       0.24999667       0.66643667       0.83356667 </v>
    <v>       0.16689667       0.58333667       0.99976667 </v>
    <v>       0.33309167       0.50024167       0.91666667 </v>
    <v>       0.41667167       0.00022667       0.83310167 </v>
    <v>       0.33357500       0.16642500       0.75000000 </v>
    <v>       0.49977333       0.08332833       0.66689833 </v>
    <v>       0.74999667       0.16643667       0.83356667 </v>
    <v>       0.66689667       0.08333667       0.99976667 </v>
    <v>       0.83309167       0.00024167       0.91666667 </v>
    <v>       0.08333833       0.16689333       0.99976833 </v>
    <v>       0.00024167       0.33309167       0.91666667 </v>
    <v>       0.16644000       0.24999500       0.83356500 </v>
    <v>       0.41666333       0.33310333       0.00023333 </v>
    <v>       0.33356000       0.25000500       0.16643500 </v>
    <v>       0.49975833       0.16690833       0.08333333 </v>
    <v>       0.75000500       0.83356000       0.66643500 </v>
    <v>       0.66690833       0.99975833       0.58333333 </v>
    <v>       0.83310667       0.91666167       0.50023167 </v>
    <v>       0.08333000       0.99977000       0.66690000 </v>
    <v>       0.00022667       0.91667167       0.83310167 </v>
    <v>       0.16642500       0.83357500       0.75000000 </v>
    <v>       0.58333833       0.66689333       0.99976833 </v>
    <v>       0.50024167       0.83309167       0.91666667 </v>
    <v>       0.66644000       0.74999500       0.83356500 </v>
    <v>       0.91666333       0.83310333       0.00023333 </v>
    <v>       0.83356000       0.75000500       0.16643500 </v>
    <v>       0.99975833       0.66690833       0.08333333 </v>
    <v>       0.25000500       0.83356000       0.16643500 </v>
    <v>       0.16690833       0.99975833       0.08333333 </v>
    <v>       0.33310333       0.91666333       0.00023333 </v>
    <v>       0.58333000       0.99977000       0.16690000 </v>
    <v>       0.50022667       0.91667167       0.33310167 </v>
    <v>       0.66642500       0.83357500       0.25000000 </v>
    <v>       0.75000500       0.33356000       0.16643500 </v>
    <v>       0.66690833       0.49975833       0.08333333 </v>
    <v>       0.83310333       0.41666333       0.00023333 </v>
    <v>       0.08333000       0.49977000       0.16690000 </v>
    <v>       0.00022667       0.41667167       0.33310167 </v>
    <v>       0.16642500       0.33357500       0.25000000 </v>
    <v>       0.08334000       0.91666000       0.25000000 </v>
    <v>       0.08332667       0.25000667       0.41666667 </v>
    <v>       0.58334000       0.41666000       0.25000000 </v>
    <v>       0.58332667       0.75000667       0.41666667 </v>
    <v>       0.25000667       0.58332667       0.41666667 </v>
    <v>       0.24999333       0.91667333       0.58333333 </v>
    <v>       0.75000667       0.08332667       0.41666667 </v>
    <v>       0.74999333       0.41667333       0.58333333 </v>
    <v>       0.41667333       0.24999333       0.58333333 </v>
    <v>       0.41666000       0.58334000       0.75000000 </v>
    <v>       0.08334000       0.41666000       0.75000000 </v>
    <v>       0.08332667       0.75000667       0.91666667 </v>
    <v>       0.58334000       0.91666000       0.75000000 </v>
    <v>       0.58332667       0.25000667       0.91666667 </v>
    <v>       0.25000667       0.08332667       0.91666667 </v>
    <v>       0.24999333       0.41667333       0.08333333 </v>
    <v>       0.91667333       0.74999333       0.58333333 </v>
    <v>       0.91666000       0.08334000       0.75000000 </v>
    <v>       0.75000667       0.58332667       0.91666667 </v>
    <v>       0.74999333       0.91667333       0.08333333 </v>
    <v>       0.41667333       0.74999333       0.08333333 </v>
    <v>       0.41666000       0.08334000       0.25000000 </v>
    <v>       0.91667333       0.24999333       0.08333333 </v>
    <v>       0.91666000       0.58334000       0.25000000 </v>
   </varray>
  </structure>
  <varray name="forces" >
   <v>      -0.33263881      -0.30508062       0.35017347 </v>
   <v>       0.02280306      -0.00629579      -0.00060291 </v>
   <v>      -0.00331599       0.04453395      -0.00048840 </v>
   <v>       0.01988033      -0.00924041      -0.01614491 </v>
   <v>       0.06574727      -0.02308707      -0.06241066 </v>
   <v>      -0.02008015       0.00711005       0.00151791 </v>
   <v>       0.00066579       0.01886070       0.00119861 </v>
   <v>       0.01993860      -0.01019184       0.00170329 </v>
   <v>      -0.01779471      -0.00780458      -0.00647566 </v>
   <v>      -0.00255606      -0.00013309      -0.01059684 </v>
   <v>       0.01747417       0.00882251       0.00089578 </v>
   <v>      -0.02173531       0.00920600       0.00105953 </v>
   <v>       0.00041807       0.02193699       0.00175920 </v>
   <v>       0.00007960       0.01016605      -0.00055579 </v>
   <v>      -0.01364735      -0.00681931      -0.00104283 </v>
   <v>       0.00237706      -0.02134246      -0.00454531 </v>
   <v>       0.01495395       0.00988457       0.00310805 </v>
   <v>      -0.02450433       0.00809490       0.00613911 </v>
   <v>       0.01281256       0.02048012       0.00290130 </v>
   <v>       0.01888748      -0.01194736      -0.00004808 </v>
   <v>      -0.01181231      -0.00627983      -0.00004029 </v>
   <v>      -0.01005205      -0.02515990       0.00102106 </v>
   <v>       0.02203618       0.00870928       0.00167444 </v>
   <v>      -0.01639968       0.01325826       0.01224628 </v>
   <v>      -0.00158879       0.02240091      -0.01280314 </v>
   <v>       0.01479491      -0.00263088      -0.00576914 </v>
   <v>      -0.01302893      -0.00932074      -0.00872588 </v>
   <v>       0.00209042      -0.02274801      -0.00147308 </v>
   <v>       0.01792576       0.01293623       0.00123328 </v>
   <v>      -0.02186445       0.00978100       0.00192190 </v>
   <v>      -0.00062199       0.02304863       0.00272610 </v>
   <v>       0.02052338      -0.01301298       0.00201536 </v>
   <v>      -0.01712400      -0.01288397       0.00110710 </v>
   <v>      -0.00351446      -0.02835029      -0.00142090 </v>
   <v>       0.01794653       0.00883274       0.00238462 </v>
   <v>      -0.02430247       0.01200300      -0.00040344 </v>
   <v>       0.00326605       0.01958636       0.00292997 </v>
   <v>       0.02033900      -0.01366689      -0.00239001 </v>
   <v>      -0.01930156      -0.01147979       0.00195460 </v>
   <v>       0.00019241      -0.01907567      -0.00261804 </v>
   <v>       0.01767257       0.00991084       0.00239647 </v>
   <v>      -0.02042932       0.01652426      -0.00143851 </v>
   <v>       0.00336467       0.02358264       0.00298751 </v>
   <v>       0.01990827      -0.01442192      -0.00023735 </v>
   <v>      -0.01066274       0.00551540      -0.00358696 </v>
   <v>      -0.00579934      -0.01991146       0.00394245 </v>
   <v>       0.01593407       0.00802008      -0.00053959 </v>
   <v>      -0.01963544       0.01338086      -0.00077087 </v>
   <v>       0.00211940       0.02613587       0.00299907 </v>
   <v>       0.02835368      -0.00476422      -0.00014559 </v>
   <v>       0.02577003       0.03315194      -0.00071743 </v>
   <v>      -0.00465109      -0.02210995       0.00840656 </v>
   <v>       0.01653181       0.01081236      -0.00008920 </v>
   <v>      -0.01945840       0.01057382       0.00016399 </v>
   <v>      -0.00158347       0.02216045      -0.01228203 </v>
   <v>       0.01647095      -0.01107691      -0.00470512 </v>
   <v>      -0.00667809       0.00113477      -0.00269182 </v>
   <v>       0.00274236      -0.02395758       0.01245005 </v>
   <v>      -0.01359276       0.02529462      -0.03192356 </v>
   <v>      -0.01690412       0.01584349      -0.00245432 </v>
   <v>       0.00984711       0.02192556       0.00146094 </v>
   <v>       0.02893644      -0.00629116      -0.00029209 </v>
   <v>      -0.02190394      -0.01077404       0.00072210 </v>
   <v>       0.00555226      -0.03624094      -0.00414940 </v>
   <v>       0.02554349       0.01606141      -0.00328589 </v>
   <v>       0.07437298       0.06535134      -0.12519210 </v>
   <v>      -0.00101987       0.02359525       0.00203639 </v>
   <v>       0.01804977      -0.00719077      -0.00776066 </v>
   <v>      -0.01919916      -0.01152965       0.00089189 </v>
   <v>      -0.00148202      -0.01998246      -0.00404975 </v>
   <v>       0.01846621       0.01648380      -0.00396801 </v>
   <v>      -0.01738197       0.01987475      -0.00317989 </v>
   <v>       0.04633156      -0.01200518       0.00144402 </v>
   <v>      -0.00295344       0.07095634      -0.07126002 </v>
   <v>       0.00132477      -0.00011931       0.00066926 </v>
   <v>       0.00513478       0.00828375      -0.00565904 </v>
   <v>       0.00192410       0.00022589       0.00098147 </v>
   <v>       0.00060386       0.00369794      -0.00334842 </v>
   <v>       0.02587689       0.01109654       0.00095641 </v>
   <v>      -0.00136390       0.00296612      -0.00165726 </v>
   <v>       0.01526193       0.00176858      -0.00803883 </v>
   <v>       0.00058186      -0.00123164      -0.00077699 </v>
   <v>       0.00320843      -0.00502024      -0.00043546 </v>
   <v>      -0.00343219      -0.00035811      -0.00058956 </v>
   <v>      -0.00073013      -0.00235166      -0.00101273 </v>
   <v>      -0.00274572      -0.00074666       0.00222975 </v>
   <v>      -0.00065077      -0.00221942       0.00142060 </v>
   <v>      -0.00367544      -0.00321805       0.00562062 </v>
   <v>       0.00563852       0.00708744      -0.00049965 </v>
   <v>       0.00399539       0.00454289      -0.00002687 </v>
   <v>      -0.00166088      -0.00140928      -0.00136742 </v>
   <v>      -0.00045727      -0.00396862      -0.00412816 </v>
   <v>       0.01830092      -0.00221342      -0.00752098 </v>
   <v>      -0.00274068      -0.00077327       0.00318109 </v>
   <v>       0.00656746       0.00694299       0.00007886 </v>
   <v>      -0.00286360      -0.00211683       0.00162637 </v>
  </varray>
  <varray name="stress" >
   <v>     -27.71587675       0.06957801      -0.02535754 </v>
   <v>       0.06957788     -27.76033514      -0.02297852 </v>
   <v>      -0.02535760      -0.02297854     -26.87593914 </v>
  </varray>
  <energy>
   <i name="e_fr_energy">   -858.92680273 </i>
   <i name="e_wo_entrp">   -858.92073657 </i>
   <i name="e_0_energy">     -0.01819848 </i>
  </energy>
  <time name="totalsc"> 2491.16 2513.36</time>
  <eigenvalues>
   <array>
    <dimension dim="1">band</dimension>
    <dimension dim="2">kpoint</dimension>
    <dimension dim="3">spin</dimension>
    <field>eigene</field>
    <field>occ</field>
    <set>
     <set comment="spin 1">
      <set comment="kpoint 1">
       <r>   -0.5358    1.0000 </r>
       <r>    1.2147    1.0000 </r>
       <r>    1.2225    1.0000 </r>
       <r>    1.2228    1.0000 </r>
       <r>    1.2292    1.0000 </r>
       <r>    1.2326    1.0000 </r>
       <r>    1.2330    1.0000 </r>
       <r>    1.2334    1.0000 </r>
       <r>    1.2336    1.0000 </r>
       <r>    1.2382    1.0000 </r>
       <r>    1.6843    1.0000 </r>
       <r>    1.6864    1.0000 </r>
       <r>    1.6895    1.0000 </r>
       <r>    2.1908    1.0000 </r>
       <r>    2.3210    1.0000 </r>
       <r>    2.3243    1.0000 </r>
       <r>    2.4732    1.0000 </r>
       <r>    2.4736    1.0000 </r>
       <r>    2.4747    1.0000 </r>
       <r>    2.4757    1.0000 </r>
       <r>    2.4758    1.0000 </r>
       <r>    2.4763    1.0000 </r>
       <r>    2.5005    1.0000 </r>
       <r>    2.5008    1.0000 </r>
       <r>    2.5023    1.0000 </r>
       <r>    2.5032    1.0000 </r>
       <r>    2.5041    1.0000 </r>
       <r>    2.5063    1.0000 </r>
       <r>    2.6739    1.0000 </r>
       <r>    2.7248    1.0000 </r>
       <r>    2.7257    1.0000 </r>
       <r>    2.7262    1.0000 </r>
       <r>    2.7279    1.0000 </r>
       <r>    2.7289    1.0000 </r>
       <r>    2.7304    1.0000 </r>
       <r>    2.7649    1.0000 </r>
       <r>    2.7659    1.0000 </r>
       <r>    2.7669    1.0000 </r>
       <r>    2.7677    1.0000 </r>
       <r>    2.7679    1.0000 </r>
       <r>    2.7693    1.0000 </r>
       <r>    2.8243    1.0000 </r>
       <r>    2.8262    1.0000 </r>
       <r>    3.1353    1.0000 </r>
       <r>    3.1374    1.0000 </r>
       <r>    3.1400    1.0000 </r>
       <r>    3.1401    1.0000 </r>
       <r>    3.1414    1.0000 </r>
       <r>    3.1424    1.0000 </r>
       <r>    3.1449    1.0000 </r>
       <r>    3.3019    1.0000 </r>
       <r>    3.3417    1.0000 </r>
       <r>    3.3436    1.0000 </r>
       <r>    3.3440    1.0000 </r>
       <r>    3.3450    1.0000 </r>
       <r>    3.3454    1.0000 </r>
       <r>    3.3472    1.0000 </r>
       <r>    3.3587    1.0000 </r>
       <r>    3.3613    1.0000 </r>
       <r>    3.3628    1.0000 </r>
       <r>    3.3725    1.0000 </r>
       <r>    3.3748    1.0000 </r>
       <r>    3.3767    1.0000 </r>
       <r>    3.4505    1.0000 </r>
       <r>    3.4528    1.0000 </r>
       <r>    3.4532    1.0000 </r>
       <r>    3.4566    1.0000 </r>
       <r>    3.4573    1.0000 </r>
       <r>    3.4578    1.0000 </r>
       <r>    3.4581    1.0000 </r>
       <r>    3.4607    1.0000 </r>
       <r>    3.5071    1.0000 </r>
       <r>    3.5124    1.0000 </r>
       <r>    3.5137    1.0000 </r>
       <r>    3.5534    1.0000 </r>
       <r>    3.5572    1.0000 </r>
       <r>    3.5574    1.0000 </r>
       <r>    3.6645    1.0000 </r>
       <r>    3.6679    1.0000 </r>
       <r>    3.6797    1.0000 </r>
       <r>    3.6805    1.0000 </r>
       <r>    3.6838    1.0000 </r>
       <r>    3.7148    1.0000 </r>
       <r>    3.7152    1.0000 </r>
       <r>    3.7160    1.0000 </r>
       <r>    3.7172    1.0000 </r>
       <r>    3.7180    1.0000 </r>
       <r>    3.7182    1.0000 </r>
       <r>    3.8831    1.0000 </r>
       <r>    3.8844    1.0000 </r>
       <r>    3.8865    1.0000 </r>
       <r>    3.9896    1.0000 </r>
       <r>    3.9922    1.0000 </r>
       <r>    3.9936    1.0000 </r>
       <r>    3.9940    1.0000 </r>
       <r>    4.0583    1.0000 </r>
       <r>    4.0611    1.0000 </r>
       <r>    4.0613    1.0000 </r>
       <r>    4.0660    1.0000 </r>
       <r>    4.0870    1.0000 </r>
       <r>    4.0903    1.0000 </r>
       <r>    4.0923    1.0000 </r>
       <r>    4.0928    1.0000 </r>
       <r>    4.0943    1.0000 </r>
       <r>    4.0945    1.0000 </r>
       <r>    4.1604    1.0000 </r>
       <r>    4.1630    1.0000 </r>
       <r>    4.1647    1.0000 </r>
       <r>    4.1651    1.0000 </r>
       <r>    4.1664    1.0000 </r>
       <r>    4.1680    1.0000 </r>
       <r>    4.1765    1.0000 </r>
       <r>    4.1803    1.0000 </r>
       <r>    4.2328    1.0000 </r>
       <r>    4.2359    1.0000 </r>
       <r>    4.2363    1.0000 </r>
       <r>    4.2366    1.0000 </r>
       <r>    4.2377    1.0000 </r>
       <r>    4.2435    1.0000 </r>
       <r>    4.2922    1.0000 </r>
       <r>    4.2945    1.0000 </r>
       <r>    4.2953    1.0000 </r>
       <r>    4.3142    1.0000 </r>
       <r>    4.3152    1.0000 </r>
       <r>    4.3173    1.0000 </r>
       <r>    4.4569    1.0000 </r>
       <r>    4.4623    1.0000 </r>
       <r>    4.5413    1.0000 </r>
       <r>    4.5420    1.0000 </r>
       <r>    4.5437    1.0000 </r>
       <r>    4.5481    1.0000 </r>
       <r>    4.6357    1.0000 </r>
       <r>    4.6401    1.0000 </r>
       <r>    4.6412    1.0000 </r>
       <r>    4.6882    1.0000 </r>
       <r>    4.6889    1.0000 </r>
       <r>    4.6925    1.0000 </r>
       <r>    4.8286    1.0000 </r>
       <r>    4.8292    1.0000 </r>
       <r>    4.8303    1.0000 </r>
       <r>    4.8338    1.0000 </r>
       <r>    4.8475    1.0000 </r>
       <r>    4.8497    1.0000 </r>
       <r>    4.8515    1.0000 </r>
       <r>    4.8591    1.0000 </r>
       <r>    4.8637    1.0000 </r>
       <r>    4.8786    1.0000 </r>
       <r>    4.8801    1.0000 </r>
       <r>    4.8811    1.0000 </r>
       <r>    4.8817    1.0000 </r>
       <r>    4.8834    1.0000 </r>
       <r>    4.8852    1.0000 </r>
       <r>    4.9017    1.0000 </r>
       <r>    4.9024    1.0000 </r>
       <r>    4.9037    1.0000 </r>
       <r>    4.9047    1.0000 </r>
       <r>    4.9050    1.0000 </r>
       <r>    4.9066    1.0000 </r>
       <r>    5.1015    1.0000 </r>
       <r>    5.1031    1.0000 </r>
       <r>    5.1063    1.0000 </r>
       <r>    5.1221    1.0000 </r>
       <r>    5.1237    1.0000 </r>
       <r>    5.1268    1.0000 </r>
       <r>    5.1496    1.0000 </r>
       <r>    5.1502    1.0000 </r>
       <r>    5.1516    1.0000 </r>
       <r>    5.1521    1.0000 </r>
       <r>    5.1531    1.0000 </r>
       <r>    5.1548    1.0000 </r>
       <r>    5.1760    1.0000 </r>
       <r>    5.1787    1.0000 </r>
       <r>    5.2492    1.0000 </r>
       <r>    5.2509    1.0000 </r>
       <r>    5.2515    1.0000 </r>
       <r>    5.2523    1.0000 </r>
       <r>    5.2534    1.0000 </r>
       <r>    5.2562    1.0000 </r>
       <r>    5.4354    1.0000 </r>
       <r>    5.4368    1.0000 </r>
       <r>    5.4390    1.0000 </r>
       <r>    5.4861    1.0000 </r>
       <r>    5.4880    1.0000 </r>
       <r>    5.4902    1.0000 </r>
       <r>    5.4910    1.0000 </r>
       <r>    5.4919    1.0000 </r>
       <r>    5.4935    1.0000 </r>
       <r>    5.6078    1.0000 </r>
       <r>    5.6105    1.0000 </r>
       <r>    5.6134    1.0000 </r>
       <r>    5.6337    1.0000 </r>
       <r>    5.6364    1.0000 </r>
       <r>    5.6366    1.0000 </r>
       <r>    5.6373    1.0000 </r>
       <r>    5.6382    1.0000 </r>
       <r>    5.6396    1.0000 </r>
       <r>    5.6848    1.0000 </r>
       <r>    5.6879    1.0000 </r>
       <r>    5.6887    1.0000 </r>
       <r>    5.7081    1.0000 </r>
       <r>    5.7552    1.0000 </r>
       <r>    5.7581    1.0000 </r>
       <r>    5.8023    1.0000 </r>
       <r>    5.8037    1.0000 </r>
       <r>    5.8042    1.0000 </r>
       <r>    5.8061    1.0000 </r>
       <r>    5.8063    1.0000 </r>
       <r>    5.8087    1.0000 </r>
       <r>    5.8142    1.0000 </r>
       <r>    5.8163    1.0000 </r>
       <r>    5.8177    1.0000 </r>
       <r>    5.8194    1.0000 </r>
       <r>    5.9050    1.0000 </r>
       <r>    5.9079    1.0000 </r>
       <r>    5.9576    1.0000 </r>
       <r>    5.9590    1.0000 </r>
       <r>    5.9592    1.0000 </r>
       <r>    5.9605    1.0000 </r>
       <r>    6.2473    1.0000 </r>
       <r>    6.2516    1.0000 </r>
       <r>    6.2525    1.0000 </r>
       <r>    6.2563    1.0000 </r>
       <r>    6.2730    1.0000 </r>
       <r>    6.2749    1.0000 </r>
       <r>    6.2757    1.0000 </r>
       <r>    6.2769    1.0000 </r>
       <r>    6.2784    1.0000 </r>
       <r>    6.2789    1.0000 </r>
       <r>    6.2799    1.0000 </r>
       <r>    6.2834    1.0000 </r>
       <r>    6.2839    1.0000 </r>
       <r>    6.2853    1.0000 </r>
       <r>    6.2864    1.0000 </r>
       <r>    6.3931    1.0000 </r>
       <r>    6.3997    1.0000 </r>
       <r>    6.4011    1.0000 </r>
       <r>    6.4084    1.0000 </r>
       <r>    6.4102    1.0000 </r>
       <r>    6.4112    1.0000 </r>
       <r>    6.4113    1.0000 </r>
       <r>    6.4128    1.0000 </r>
       <r>    6.4143    1.0000 </r>
       <r>    6.4436    1.0000 </r>
       <r>    6.4485    1.0000 </r>
       <r>    6.4493    1.0000 </r>
       <r>    6.4496    1.0000 </r>
       <r>    6.4508    1.0000 </r>
       <r>    6.4527    1.0000 </r>
       <r>    6.5348    1.0000 </r>
       <r>    6.5366    1.0000 </r>
       <r>    6.5390    1.0000 </r>
       <r>    6.5392    1.0000 </r>
       <r>    6.5395    1.0000 </r>
       <r>    6.5405    1.0000 </r>
       <r>    6.5421    1.0000 </r>
       <r>    6.6758    1.0000 </r>
       <r>    6.6785    1.0000 </r>
       <r>    6.6794    1.0000 </r>
       <r>    6.6803    1.0000 </r>
       <r>    6.6817    1.0000 </r>
       <r>    6.6994    1.0000 </r>
       <r>    6.7001    1.0000 </r>
       <r>    6.7054    1.0000 </r>
       <r>    6.7492    1.0000 </r>
       <r>    6.7515    1.0000 </r>
       <r>    6.7528    1.0000 </r>
       <r>    6.7958    1.0000 </r>
       <r>    6.7973    1.0000 </r>
       <r>    6.8025    1.0000 </r>
       <r>    6.8052    1.0000 </r>
       <r>    6.8055    1.0000 </r>
       <r>    6.8064    1.0000 </r>
       <r>    6.8071    1.0000 </r>
       <r>    6.8088    1.0000 </r>
       <r>    6.8485    1.0000 </r>
       <r>    6.8509    1.0000 </r>
       <r>    6.9459    1.0000 </r>
       <r>    6.9479    1.0000 </r>
       <r>    6.9622    1.0000 </r>
       <r>    6.9684    1.0000 </r>
       <r>    6.9731    1.0000 </r>
       <r>    6.9733    1.0000 </r>
       <r>    6.9739    1.0000 </r>
       <r>    6.9748    1.0000 </r>
       <r>    6.9763    1.0000 </r>
       <r>    6.9788    1.0000 </r>
       <r>    6.9790    1.0000 </r>
       <r>    6.9803    1.0000 </r>
       <r>    6.9834    1.0000 </r>
       <r>    7.0437    1.0000 </r>
       <r>    7.0450    1.0000 </r>
       <r>    7.0495    1.0000 </r>
       <r>    7.0998    1.0000 </r>
       <r>    7.1014    1.0000 </r>
       <r>    7.1029    1.0000 </r>
       <r>    7.1042    1.0000 </r>
       <r>    7.1067    1.0000 </r>
       <r>    7.1604    1.0000 </r>
       <r>    7.1613    1.0000 </r>
       <r>    7.1634    1.0000 </r>
       <r>    7.1640    1.0000 </r>
       <r>    7.1644    1.0000 </r>
       <r>    7.1680    1.0000 </r>
       <r>    7.1787    1.0000 </r>
       <r>    7.1820    1.0000 </r>
       <r>    7.1825    1.0000 </r>
       <r>    7.1830    1.0000 </r>
       <r>    7.1835    1.0000 </r>
       <r>    7.1873    1.0000 </r>
       <r>    7.2133    1.0000 </r>
       <r>    7.2159    1.0000 </r>
       <r>    7.2186    1.0000 </r>
       <r>    7.3641    1.0000 </r>
       <r>    7.3656    1.0000 </r>
       <r>    7.3676    1.0000 </r>
       <r>    7.4295    1.0000 </r>
       <r>    7.5122    1.0000 </r>
       <r>    7.5137    1.0000 </r>
       <r>    7.5149    1.0000 </r>
       <r>    7.5165    1.0000 </r>
       <r>    7.5170    1.0000 </r>
       <r>    7.5179    1.0000 </r>
       <r>    7.5770    1.0000 </r>
       <r>    7.5792    1.0000 </r>
       <r>    7.5871    1.0000 </r>
       <r>    7.5914    1.0000 </r>
       <r>    7.8770    1.0000 </r>
       <r>    7.8795    1.0000 </r>
       <r>    7.8799    1.0000 </r>
       <r>    7.8813    1.0000 </r>
       <r>    7.8826    1.0000 </r>
       <r>    7.8838    1.0000 </r>
       <r>    7.9358    1.0000 </r>
       <r>    7.9384    1.0000 </r>
       <r>    7.9398    1.0000 </r>
       <r>    7.9414    1.0000 </r>
       <r>    7.9420    1.0000 </r>
       <r>    7.9433    1.0000 </r>
       <r>    7.9505    1.0000 </r>
       <r>    7.9554    1.0000 </r>
       <r>    7.9575    1.0000 </r>
       <r>    8.0114    1.0000 </r>
       <r>    8.0155    1.0000 </r>
       <r>    8.0171    1.0000 </r>
       <r>    8.0549    1.0000 </r>
       <r>    8.0562    1.0000 </r>
       <r>    8.0572    1.0000 </r>
       <r>    8.0578    1.0000 </r>
       <r>    8.0582    1.0000 </r>
       <r>    8.0600    1.0000 </r>
       <r>    8.0699    1.0000 </r>
       <r>    8.0734    1.0000 </r>
       <r>    8.0985    1.0000 </r>
       <r>    8.1006    1.0000 </r>
       <r>    8.1028    1.0000 </r>
       <r>    8.1030    1.0000 </r>
       <r>    8.2045    1.0000 </r>
       <r>    8.2049    1.0000 </r>
       <r>    8.2104    1.0000 </r>
       <r>    8.3006    1.0000 </r>
       <r>    8.3029    1.0000 </r>
       <r>    8.3054    1.0000 </r>
       <r>    8.5427    1.0000 </r>
       <r>    8.5448    1.0000 </r>
       <r>    8.5465    1.0000 </r>
       <r>    8.5482    1.0000 </r>
       <r>    8.5487    1.0000 </r>
       <r>    8.5497    1.0000 </r>
       <r>    8.5502    1.0000 </r>
       <r>    8.5523    1.0000 </r>
       <r>    8.5537    1.0000 </r>
       <r>    8.5693    1.0000 </r>
       <r>    8.5711    1.0000 </r>
       <r>    8.6265    1.0000 </r>
       <r>    8.6290    1.0000 </r>
       <r>    8.6297    1.0000 </r>
       <r>    8.6304    1.0000 </r>
       <r>    8.6311    1.0000 </r>
       <r>    8.6362    1.0000 </r>
       <r>    8.6615    1.0000 </r>
       <r>    8.6655    1.0000 </r>
       <r>    8.6678    1.0000 </r>
       <r>    8.6989    1.0000 </r>
       <r>    8.6993    1.0000 </r>
       <r>    8.7009    1.0000 </r>
       <r>    8.7015    1.0000 </r>
       <r>    8.7027    1.0000 </r>
       <r>    8.7050    1.0000 </r>
       <r>    8.8346    1.0000 </r>
       <r>    8.8370    1.0000 </r>
       <r>    8.8374    1.0000 </r>
       <r>    8.8389    1.0000 </r>
       <r>    8.8401    1.0000 </r>
       <r>    8.8419    1.0000 </r>
       <r>    8.8869    1.0000 </r>
       <r>    8.8915    1.0000 </r>
       <r>    8.8924    1.0000 </r>
       <r>    9.0043    1.0000 </r>
       <r>    9.0060    1.0000 </r>
       <r>    9.0070    1.0000 </r>
       <r>    9.0073    1.0000 </r>
       <r>    9.0080    1.0000 </r>
       <r>    9.0083    1.0000 </r>
       <r>    9.0373    1.0000 </r>
       <r>    9.0390    1.0000 </r>
       <r>    9.0421    1.0000 </r>
       <r>    9.3573    1.0000 </r>
       <r>    9.3587    1.0000 </r>
       <r>    9.3845    1.0000 </r>
       <r>    9.3894    1.0000 </r>
       <r>    9.3913    1.0000 </r>
       <r>    9.3918    1.0000 </r>
       <r>    9.5191    1.0019 </r>
       <r>    9.5723    1.0124 </r>
       <r>    9.5759    1.0137 </r>
       <r>    9.5771    1.0142 </r>
       <r>    9.5785    1.0147 </r>
       <r>    9.6555    1.0273 </r>
       <r>    9.6584    1.0245 </r>
       <r>    9.7553    0.5210 </r>
       <r>    9.7575    0.5021 </r>
       <r>    9.7578    0.4992 </r>
       <r>    9.7585    0.4933 </r>
       <r>    9.7600    0.4813 </r>
       <r>    9.7627    0.4581 </r>
       <r>    9.8026    0.1596 </r>
       <r>    9.8071    0.1335 </r>
       <r>    9.8074    0.1316 </r>
       <r>    9.8080    0.1285 </r>
       <r>    9.8092    0.1219 </r>
       <r>    9.8107    0.1141 </r>
       <r>   10.0139   -0.0009 </r>
       <r>   10.0144   -0.0009 </r>
       <r>   10.0153   -0.0008 </r>
       <r>   10.0157   -0.0008 </r>
       <r>   10.0169   -0.0008 </r>
       <r>   10.0174   -0.0007 </r>
       <r>   10.1139   -0.0000 </r>
       <r>   10.1165   -0.0000 </r>
       <r>   10.1168   -0.0000 </r>
       <r>   10.1182   -0.0000 </r>
       <r>   10.1188   -0.0000 </r>
       <r>   10.1208   -0.0000 </r>
       <r>   10.1486   -0.0000 </r>
       <r>   10.1500   -0.0000 </r>
       <r>   10.1506   -0.0000 </r>
       <r>   10.1521   -0.0000 </r>
       <r>   10.1775   -0.0000 </r>
       <r>   10.1817   -0.0000 </r>
       <r>   10.3279   -0.0000 </r>
       <r>   10.3288   -0.0000 </r>
       <r>   10.3576   -0.0000 </r>
       <r>   10.3598   -0.0000 </r>
       <r>   10.3601   -0.0000 </r>
       <r>   10.3608   -0.0000 </r>
       <r>   10.3796   -0.0000 </r>
       <r>   10.3800   -0.0000 </r>
       <r>   10.3826   -0.0000 </r>
       <r>   10.3981   -0.0000 </r>
       <r>   10.4008   -0.0000 </r>
       <r>   10.4018   -0.0000 </r>
       <r>   10.4134   -0.0000 </r>
       <r>   10.4663   -0.0000 </r>
       <r>   10.4697   -0.0000 </r>
       <r>   10.4703   -0.0000 </r>
       <r>   10.4707   -0.0000 </r>
       <r>   10.4711   -0.0000 </r>
       <r>   10.4730   -0.0000 </r>
       <r>   10.4756   -0.0000 </r>
       <r>   10.4779   -0.0000 </r>
       <r>   10.4792   -0.0000 </r>
       <r>   10.5232   -0.0000 </r>
       <r>   10.5249   -0.0000 </r>
       <r>   10.5253   -0.0000 </r>
       <r>   10.5259   -0.0000 </r>
       <r>   10.5271   -0.0000 </r>
       <r>   10.5297   -0.0000 </r>
       <r>   10.5482   -0.0000 </r>
       <r>   10.5499   -0.0000 </r>
       <r>   10.5707   -0.0000 </r>
       <r>   10.5745   -0.0000 </r>
       <r>   10.5778   -0.0000 </r>
       <r>   10.6430   -0.0000 </r>
       <r>   10.6452   -0.0000 </r>
       <r>   10.6633   -0.0000 </r>
       <r>   10.6765   -0.0000 </r>
       <r>   10.7029   -0.0000 </r>
       <r>   10.7270   -0.0000 </r>
       <r>   10.7587   -0.0000 </r>
       <r>   10.7804   -0.0000 </r>
       <r>   10.7885   -0.0000 </r>
       <r>   10.8186   -0.0000 </r>
       <r>   10.8485   -0.0000 </r>
       <r>   10.8635   -0.0000 </r>
       <r>   10.8660   -0.0000 </r>
       <r>   10.9062   -0.0000 </r>
       <r>   10.9121   -0.0000 </r>
       <r>   10.9245   -0.0000 </r>
       <r>   10.9292   -0.0000 </r>
       <r>   10.9383   -0.0000 </r>
       <r>   10.9548   -0.0000 </r>
       <r>   10.9655   -0.0000 </r>
       <r>   10.9783   -0.0000 </r>
       <r>   11.0046   -0.0000 </r>
       <r>   12.5284    0.0000 </r>
       <r>   12.5985    0.0000 </r>
       <r>   12.6990    0.0000 </r>
       <r>   12.7850    0.0000 </r>
       <r>   13.0372    0.0000 </r>
       <r>   13.1460    0.0000 </r>
       <r>   13.2812    0.0000 </r>
       <r>   13.6949    0.0000 </r>
      </set>
      <set comment="kpoint 2">
       <r>   -0.4562    1.0000 </r>
       <r>    0.6514    1.0000 </r>
       <r>    1.0324    1.0000 </r>
       <r>    1.0356    1.0000 </r>
       <r>    1.1072    1.0000 </r>
       <r>    1.1101    1.0000 </r>
       <r>    1.2793    1.0000 </r>
       <r>    1.5158    1.0000 </r>
       <r>    1.5192    1.0000 </r>
       <r>    1.7389    1.0000 </r>
       <r>    1.8501    1.0000 </r>
       <r>    1.8542    1.0000 </r>
       <r>    1.8571    1.0000 </r>
       <r>    2.0328    1.0000 </r>
       <r>    2.2159    1.0000 </r>
       <r>    2.3628    1.0000 </r>
       <r>    2.3671    1.0000 </r>
       <r>    2.3890    1.0000 </r>
       <r>    2.4030    1.0000 </r>
       <r>    2.4262    1.0000 </r>
       <r>    2.4292    1.0000 </r>
       <r>    2.4306    1.0000 </r>
       <r>    2.5020    1.0000 </r>
       <r>    2.5349    1.0000 </r>
       <r>    2.5354    1.0000 </r>
       <r>    2.5890    1.0000 </r>
       <r>    2.6371    1.0000 </r>
       <r>    2.6521    1.0000 </r>
       <r>    2.6561    1.0000 </r>
       <r>    2.6587    1.0000 </r>
       <r>    2.6821    1.0000 </r>
       <r>    2.7108    1.0000 </r>
       <r>    2.7295    1.0000 </r>
       <r>    2.7316    1.0000 </r>
       <r>    2.7329    1.0000 </r>
       <r>    2.7655    1.0000 </r>
       <r>    2.7709    1.0000 </r>
       <r>    2.7794    1.0000 </r>
       <r>    2.8390    1.0000 </r>
       <r>    2.8977    1.0000 </r>
       <r>    2.8990    1.0000 </r>
       <r>    2.9319    1.0000 </r>
       <r>    2.9425    1.0000 </r>
       <r>    2.9519    1.0000 </r>
       <r>    3.0110    1.0000 </r>
       <r>    3.0580    1.0000 </r>
       <r>    3.0612    1.0000 </r>
       <r>    3.0902    1.0000 </r>
       <r>    3.0911    1.0000 </r>
       <r>    3.2354    1.0000 </r>
       <r>    3.2391    1.0000 </r>
       <r>    3.2505    1.0000 </r>
       <r>    3.2539    1.0000 </r>
       <r>    3.2621    1.0000 </r>
       <r>    3.2708    1.0000 </r>
       <r>    3.2720    1.0000 </r>
       <r>    3.3422    1.0000 </r>
       <r>    3.3442    1.0000 </r>
       <r>    3.3543    1.0000 </r>
       <r>    3.3751    1.0000 </r>
       <r>    3.3767    1.0000 </r>
       <r>    3.3916    1.0000 </r>
       <r>    3.3925    1.0000 </r>
       <r>    3.4103    1.0000 </r>
       <r>    3.4115    1.0000 </r>
       <r>    3.4130    1.0000 </r>
       <r>    3.4614    1.0000 </r>
       <r>    3.4627    1.0000 </r>
       <r>    3.4634    1.0000 </r>
       <r>    3.4653    1.0000 </r>
       <r>    3.4683    1.0000 </r>
       <r>    3.4697    1.0000 </r>
       <r>    3.4795    1.0000 </r>
       <r>    3.4823    1.0000 </r>
       <r>    3.4861    1.0000 </r>
       <r>    3.4867    1.0000 </r>
       <r>    3.5691    1.0000 </r>
       <r>    3.6092    1.0000 </r>
       <r>    3.6122    1.0000 </r>
       <r>    3.6315    1.0000 </r>
       <r>    3.6388    1.0000 </r>
       <r>    3.6733    1.0000 </r>
       <r>    3.7067    1.0000 </r>
       <r>    3.7170    1.0000 </r>
       <r>    3.7187    1.0000 </r>
       <r>    3.7421    1.0000 </r>
       <r>    3.7628    1.0000 </r>
       <r>    3.7939    1.0000 </r>
       <r>    3.8809    1.0000 </r>
       <r>    3.8820    1.0000 </r>
       <r>    3.8845    1.0000 </r>
       <r>    3.8852    1.0000 </r>
       <r>    3.9292    1.0000 </r>
       <r>    3.9350    1.0000 </r>
       <r>    3.9370    1.0000 </r>
       <r>    4.0222    1.0000 </r>
       <r>    4.0405    1.0000 </r>
       <r>    4.0888    1.0000 </r>
       <r>    4.0911    1.0000 </r>
       <r>    4.0986    1.0000 </r>
       <r>    4.1186    1.0000 </r>
       <r>    4.1556    1.0000 </r>
       <r>    4.1578    1.0000 </r>
       <r>    4.1811    1.0000 </r>
       <r>    4.1878    1.0000 </r>
       <r>    4.1891    1.0000 </r>
       <r>    4.2073    1.0000 </r>
       <r>    4.2144    1.0000 </r>
       <r>    4.2151    1.0000 </r>
       <r>    4.2347    1.0000 </r>
       <r>    4.2366    1.0000 </r>
       <r>    4.2380    1.0000 </r>
       <r>    4.2397    1.0000 </r>
       <r>    4.2731    1.0000 </r>
       <r>    4.2740    1.0000 </r>
       <r>    4.2759    1.0000 </r>
       <r>    4.3129    1.0000 </r>
       <r>    4.3146    1.0000 </r>
       <r>    4.3170    1.0000 </r>
       <r>    4.3212    1.0000 </r>
       <r>    4.3628    1.0000 </r>
       <r>    4.3650    1.0000 </r>
       <r>    4.3789    1.0000 </r>
       <r>    4.4078    1.0000 </r>
       <r>    4.4272    1.0000 </r>
       <r>    4.4296    1.0000 </r>
       <r>    4.4466    1.0000 </r>
       <r>    4.4901    1.0000 </r>
       <r>    4.5528    1.0000 </r>
       <r>    4.5787    1.0000 </r>
       <r>    4.6237    1.0000 </r>
       <r>    4.6541    1.0000 </r>
       <r>    4.6560    1.0000 </r>
       <r>    4.6787    1.0000 </r>
       <r>    4.6962    1.0000 </r>
       <r>    4.7161    1.0000 </r>
       <r>    4.7195    1.0000 </r>
       <r>    4.7229    1.0000 </r>
       <r>    4.7443    1.0000 </r>
       <r>    4.7459    1.0000 </r>
       <r>    4.7597    1.0000 </r>
       <r>    4.7795    1.0000 </r>
       <r>    4.7833    1.0000 </r>
       <r>    4.7940    1.0000 </r>
       <r>    4.7953    1.0000 </r>
       <r>    4.8004    1.0000 </r>
       <r>    4.8389    1.0000 </r>
       <r>    4.8493    1.0000 </r>
       <r>    4.8518    1.0000 </r>
       <r>    4.8689    1.0000 </r>
       <r>    4.8698    1.0000 </r>
       <r>    4.8728    1.0000 </r>
       <r>    4.8787    1.0000 </r>
       <r>    4.8879    1.0000 </r>
       <r>    4.9169    1.0000 </r>
       <r>    4.9349    1.0000 </r>
       <r>    4.9373    1.0000 </r>
       <r>    4.9430    1.0000 </r>
       <r>    4.9447    1.0000 </r>
       <r>    4.9654    1.0000 </r>
       <r>    4.9685    1.0000 </r>
       <r>    4.9936    1.0000 </r>
       <r>    5.0453    1.0000 </r>
       <r>    5.0478    1.0000 </r>
       <r>    5.0719    1.0000 </r>
       <r>    5.0883    1.0000 </r>
       <r>    5.1085    1.0000 </r>
       <r>    5.1094    1.0000 </r>
       <r>    5.1190    1.0000 </r>
       <r>    5.1375    1.0000 </r>
       <r>    5.2263    1.0000 </r>
       <r>    5.2289    1.0000 </r>
[...]
       <r>     0.2180     5.6475     2.6756 </r>
       <r>     0.2745     5.8682     3.0076 </r>
       <r>     0.3311     4.8940     3.2845 </r>
       <r>     0.3877     4.8187     3.5571 </r>
       <r>     0.4442     6.2280     3.9094 </r>
       <r>     0.5008     7.9102     4.3569 </r>
       <r>     0.5574     9.0206     4.8672 </r>
       <r>     0.6140     8.5048     5.3484 </r>
       <r>     0.6705     7.2876     5.7607 </r>
       <r>     0.7271     6.9350     6.1530 </r>
       <r>     0.7837     6.0643     6.4961 </r>
       <r>     0.8403     5.9421     6.8322 </r>
       <r>     0.8968     9.0595     7.3447 </r>
       <r>     0.9534    12.5635     8.0555 </r>
       <r>     1.0100    13.1534     8.7996 </r>
       <r>     1.0665    11.8420     9.4695 </r>
       <r>     1.1231    10.0791    10.0397 </r>
       <r>     1.1797     8.5534    10.5236 </r>
       <r>     1.2363     8.6563    11.0133 </r>
       <r>     1.2928    10.6838    11.6177 </r>
       <r>     1.3494    13.9541    12.4072 </r>
       <r>     1.4060    16.5033    13.3408 </r>
       <r>     1.4625    16.6705    14.2839 </r>
       <r>     1.5191    14.5021    15.1043 </r>
       <r>     1.5757     9.9817    15.6690 </r>
       <r>     1.6323     7.2986    16.0819 </r>
       <r>     1.6888     9.9119    16.6426 </r>
       <r>     1.7454    14.0408    17.4369 </r>
       <r>     1.8020    16.2538    18.3565 </r>
       <r>     1.8586    18.4200    19.3985 </r>
       <r>     1.9151    17.9705    20.4152 </r>
       <r>     1.9717    14.4390    21.2320 </r>
       <r>     2.0283    16.2526    22.1515 </r>
       <r>     2.0848    22.9293    23.4486 </r>
       <r>     2.1414    28.8501    25.0807 </r>
       <r>     2.1980    32.7952    26.9361 </r>
       <r>     2.2546    38.0345    29.0878 </r>
       <r>     2.3111    52.5188    32.0589 </r>
       <r>     2.3677    71.9398    36.1287 </r>
       <r>     2.4243    79.3083    40.6153 </r>
       <r>     2.4809    74.7961    44.8467 </r>
       <r>     2.5374    70.3524    48.8267 </r>
       <r>     2.5940    66.8525    52.6087 </r>
       <r>     2.6506    65.9024    56.3370 </r>
       <r>     2.7071    70.6812    60.3356 </r>
       <r>     2.7637    77.4656    64.7180 </r>
       <r>     2.8203    84.8683    69.5192 </r>
       <r>     2.8769    91.0013    74.6674 </r>
       <r>     2.9334    93.0635    79.9322 </r>
       <r>     2.9900    99.0111    85.5335 </r>
       <r>     3.0466   110.5914    91.7899 </r>
       <r>     3.1031   112.4560    98.1518 </r>
       <r>     3.1597   105.2910   104.1084 </r>
       <r>     3.2163   105.3593   110.0688 </r>
       <r>     3.2729   110.5755   116.3244 </r>
       <r>     3.3294   114.5934   122.8072 </r>
       <r>     3.3860   122.9628   129.7635 </r>
       <r>     3.4426   130.8158   137.1641 </r>
       <r>     3.4992   125.6423   144.2719 </r>
       <r>     3.5557   113.0402   150.6669 </r>
       <r>     3.6123   107.4404   156.7451 </r>
       <r>     3.6689   104.6241   162.6639 </r>
       <r>     3.7254   101.6839   168.4164 </r>
       <r>     3.7820    98.6864   173.9993 </r>
       <r>     3.8386    93.2463   179.2745 </r>
       <r>     3.8952    92.9095   184.5306 </r>
       <r>     3.9517    91.4457   189.7039 </r>
       <r>     4.0083    90.1126   194.8018 </r>
       <r>     4.0649   102.0577   200.5755 </r>
       <r>     4.1215   114.2364   207.0381 </r>
       <r>     4.1780   123.7253   214.0375 </r>
       <r>     4.2346   137.1692   221.7975 </r>
       <r>     4.2912   142.3899   229.8529 </r>
       <r>     4.3477   135.4077   237.5132 </r>
       <r>     4.4043   124.2164   244.5404 </r>
       <r>     4.4609   112.1385   250.8844 </r>
       <r>     4.5175    98.4124   256.4518 </r>
       <r>     4.5740    90.7017   261.5830 </r>
       <r>     4.6306    92.1052   266.7936 </r>
       <r>     4.6872    97.8647   272.3301 </r>
       <r>     4.7437   112.9120   278.7178 </r>
       <r>     4.8003   129.1301   286.0230 </r>
       <r>     4.8569   132.3649   293.5112 </r>
       <r>     4.9135   133.2757   301.0509 </r>
       <r>     4.9700   135.8304   308.7351 </r>
       <r>     5.0266   133.2097   316.2711 </r>
       <r>     5.0832   134.6318   323.8876 </r>
       <r>     5.1398   137.1295   331.6453 </r>
       <r>     5.1963   124.1661   338.6697 </r>
       <r>     5.2529    96.9389   344.1538 </r>
       <r>     5.3095    80.0458   348.6822 </r>
       <r>     5.3660    80.4008   353.2306 </r>
       <r>     5.4226    77.8474   357.6346 </r>
       <r>     5.4792    66.9247   361.4207 </r>
       <r>     5.5358    57.9560   364.6994 </r>
       <r>     5.5923    60.7344   368.1353 </r>
       <r>     5.6489    82.6230   372.8095 </r>
       <r>     5.7055   119.0096   379.5422 </r>
       <r>     5.7621   152.0800   388.1457 </r>
       <r>     5.8186   165.5186   397.5095 </r>
       <r>     5.8752   163.0714   406.7348 </r>
       <r>     5.9318   163.9168   416.0080 </r>
       <r>     5.9883   161.4053   425.1391 </r>
       <r>     6.0449   145.7506   433.3846 </r>
       <r>     6.1015   132.4711   440.8788 </r>
       <r>     6.1581   139.0556   448.7455 </r>
       <r>     6.2146   151.8757   457.3375 </r>
       <r>     6.2712   152.4544   465.9622 </r>
       <r>     6.3278   147.4140   474.3017 </r>
       <r>     6.3843   141.9291   482.3310 </r>
       <r>     6.4409   135.3373   489.9874 </r>
       <r>     6.4975   134.2443   497.5819 </r>
       <r>     6.5541   143.9783   505.7271 </r>
       <r>     6.6106   158.6673   514.7033 </r>
       <r>     6.6672   165.6011   524.0717 </r>
       <r>     6.7238   161.4094   533.2031 </r>
       <r>     6.7804   160.7734   542.2984 </r>
       <r>     6.8369   168.2928   551.8191 </r>
       <r>     6.8935   158.8813   560.8074 </r>
       <r>     6.9501   137.3249   568.5762 </r>
       <r>     7.0066   136.3661   576.2908 </r>
       <r>     7.0632   154.0157   585.0038 </r>
       <r>     7.1198   167.7796   594.4955 </r>
       <r>     7.1764   164.0645   603.7770 </r>
       <r>     7.2329   144.2267   611.9363 </r>
       <r>     7.2895   122.1713   618.8478 </r>
       <r>     7.3461   111.2396   625.1409 </r>
       <r>     7.4027   116.0488   631.7061 </r>
       <r>     7.4592   127.9001   638.9417 </r>
       <r>     7.5158   128.9778   646.2383 </r>
       <r>     7.5724   124.1928   653.2642 </r>
       <r>     7.6289   124.1844   660.2896 </r>
       <r>     7.6855   119.9910   667.0777 </r>
       <r>     7.7421   107.1800   673.1412 </r>
       <r>     7.7987    92.2504   678.3600 </r>
       <r>     7.8552    88.2824   683.3543 </r>
       <r>     7.9118    94.2753   688.6877 </r>
       <r>     7.9684    95.7570   694.1049 </r>
       <r>     8.0249    95.1239   699.4863 </r>
       <r>     8.0815    98.0757   705.0347 </r>
       <r>     8.1381    93.2710   710.3113 </r>
       <r>     8.1947    81.4065   714.9166 </r>
       <r>     8.2512    77.8967   719.3234 </r>
       <r>     8.3078    82.5947   723.9960 </r>
       <r>     8.3644    85.3118   728.8223 </r>
       <r>     8.4210    79.6438   733.3279 </r>
       <r>     8.4775    72.5721   737.4335 </r>
       <r>     8.5341    75.1516   741.6850 </r>
       <r>     8.5907    82.0101   746.3245 </r>
       <r>     8.6472    83.3226   751.0383 </r>
       <r>     8.7038    77.5029   755.4228 </r>
       <r>     8.7604    64.8695   759.0927 </r>
       <r>     8.8170    58.4534   762.3995 </r>
       <r>     8.8735    63.5564   765.9950 </r>
       <r>     8.9301    70.8147   770.0012 </r>
       <r>     8.9867    80.1304   774.5344 </r>
       <r>     9.0433    83.6623   779.2673 </r>
       <r>     9.0998    73.3780   783.4185 </r>
       <r>     9.1564    60.4385   786.8377 </r>
       <r>     9.2130    63.4532   790.4274 </r>
       <r>     9.2695    75.8537   794.7186 </r>
       <r>     9.3261    81.1024   799.3068 </r>
       <r>     9.3827    84.9369   804.1118 </r>
       <r>     9.4393    92.9674   809.3712 </r>
       <r>     9.4958   100.2531   815.0428 </r>
       <r>     9.5524   100.2825   820.7160 </r>
       <r>     9.6090    90.4199   825.8313 </r>
       <r>     9.6655    85.5879   830.6732 </r>
       <r>     9.7221    96.1337   836.1117 </r>
       <r>     9.7787   111.5829   842.4242 </r>
       <r>     9.8353   119.1701   849.1660 </r>
       <r>     9.8918   116.0396   855.7306 </r>
       <r>     9.9484   118.2630   862.4210 </r>
       <r>    10.0050   132.0790   869.8931 </r>
       <r>    10.0616   142.5909   877.9598 </r>
       <r>    10.1181   141.7963   885.9815 </r>
       <r>    10.1747   139.0020   893.8452 </r>
       <r>    10.2313   141.9035   901.8730 </r>
       <r>    10.2878   149.1500   910.3108 </r>
       <r>    10.3444   159.3178   919.3238 </r>
       <r>    10.4010   173.0148   929.1117 </r>
       <r>    10.4576   189.3013   939.8209 </r>
       <r>    10.5141   203.5400   951.3357 </r>
       <r>    10.5707   200.6890   962.6891 </r>
       <r>    10.6273   178.1480   972.7674 </r>
       <r>    10.6839   162.0434   981.9346 </r>
       <r>    10.7404   153.9121   990.6417 </r>
       <r>    10.7970   132.0076   998.1097 </r>
       <r>    10.8536   101.4618  1003.8497 </r>
       <r>    10.9101    73.6030  1008.0136 </r>
       <r>    10.9667    48.7694  1010.7726 </r>
       <r>    11.0233    29.5038  1012.4417 </r>
       <r>    11.0799    18.5195  1013.4894 </r>
       <r>    11.1364    13.5295  1014.2548 </r>
       <r>    11.1930     9.9529  1014.8178 </r>
       <r>    11.2496     6.8316  1015.2043 </r>
       <r>    11.3061     5.7893  1015.5318 </r>
       <r>    11.3627     5.7346  1015.8562 </r>
       <r>    11.4193     4.7383  1016.1243 </r>
       <r>    11.4759     3.1578  1016.3029 </r>
       <r>    11.5324     2.2994  1016.4330 </r>
       <r>    11.5890     2.8427  1016.5938 </r>
       <r>    11.6456     3.6917  1016.8027 </r>
       <r>    11.7022     3.2860  1016.9886 </r>
       <r>    11.7587     2.1763  1017.1117 </r>
       <r>    11.8153     2.0515  1017.2278 </r>
       <r>    11.8719     2.4211  1017.3647 </r>
       <r>    11.9284     2.4057  1017.5008 </r>
       <r>    11.9850     2.7093  1017.6541 </r>
       <r>    12.0416     3.5941  1017.8574 </r>
       <r>    12.0982     4.4779  1018.1108 </r>
       <r>    12.1547     4.5421  1018.3677 </r>
       <r>    12.2113     3.6031  1018.5715 </r>
       <r>    12.2679     3.2660  1018.7563 </r>
       <r>    12.3245     4.3807  1019.0041 </r>
       <r>    12.3810     5.1923  1019.2979 </r>
       <r>    12.4376     4.7777  1019.5682 </r>
       <r>    12.4942     4.6689  1019.8323 </r>
       <r>    12.5507     5.0389  1020.1174 </r>
       <r>    12.6073     4.3854  1020.3654 </r>
       <r>    12.6639     3.0280  1020.5368 </r>
       <r>    12.7205     2.5519  1020.6811 </r>
       <r>    12.7770     2.8696  1020.8435 </r>
       <r>    12.8336     3.0550  1021.0163 </r>
       <r>    12.8902     3.2241  1021.1987 </r>
       <r>    12.9467     3.5442  1021.3992 </r>
       <r>    13.0033     3.9583  1021.6231 </r>
       <r>    13.0599     4.3356  1021.8684 </r>
       <r>    13.1165     4.6339  1022.1305 </r>
       <r>    13.1730     4.5911  1022.3903 </r>
       <r>    13.2296     3.1969  1022.5711 </r>
       <r>    13.2862     1.6731  1022.6658 </r>
       <r>    13.3428     1.5321  1022.7524 </r>
       <r>    13.3993     1.8624  1022.8578 </r>
       <r>    13.4559     1.6800  1022.9529 </r>
       <r>    13.5125     1.6179  1023.0444 </r>
       <r>    13.5690     2.2067  1023.1692 </r>
       <r>    13.6256     2.5568  1023.3139 </r>
       <r>    13.6822     2.0489  1023.4298 </r>
       <r>    13.7388     1.1871  1023.4969 </r>
       <r>    13.7953     0.6358  1023.5329 </r>
       <r>    13.8519     0.4169  1023.5565 </r>
       <r>    13.9085     0.2860  1023.5727 </r>
       <r>    13.9651     0.2931  1023.5892 </r>
       <r>    14.0216     0.6792  1023.6277 </r>
       <r>    14.0782     1.1208  1023.6911 </r>
       <r>    14.1348     1.0858  1023.7525 </r>
       <r>    14.1913     0.8491  1023.8005 </r>
       <r>    14.2479     0.6631  1023.8380 </r>
       <r>    14.3045     0.6386  1023.8742 </r>
       <r>    14.3611     0.7543  1023.9168 </r>
       <r>    14.4176     0.7542  1023.9595 </r>
       <r>    14.4742     0.5542  1023.9909 </r>
       <r>    14.5308     0.2011  1024.0022 </r>
       <r>    14.5873    -0.0088  1024.0017 </r>
       <r>    14.6439    -0.0245  1024.0004 </r>
       <r>    14.7005    -0.0058  1024.0000 </r>
       <r>    14.7571    -0.0006  1024.0000 </r>
       <r>    14.8136    -0.0000  1024.0000 </r>
       <r>    14.8702    -0.0000  1024.0000 </r>
       <r>    14.9268    -0.0000  1024.0000 </r>
       <r>    14.9834    -0.0000  1024.0000 </r>
       <r>    15.0399    -0.0000  1024.0000 </r>
       <r>    15.0965    -0.0000  1024.0000 </r>
       <r>    15.1531     0.0000  1024.0000 </r>
       <r>    15.2096     0.0000  1024.0000 </r>
       <r>    15.2662     0.0000  1024.0000 </r>
       <r>    15.3228     0.0000  1024.0000 </r>
       <r>    15.3794     0.0000  1024.0000 </r>
       <r>    15.4359     0.0000  1024.0000 </r>
      </set>
     </set>
    </array>
   </total>
  </dos>
 </calculation>
 <structure name="finalpos" >
  <crystal>
   <varray name="basis" >
    <v>     -10.98934000       0.00008000       4.40450000 </v>
    <v>       5.49474000      -9.51700000       4.40450000 </v>
    <v>       5.49460000       9.51692000       4.40450000 </v>
   </varray>
   <i name="volume">   1381.93534042 </i>
   <varray name="rec_basis" >
    <v>      -0.06066485      -0.00000045       0.07568018 </v>
    <v>       0.03033204      -0.05253756       0.07568018 </v>
    <v>       0.03033281       0.05253801       0.07568018 </v>
   </varray>
  </crystal>
  <varray name="positions" >
   <v>       0.91352333       0.99796833       0.33326833 </v>
   <v>       0.83357500       0.16642500       0.25000000 </v>
   <v>       0.99977000       0.08333000       0.16690000 </v>
   <v>       0.24999667       0.16643667       0.33356667 </v>
   <v>       0.16689333       0.08333833       0.49976833 </v>
   <v>       0.33309167       0.00024167       0.41666667 </v>
   <v>       0.41667167       0.50022667       0.33310167 </v>
   <v>       0.33357500       0.66642500       0.25000000 </v>
   <v>       0.49977000       0.58333000       0.16690000 </v>
   <v>       0.74999667       0.66643667       0.33356667 </v>
   <v>       0.66689333       0.58333833       0.49976833 </v>
   <v>       0.83309167       0.50024167       0.41666667 </v>
   <v>       0.08333833       0.66689333       0.49976833 </v>
   <v>       0.00024167       0.83309167       0.41666667 </v>
   <v>       0.16643667       0.74999667       0.33356667 </v>
   <v>       0.41666333       0.83310333       0.50023333 </v>
   <v>       0.33356000       0.75000500       0.66643500 </v>
   <v>       0.49975833       0.66690833       0.58333333 </v>
   <v>       0.58333833       0.16689333       0.49976833 </v>
   <v>       0.50024167       0.33309167       0.41666667 </v>
   <v>       0.66644000       0.24999500       0.33356500 </v>
   <v>       0.91666333       0.33310333       0.50023333 </v>
   <v>       0.83356333       0.25000333       0.66643333 </v>
   <v>       0.99975833       0.16690833       0.58333333 </v>
   <v>       0.25000500       0.33356000       0.66643500 </v>
   <v>       0.16690833       0.49975833       0.58333333 </v>
   <v>       0.33310333       0.41666333       0.50023333 </v>
   <v>       0.58333000       0.49977000       0.66690000 </v>
   <v>       0.50022667       0.41667167       0.83310167 </v>
   <v>       0.66642500       0.33357500       0.75000000 </v>
   <v>       0.91667167       0.50022667       0.83310167 </v>
   <v>       0.83357500       0.66642500       0.75000000 </v>
   <v>       0.99977000       0.58333000       0.66690000 </v>
   <v>       0.24999667       0.66643667       0.83356667 </v>
   <v>       0.16689667       0.58333667       0.99976667 </v>
   <v>       0.33309167       0.50024167       0.91666667 </v>
   <v>       0.41667167       0.00022667       0.83310167 </v>
   <v>       0.33357500       0.16642500       0.75000000 </v>
   <v>       0.49977333       0.08332833       0.66689833 </v>
   <v>       0.74999667       0.16643667       0.83356667 </v>
   <v>       0.66689667       0.08333667       0.99976667 </v>
   <v>       0.83309167       0.00024167       0.91666667 </v>
   <v>       0.08333833       0.16689333       0.99976833 </v>
   <v>       0.00024167       0.33309167       0.91666667 </v>
   <v>       0.16644000       0.24999500       0.83356500 </v>
   <v>       0.41666333       0.33310333       0.00023333 </v>
   <v>       0.33356000       0.25000500       0.16643500 </v>
   <v>       0.49975833       0.16690833       0.08333333 </v>
   <v>       0.75000500       0.83356000       0.66643500 </v>
   <v>       0.66690833       0.99975833       0.58333333 </v>
   <v>       0.83310667       0.91666167       0.50023167 </v>
   <v>       0.08333000       0.99977000       0.66690000 </v>
   <v>       0.00022667       0.91667167       0.83310167 </v>
   <v>       0.16642500       0.83357500       0.75000000 </v>
   <v>       0.58333833       0.66689333       0.99976833 </v>
   <v>       0.50024167       0.83309167       0.91666667 </v>
   <v>       0.66644000       0.74999500       0.83356500 </v>
   <v>       0.91666333       0.83310333       0.00023333 </v>
   <v>       0.83356000       0.75000500       0.16643500 </v>
   <v>       0.99975833       0.66690833       0.08333333 </v>
   <v>       0.25000500       0.83356000       0.16643500 </v>
   <v>       0.16690833       0.99975833       0.08333333 </v>
   <v>       0.33310333       0.91666333       0.00023333 </v>
   <v>       0.58333000       0.99977000       0.16690000 </v>
   <v>       0.50022667       0.91667167       0.33310167 </v>
   <v>       0.66642500       0.83357500       0.25000000 </v>
   <v>       0.75000500       0.33356000       0.16643500 </v>
   <v>       0.66690833       0.49975833       0.08333333 </v>
   <v>       0.83310333       0.41666333       0.00023333 </v>
   <v>       0.08333000       0.49977000       0.16690000 </v>
   <v>       0.00022667       0.41667167       0.33310167 </v>
   <v>       0.16642500       0.33357500       0.25000000 </v>
   <v>       0.08334000       0.91666000       0.25000000 </v>
   <v>       0.08332667       0.25000667       0.41666667 </v>
   <v>       0.58334000       0.41666000       0.25000000 </v>
   <v>       0.58332667       0.75000667       0.41666667 </v>
   <v>       0.25000667       0.58332667       0.41666667 </v>
   <v>       0.24999333       0.91667333       0.58333333 </v>
   <v>       0.75000667       0.08332667       0.41666667 </v>
   <v>       0.74999333       0.41667333       0.58333333 </v>
   <v>       0.41667333       0.24999333       0.58333333 </v>
   <v>       0.41666000       0.58334000       0.75000000 </v>
   <v>       0.08334000       0.41666000       0.75000000 </v>
   <v>       0.08332667       0.75000667       0.91666667 </v>
   <v>       0.58334000       0.91666000       0.75000000 </v>
   <v>       0.58332667       0.25000667       0.91666667 </v>
   <v>       0.25000667       0.08332667       0.91666667 </v>
   <v>       0.24999333       0.41667333       0.08333333 </v>
   <v>       0.91667333       0.74999333       0.58333333 </v>
   <v>       0.91666000       0.08334000       0.75000000 </v>
   <v>       0.75000667       0.58332667       0.91666667 </v>
   <v>       0.74999333       0.91667333       0.08333333 </v>
   <v>       0.41667333       0.74999333       0.08333333 </v>
   <v>       0.41666000       0.08334000       0.25000000 </v>
   <v>       0.91667333       0.24999333       0.08333333 </v>
   <v>       0.91666000       0.58334000       0.25000000 </v>
  </varray>
 </structure>
</modeling>
