 256 256   0   0
  0.1418917E+02  0.1588033E-08  0.1692661E-08  0.1693229E-08  0.5000000E-15
  1.000000000000000E-004
  CAR 
 Ir_Ru                                   
     14.25673427     -1.29163952  301      9.45695300      1.00000000
     -1.292  0.0000E+00  0.0000E+00
     -1.240  0.0000E+00  0.0000E+00
     -1.188  0.0000E+00  0.0000E+00
     -1.136 -0.2710E-30 -0.1404E-31
     -1.084 -0.1232E-26 -0.6384E-28
     -1.032 -0.3258E-23 -0.1689E-24
     -0.981 -0.5010E-20 -0.2598E-21
     -0.929 -0.4477E-17 -0.2323E-18
     -0.877 -0.2263E-14 -0.1175E-15
     -0.825 -0.6744E-12 -0.3507E-13
     -0.773 -0.1165E-09 -0.6072E-11
     -0.722 -0.1159E-07 -0.6067E-09
     -0.670 -0.6615E-06 -0.3489E-07
     -0.618 -0.2155E-04 -0.1152E-05
     -0.566 -0.3975E-03 -0.2175E-04
     -0.514 -0.4114E-02 -0.2350E-03
     -0.462 -0.2364E-01 -0.1460E-02
     -0.411 -0.7396E-01 -0.5293E-02
     -0.359 -0.1030E+00 -0.1063E-01
     -0.307  0.1901E+00 -0.7807E-03
     -0.255  0.1587E+01  0.8145E-01
     -0.203  0.4328E+01  0.3057E+00
     -0.151  0.6332E+01  0.6339E+00
     -0.100  0.6426E+01  0.9670E+00
     -0.048  0.6924E+01  0.1326E+01
      0.004  0.8793E+01  0.1782E+01
      0.056  0.1110E+02  0.2357E+01
      0.108  0.1354E+02  0.3059E+01
      0.160  0.1438E+02  0.3804E+01
      0.211  0.1182E+02  0.4417E+01
      0.263  0.1003E+02  0.4936E+01
      0.315  0.1403E+02  0.5663E+01
      0.367  0.2017E+02  0.6709E+01
      0.419  0.2250E+02  0.7875E+01
      0.471  0.2269E+02  0.9051E+01
      0.522  0.2349E+02  0.1027E+02
      0.574  0.2262E+02  0.1144E+02
      0.626  0.2049E+02  0.1250E+02
      0.678  0.2095E+02  0.1359E+02
      0.730  0.2054E+02  0.1465E+02
      0.781  0.1493E+02  0.1543E+02
      0.833  0.9040E+01  0.1590E+02
      0.885  0.7924E+01  0.1631E+02
      0.937  0.1139E+02  0.1690E+02
      0.989  0.1843E+02  0.1785E+02
      1.041  0.2739E+02  0.1927E+02
      1.092  0.3320E+02  0.2099E+02
      1.144  0.3321E+02  0.2271E+02
      1.196  0.2916E+02  0.2422E+02
      1.248  0.2318E+02  0.2543E+02
      1.300  0.1953E+02  0.2644E+02
      1.352  0.2138E+02  0.2755E+02
      1.403  0.2681E+02  0.2893E+02
      1.455  0.3026E+02  0.3050E+02
      1.507  0.2991E+02  0.3205E+02
      1.559  0.2932E+02  0.3357E+02
      1.611  0.3034E+02  0.3514E+02
      1.663  0.3111E+02  0.3676E+02
      1.714  0.3191E+02  0.3841E+02
      1.766  0.3475E+02  0.4021E+02
      1.818  0.3874E+02  0.4222E+02
      1.870  0.4483E+02  0.4454E+02
      1.922  0.5393E+02  0.4734E+02
      1.974  0.5934E+02  0.5041E+02
      2.025  0.5539E+02  0.5328E+02
      2.077  0.5047E+02  0.5590E+02
      2.129  0.5991E+02  0.5901E+02
      2.181  0.8454E+02  0.6339E+02
      2.233  0.1072E+03  0.6894E+02
      2.284  0.1190E+03  0.7511E+02
      2.336  0.1253E+03  0.8160E+02
      2.388  0.1310E+03  0.8839E+02
      2.440  0.1369E+03  0.9548E+02
      2.492  0.1459E+03  0.1030E+03
      2.544  0.1624E+03  0.1115E+03
      2.595  0.1813E+03  0.1209E+03
      2.647  0.1939E+03  0.1309E+03
      2.699  0.2053E+03  0.1416E+03
      2.751  0.2221E+03  0.1531E+03
      2.803  0.2309E+03  0.1650E+03
      2.855  0.2252E+03  0.1767E+03
      2.906  0.2265E+03  0.1884E+03
      2.958  0.2433E+03  0.2010E+03
      3.010  0.2573E+03  0.2144E+03
      3.062  0.2601E+03  0.2279E+03
      3.114  0.2604E+03  0.2414E+03
      3.166  0.2634E+03  0.2550E+03
      3.217  0.2716E+03  0.2691E+03
      3.269  0.2861E+03  0.2839E+03
      3.321  0.3051E+03  0.2997E+03
      3.373  0.3228E+03  0.3165E+03
      3.425  0.3307E+03  0.3336E+03
      3.477  0.3287E+03  0.3506E+03
      3.528  0.3223E+03  0.3673E+03
      3.580  0.3185E+03  0.3838E+03
      3.632  0.3170E+03  0.4003E+03
      3.684  0.3119E+03  0.4164E+03
      3.736  0.3058E+03  0.4323E+03
      3.787  0.3016E+03  0.4479E+03
      3.839  0.2974E+03  0.4633E+03
      3.891  0.2936E+03  0.4786E+03
      3.943  0.2894E+03  0.4936E+03
      3.995  0.2779E+03  0.5080E+03
      4.047  0.2667E+03  0.5218E+03
      4.098  0.2733E+03  0.5359E+03
      4.150  0.2919E+03  0.5511E+03
      4.202  0.3022E+03  0.5667E+03
      4.254  0.3046E+03  0.5825E+03
      4.306  0.3111E+03  0.5987E+03
      4.358  0.3183E+03  0.6152E+03
      4.409  0.3211E+03  0.6318E+03
      4.461  0.3235E+03  0.6486E+03
      4.513  0.3220E+03  0.6652E+03
      4.565  0.3116E+03  0.6814E+03
      4.617  0.2988E+03  0.6969E+03
      4.669  0.2936E+03  0.7121E+03
      4.720  0.2974E+03  0.7275E+03
      4.772  0.3046E+03  0.7433E+03
      4.824  0.3157E+03  0.7597E+03
      4.876  0.3298E+03  0.7768E+03
      4.928  0.3374E+03  0.7942E+03
      4.980  0.3439E+03  0.8121E+03
      5.031  0.3566E+03  0.8305E+03
      5.083  0.3653E+03  0.8495E+03
      5.135  0.3651E+03  0.8684E+03
      5.187  0.3572E+03  0.8869E+03
      5.239  0.3384E+03  0.9045E+03
      5.291  0.3077E+03  0.9204E+03
      5.342  0.2677E+03  0.9343E+03
      5.394  0.2243E+03  0.9459E+03
      5.446  0.1882E+03  0.9556E+03
      5.498  0.1724E+03  0.9646E+03
      5.550  0.1847E+03  0.9742E+03
      5.601  0.2204E+03  0.9856E+03
      5.653  0.2677E+03  0.9995E+03
      5.705  0.3182E+03  0.1016E+04
      5.757  0.3621E+03  0.1035E+04
      5.809  0.3919E+03  0.1055E+04
      5.861  0.4086E+03  0.1076E+04
      5.912  0.4181E+03  0.1098E+04
      5.964  0.4247E+03  0.1120E+04
      6.016  0.4283E+03  0.1142E+04
      6.068  0.4194E+03  0.1164E+04
      6.120  0.3961E+03  0.1184E+04
      6.172  0.3745E+03  0.1204E+04
      6.223  0.3626E+03  0.1223E+04
      6.275  0.3561E+03  0.1241E+04
      6.327  0.3553E+03  0.1259E+04
      6.379  0.3663E+03  0.1278E+04
      6.431  0.3805E+03  0.1298E+04
      6.483  0.3841E+03  0.1318E+04
      6.534  0.3892E+03  0.1338E+04
      6.586  0.4065E+03  0.1359E+04
      6.638  0.4223E+03  0.1381E+04
      6.690  0.4280E+03  0.1403E+04
      6.742  0.4263E+03  0.1425E+04
      6.794  0.4162E+03  0.1447E+04
      6.845  0.3964E+03  0.1468E+04
      6.897  0.3762E+03  0.1487E+04
      6.949  0.3673E+03  0.1506E+04
      7.001  0.3642E+03  0.1525E+04
      7.053  0.3659E+03  0.1544E+04
      7.104  0.3858E+03  0.1564E+04
      7.156  0.4114E+03  0.1585E+04
      7.208  0.4217E+03  0.1607E+04
      7.260  0.4227E+03  0.1629E+04
      7.312  0.4164E+03  0.1651E+04
      7.364  0.3939E+03  0.1671E+04
      7.415  0.3640E+03  0.1690E+04
      7.467  0.3430E+03  0.1708E+04
      7.519  0.3336E+03  0.1725E+04
      7.571  0.3299E+03  0.1742E+04
      7.623  0.3207E+03  0.1759E+04
      7.675  0.3005E+03  0.1774E+04
      7.726  0.2804E+03  0.1789E+04
      7.778  0.2698E+03  0.1803E+04
      7.830  0.2646E+03  0.1816E+04
      7.882  0.2592E+03  0.1830E+04
      7.934  0.2504E+03  0.1843E+04
      7.986  0.2433E+03  0.1855E+04
      8.037  0.2431E+03  0.1868E+04
      8.089  0.2407E+03  0.1881E+04
      8.141  0.2329E+03  0.1893E+04
      8.193  0.2288E+03  0.1904E+04
      8.245  0.2320E+03  0.1917E+04
      8.297  0.2369E+03  0.1929E+04
      8.348  0.2390E+03  0.1941E+04
      8.400  0.2380E+03  0.1954E+04
      8.452  0.2311E+03  0.1965E+04
      8.504  0.2205E+03  0.1977E+04
      8.556  0.2132E+03  0.1988E+04
      8.607  0.2085E+03  0.1999E+04
      8.659  0.2017E+03  0.2009E+04
      8.711  0.1934E+03  0.2019E+04
      8.763  0.1850E+03  0.2029E+04
      8.815  0.1796E+03  0.2038E+04
      8.867  0.1845E+03  0.2048E+04
      8.918  0.2062E+03  0.2058E+04
      8.970  0.2317E+03  0.2070E+04
      9.022  0.2380E+03  0.2083E+04
      9.074  0.2271E+03  0.2094E+04
      9.126  0.2110E+03  0.2105E+04
      9.178  0.1916E+03  0.2115E+04
      9.229  0.1787E+03  0.2125E+04
      9.281  0.1905E+03  0.2134E+04
      9.333  0.2213E+03  0.2146E+04
      9.385  0.2415E+03  0.2158E+04
      9.437  0.2432E+03  0.2171E+04
      9.489  0.2442E+03  0.2184E+04
      9.540  0.2450E+03  0.2196E+04
      9.592  0.2440E+03  0.2209E+04
      9.644  0.2644E+03  0.2223E+04
      9.696  0.3076E+03  0.2239E+04
      9.748  0.3345E+03  0.2256E+04
      9.800  0.3298E+03  0.2273E+04
      9.851  0.3181E+03  0.2290E+04
      9.903  0.3149E+03  0.2306E+04
      9.955  0.3190E+03  0.2323E+04
     10.007  0.3356E+03  0.2340E+04
     10.059  0.3694E+03  0.2359E+04
     10.111  0.4056E+03  0.2380E+04
     10.162  0.4257E+03  0.2402E+04
     10.214  0.4339E+03  0.2425E+04
     10.266  0.4447E+03  0.2448E+04
     10.318  0.4620E+03  0.2472E+04
     10.370  0.4816E+03  0.2497E+04
     10.421  0.4957E+03  0.2522E+04
     10.473  0.4948E+03  0.2548E+04
     10.525  0.4658E+03  0.2572E+04
     10.577  0.4096E+03  0.2593E+04
     10.629  0.3428E+03  0.2611E+04
     10.681  0.2651E+03  0.2625E+04
     10.732  0.1677E+03  0.2633E+04
     10.784  0.7131E+02  0.2637E+04
     10.836  0.1164E+02  0.2638E+04
     10.888 -0.5436E+01  0.2637E+04
     10.940 -0.3717E+01  0.2637E+04
     10.992 -0.9803E+00  0.2637E+04
     11.043 -0.1459E+00  0.2637E+04
     11.095 -0.1384E-01  0.2637E+04
     11.147 -0.8878E-03  0.2637E+04
     11.199 -0.3839E-04  0.2637E+04
     11.251 -0.1068E-05  0.2637E+04
     11.303 -0.1826E-07  0.2637E+04
     11.354 -0.1858E-09  0.2637E+04
     11.406 -0.1537E-11  0.2637E+04
     11.458 -0.8601E-10  0.2637E+04
     11.510 -0.9961E-08  0.2637E+04
     11.562 -0.6651E-06  0.2637E+04
     11.614 -0.2543E-04  0.2637E+04
     11.665 -0.5505E-03  0.2637E+04
     11.717 -0.6580E-02  0.2637E+04
     11.769 -0.4097E-01  0.2637E+04
     11.821 -0.1077E+00  0.2637E+04
     11.873  0.6163E-01  0.2637E+04
     11.924  0.9911E+00  0.2637E+04
     11.976  0.2217E+01  0.2637E+04
     12.028  0.2224E+01  0.2637E+04
     12.080  0.1152E+01  0.2638E+04
     12.132  0.6232E+00  0.2638E+04
     12.184  0.8361E+00  0.2638E+04
     12.235  0.1319E+01  0.2638E+04
     12.287  0.2213E+01  0.2638E+04
     12.339  0.3143E+01  0.2638E+04
     12.391  0.3521E+01  0.2638E+04
     12.443  0.2864E+01  0.2638E+04
     12.495  0.1544E+01  0.2638E+04
     12.546  0.1343E+01  0.2638E+04
     12.598  0.2328E+01  0.2639E+04
     12.650  0.3036E+01  0.2639E+04
     12.702  0.3425E+01  0.2639E+04
     12.754  0.3480E+01  0.2639E+04
     12.806  0.2987E+01  0.2639E+04
     12.857  0.2766E+01  0.2639E+04
     12.909  0.2708E+01  0.2640E+04
     12.961  0.1891E+01  0.2640E+04
     13.013  0.9634E+00  0.2640E+04
     13.065  0.7849E+00  0.2640E+04
     13.117  0.8751E+00  0.2640E+04
     13.168  0.1026E+01  0.2640E+04
     13.220  0.1347E+01  0.2640E+04
     13.272  0.1317E+01  0.2640E+04
     13.324  0.7252E+00  0.2640E+04
     13.376  0.1368E+00  0.2640E+04
     13.427 -0.5505E-01  0.2640E+04
     13.479 -0.3426E-01  0.2640E+04
     13.531 -0.7188E-02  0.2640E+04
     13.583 -0.7466E-03  0.2640E+04
     13.635 -0.4178E-04  0.2640E+04
     13.687 -0.1302E-05  0.2640E+04
     13.738 -0.2299E-07  0.2640E+04
     13.790 -0.2319E-09  0.2640E+04
     13.842 -0.1345E-11  0.2640E+04
     13.894 -0.4760E-14  0.2640E+04
     13.946  0.0000E+00  0.2640E+04
     13.998  0.0000E+00  0.2640E+04
     14.049  0.0000E+00  0.2640E+04
     14.101  0.0000E+00  0.2640E+04
     14.153  0.0000E+00  0.2640E+04
     14.205  0.0000E+00  0.2640E+04
     14.257  0.0000E+00  0.2640E+04
