  480  480    1    1
  0.1460328E+02  0.2838585E-08  0.2838585E-08  0.1455662E-08  0.5000000E-15
  1.000000000000000E-004
  CAR 
 Ir_Ru                                   
   4320     19   2592
