 vasp.5.4.1 24Jun15 (build Dec 12 2017 15:24:27) complex                        
  
 executed on           IFC91_ompi date 2020.04.05  19:19:52
 running on   96 total cores
 distrk:  each k-point on   24 cores,    4 groups
 distr:  one band on NCORES_PER_BAND=  24 cores,    1 groups


--------------------------------------------------------------------------------------------------------


 INCAR:
 POTCAR:   PAW_PBE Ir 06Sep2000                   

 ----------------------------------------------------------------------------- 
|                                                                             |
|           W    W    AA    RRRRR   N    N  II  N    N   GGGG   !!!           |
|           W    W   A  A   R    R  NN   N  II  NN   N  G    G  !!!           |
|           W    W  A    A  R    R  N N  N  II  N N  N  G       !!!           |
|           W WW W  AAAAAA  RRRRR   N  N N  II  N  N N  G  GGG   !            |
|           WW  WW  A    A  R   R   N   NN  II  N   NN  G    G                |
|           W    W  A    A  R    R  N    N  II  N    N   GGGG   !!!           |
|                                                                             |
|      For optimal performance we recommend to set                            |
|        NCORE= 4 - approx SQRT( number of cores)                             |
|      NCORE specifies how many cores store one orbital (NPAR=cpu/NCORE).     |
|      This setting can  greatly improve the performance of VASP for DFT.     |
|      The default, NPAR=number of cores might be grossly inefficient         |
|      on modern multi-core architectures or massively parallel machines.     |
|      Do your own testing !!!!                                               |
|      Unfortunately you need to use the default for GW and RPA calculations. |
|      (for HF NCORE is supported but not extensively tested yet)             |
|                                                                             |
 ----------------------------------------------------------------------------- 


 ----------------------------------------------------------------------------- 
|                                                                             |
|           W    W    AA    RRRRR   N    N  II  N    N   GGGG   !!!           |
|           W    W   A  A   R    R  NN   N  II  NN   N  G    G  !!!           |
|           W    W  A    A  R    R  N N  N  II  N N  N  G       !!!           |
|           W WW W  AAAAAA  RRRRR   N  N N  II  N  N N  G  GGG   !            |
|           WW  WW  A    A  R   R   N   NN  II  N   NN  G    G                |
|           W    W  A    A  R    R  N    N  II  N    N   GGGG   !!!           |
|                                                                             |
|      You have enabled k-point parallelism (KPAR>1).                         |
|      This developmental code was originally  written by Paul Kent at ORNL,  |
|      and carefully double checked in Vienna.                                |
|      GW as well as linear response parallelism added by Martijn Marsman     |
|      and Georg Kresse.                                                      |
|      Carefully verify results versus KPAR=1.                                |
|      Report problems to Paul Kent and Vienna.                               |
|                                                                             |
 ----------------------------------------------------------------------------- 

 POTCAR:   PAW_PBE Ir 06Sep2000                   
   VRHFIN =Ir: s1d8                                                             
   LEXCH  = PE                                                                  
   EATOM  =   560.2052 eV,   41.1739 Ry                                         
                                                                                
   TITEL  = PAW_PBE Ir 06Sep2000                                                
   LULTRA =        F    use ultrasoft PP ?                                      
   IUNSCR =        1    unscreen: 0-lin 1-nonlin 2-no                           
   RPACOR =    2.250    partial core radius                                     
   POMASS =  192.220; ZVAL   =    9.000    mass and valenz                      
   RCORE  =    2.600    outmost cutoff radius                                   
   RWIGS  =    2.690; RWIGS  =    1.423    wigner-seitz radius (au A)           
   ENMAX  =  210.870; ENMIN  =  158.153 eV                                      
   RCLOC  =    1.857    cutoff for local pot                                    
   LCOR   =        T    correct aug charges                                     
   LPAW   =        T    paw PP                                                  
   EAUG   =  318.962                                                            
   DEXC   =    -.027                                                            
   RMAX   =    3.175    core radius for proj-oper                               
   RAUG   =    1.300    factor for augmentation sphere                          
   RDEP   =    2.748    radius for radial grids                                 
   QCUT   =   -3.937; QGAM   =    7.874    optimization parameters              
                                                                                
   Description                                                                  
     l     E      TYP  RCUT    TYP  RCUT                                        
     2   .000     23  2.600                                                     
     2   .000     23  2.600                                                     
     0   .000     23  2.600                                                     
     0   .000     23  2.600                                                     
     1  -.200     23  2.600                                                     
     1  1.500     23  2.600                                                     
     3   .000      7   .000                                                     
  local pseudopotential read in
  partial core-charges read in
  atomic valenz-charges read in
  non local Contribution for L=           2  read in
    real space projection operators read in
  non local Contribution for L=           2  read in
    real space projection operators read in
  non local Contribution for L=           0  read in
    real space projection operators read in
  non local Contribution for L=           0  read in
    real space projection operators read in
  non local Contribution for L=           1  read in
    real space projection operators read in
  non local Contribution for L=           1  read in
    real space projection operators read in
    PAW grid and wavefunctions read in
 
   number of l-projection  operators is LMAX  =           6
   number of lm-projection operators is LMMAX =          18
 
 Optimization of the real space projectors (new method)

 maximal supplied QI-value         = 14.36
 optimisation between [QCUT,QGAM] = [  7.32, 14.79] = [ 15.02, 61.28] Ry 
 Optimized for a Real-space Cutoff    1.90 Angstroem

   l    n(q)    QCUT    max X(q) W(low)/X(q) W(high)/X(q)  e(spline) 
   2      7     7.325     3.989    0.48E-04    0.12E-03    0.52E-07
   2      7     7.325    41.237    0.42E-03    0.82E-03    0.24E-06
   0      8     7.325    14.164    0.20E-04    0.65E-05    0.58E-08
   0      8     7.325    44.257    0.10E-03    0.65E-04    0.79E-07
   1      8     7.325     7.849    0.48E-04    0.36E-04    0.21E-07
   1      8     7.325    11.007    0.20E-03    0.22E-03    0.12E-06
 PAW_PBE Ir 06Sep2000                   :
 energy of atom  1       EATOM= -560.2052
 kinetic energy error for atom=    0.0540 (will be added to EATOM!!)
 
 
 POSCAR: title                                   
  positions in cartesian coordinates
  No initial velocities read in
 exchange correlation table for  LEXCH =        8
   RHO(1)=    0.500       N(1)  =     2000
   RHO(2)=  100.500       N(2)  =     4000
 


--------------------------------------------------------------------------------------------------------


 ion  position               nearest neighbor table
   1  0.271  0.063  0.000- 224 2.74   8 2.74 223 2.74 222 2.74   6 2.74   7 2.74 308 2.75 292 2.75
                           291 2.75 309 2.75   5 2.75   3 2.75
   2  0.179  0.888  0.800-   3 2.73   5 2.73   4 2.74  29 2.74  27 2.74 320 2.75 344 2.75 342 2.75
                             6 2.75   7 2.75 319 2.75  28 2.79
   3  0.221  0.012  0.800-   2 2.73 344 2.74   7 2.74 223 2.74 272 2.74 218 2.74   5 2.75 285 2.75
                           337 2.75   1 2.75 308 2.75   4 2.75
   4  0.071  0.863  0.700-   2 2.74 270 2.74 247 2.74 342 2.74 319 2.74 313 2.75 337 2.75   5 2.75
                           315 2.75   3 2.75 341 2.76 218 2.77
   5  0.121  0.912  0.900- 218 2.70   2 2.73 320 2.74 222 2.74   6 2.74 248 2.74 347 2.75   3 2.75
                           292 2.75   1 2.75 313 2.75   4 2.75
   6  0.229  0.937  1.000- 351 2.69  29 2.74  20 2.74  25 2.74   5 2.74 292 2.74   1 2.74   7 2.75
                           290 2.75   8 2.75   2 2.75 320 2.75
   7  0.329  0.037  0.900-  27 2.73  25 2.74   3 2.74 308 2.74   1 2.74   6 2.75 286 2.75   8 2.75
                           344 2.75 306 2.75   2 2.75 372 2.76
   8  0.379  0.087  0.100-  25 2.74   1 2.74  19 2.74 291 2.74 309 2.74 306 2.75 290 2.75 310 2.75
                             7 2.75   6 2.75 295 2.75 373 2.77
   9  0.254  0.879  0.600-  16 2.74 344 2.74 343 2.74  15 2.74  14 2.74 342 2.74  11 2.75  27 2.75
                            13 2.75  28 2.75 356 2.77 357 2.78
  10  0.162  0.704  0.400-  12 2.74  37 2.74  13 2.74  35 2.74  11 2.74 392 2.75 408 2.75  14 2.75
                           406 2.75  15 2.75 391 2.75  36 2.82
  11  0.204  0.829  0.400-  15 2.74 343 2.74 408 2.74  10 2.74 338 2.74 356 2.75  13 2.75  21 2.75
                             9 2.75 401 2.75  12 2.75 352 2.76
  12  0.054  0.679  0.300- 350 2.72 338 2.74  10 2.74 327 2.74 406 2.74 391 2.74 401 2.75 385 2.75
                            13 2.75 387 2.75  11 2.75 405 2.76
  13  0.104  0.729  0.500-  14 2.74 342 2.74 338 2.74  10 2.74 392 2.74 328 2.74  11 2.75 379 2.75
                            12 2.75 385 2.75   9 2.75  28 2.75
  14  0.212  0.754  0.600-  68 2.60  28 2.68 383 2.70  26 2.72  13 2.74  37 2.74   9 2.74  33 2.74
                            15 2.75  10 2.75  16 2.75 392 2.75
  15  0.312  0.854  0.500- 356 2.70  35 2.74  11 2.74  33 2.74   9 2.74  52 2.74  14 2.75  22 2.75
                           408 2.75  16 2.75  10 2.75 354 2.75
  16  0.362  0.904  0.700-  26 2.73   9 2.74  33 2.74  27 2.74  67 2.74  53 2.74 354 2.75  15 2.75
                            14 2.75 358 2.75  31 2.75 357 2.76
  17  0.454  0.079  0.400- 356 2.73 296 2.74  24 2.74  23 2.74  22 2.74 294 2.74 364 2.75  19 2.75
                           355 2.75  21 2.75 365 2.75 295 2.77
  18  0.362  0.904  0.200-  20 2.74  21 2.74  61 2.74  19 2.74  59 2.74 408 2.75  32 2.75  22 2.75
                            30 2.75  23 2.75 407 2.75  60 2.90
  19  0.404  0.029  0.200-  23 2.74   8 2.74  32 2.74  18 2.74 290 2.74  21 2.75  17 2.75  25 2.75
                            20 2.75 364 2.75 295 2.77 373 2.81
  20  0.254  0.879  0.100- 351 2.69   6 2.74 290 2.74  18 2.74  30 2.74 407 2.74 401 2.75  25 2.75
                            21 2.75  29 2.75  19 2.75 403 2.75
  21  0.304  0.929  0.300- 356 2.73 294 2.74  22 2.74  18 2.74 290 2.74 408 2.74 352 2.74  11 2.75
                            19 2.75  20 2.75  17 2.75 401 2.75
  22  0.412  0.954  0.400- 356 2.68  61 2.74  21 2.74  52 2.74  17 2.74  57 2.74  23 2.75  15 2.75
                            18 2.75 354 2.75 408 2.75  24 2.75
  23  0.512  0.054  0.300-  59 2.74  19 2.74  17 2.74  57 2.74 364 2.74 412 2.74 362 2.74 374 2.75
                            22 2.75  24 2.75  32 2.75  18 2.75
  24  0.562  0.104  0.500-  57 2.74  17 2.74  51 2.74 355 2.74 413 2.74 365 2.74 354 2.75  23 2.75
                           359 2.75  22 2.75 366 2.75 362 2.78
  25  0.354  0.979  0.000-   7 2.74   6 2.74   8 2.74  32 2.74  30 2.74  20 2.75  27 2.75  19 2.75
                            29 2.75  31 2.76 372 2.77 373 2.78
  26  0.262  0.804  0.798-  68 2.58  28 2.67 383 2.69  14 2.72  16 2.73  27 2.74  67 2.74 384 2.74
                            69 2.75  29 2.75  30 2.78  31 2.83
  27  0.304  0.929  0.800-   7 2.73  16 2.74 344 2.74  26 2.74   2 2.74 372 2.75  29 2.75  25 2.75
                             9 2.75  28 2.75  31 2.76 357 2.79
  28  0.155  0.778  0.700- 383 2.66  26 2.67  14 2.68 377 2.75   9 2.75  29 2.75  13 2.75 379 2.75
                            27 2.75 319 2.79 342 2.79   2 2.79
  29  0.204  0.829  0.900-   6 2.74  30 2.74 320 2.74 384 2.74   2 2.74 377 2.75  27 2.75 403 2.75
                            20 2.75  25 2.75  28 2.75  26 2.75
  30  0.312  0.854  1.000-  69 2.74  29 2.74  20 2.74  65 2.74  25 2.74 407 2.75  18 2.75  32 2.75
                           384 2.78  26 2.78  31 2.81  60 2.90
  31  0.416  0.958  0.900- 372 2.68 370 2.69 358 2.69 420 2.73  32 2.75  16 2.75  27 2.76  67 2.76
                            65 2.76  25 2.76  30 2.81  26 2.83
  32  0.462  0.004  0.100-  25 2.74  65 2.74  19 2.74  59 2.74 370 2.75  18 2.75  23 2.75  30 2.75
                           374 2.75  31 2.75 421 2.76 373 2.77
  33  0.338  0.796  0.600-  16 2.74  40 2.74  15 2.74  39 2.74  14 2.74  38 2.74  52 2.75  35 2.75
                            67 2.75  53 2.75  37 2.75  68 2.76
  34  0.244  0.619  0.393-  84 2.58  36 2.60  46 2.65  48 2.70 439 2.70  35 2.74  83 2.74  85 2.79
                            37 2.79 440 2.80  39 2.80  38 2.85
  35  0.288  0.746  0.400-  39 2.74  15 2.74  48 2.74 408 2.74  10 2.74  34 2.74  37 2.75  61 2.75
                            33 2.75  41 2.75  52 2.75  36 2.75
  36  0.139  0.594  0.300-  34 2.60  46 2.66 439 2.66 433 2.75  41 2.75  37 2.75  45 2.75 435 2.75
                            35 2.75  10 2.82 406 2.82 391 2.82
  37  0.188  0.646  0.500-  14 2.74  38 2.74  10 2.74 392 2.74 440 2.74  35 2.75 427 2.75 433 2.75
                            33 2.75  36 2.75  68 2.76  34 2.79
  38  0.296  0.671  0.600- 431 2.71  85 2.74  37 2.74 116 2.74  81 2.74  33 2.74  39 2.75  66 2.75
                            40 2.75 440 2.75  34 2.85  68 2.87
  39  0.396  0.771  0.500- 100 2.66  50 2.67  83 2.74  35 2.74  33 2.74  81 2.74  52 2.74  62 2.75
                            38 2.75  48 2.75  40 2.75  34 2.80
  40  0.446  0.821  0.700-  33 2.74  81 2.74  67 2.74 115 2.74 101 2.74  53 2.74  66 2.75  39 2.75
                            54 2.75  38 2.75  71 2.76  50 2.84
  41  0.238  0.696  0.200- 408 2.74  48 2.74 407 2.74  46 2.74 406 2.74  35 2.75  43 2.75  45 2.75
                            61 2.75  36 2.75  60 2.76  47 2.79
  42  0.143  0.518  0.990- 430 2.62 447 2.66  44 2.67  92 2.67 432 2.70  43 2.74  91 2.74 448 2.80
                            45 2.81  93 2.81  46 2.88  47 2.96
  43  0.188  0.646  0.000- 407 2.74 402 2.74  42 2.74  69 2.75  45 2.75  41 2.75  44 2.75 425 2.75
                           432 2.76  60 2.76 384 2.76  47 2.79
  44  0.038  0.496  0.900-  42 2.67 399 2.68 382 2.73 447 2.73 402 2.74 430 2.74 441 2.75 429 2.75
                            45 2.75 443 2.75  43 2.75 425 2.76
  45  0.088  0.546  0.100-  46 2.74 406 2.74 402 2.74 448 2.74 400 2.74 441 2.75 435 2.75  43 2.75
                            44 2.75  41 2.75  36 2.75  42 2.81
  46  0.196  0.571  0.200-  84 2.63  34 2.65  36 2.66  45 2.74  93 2.74  89 2.74  41 2.74 439 2.75
                            48 2.75 448 2.77  42 2.88  47 2.90
  47  0.305  0.680  0.100-  60 2.48  58 2.51 108 2.59  70 2.61  48 2.76  91 2.79  43 2.79  41 2.79
                            89 2.79 432 2.79  46 2.90  42 2.96
  48  0.346  0.721  0.300-  34 2.70  41 2.74  89 2.74  83 2.74  35 2.74  61 2.74 109 2.74  39 2.75
                            46 2.75  62 2.75  47 2.76  58 2.86
  49  0.638  0.096  0.800-  56 2.74 360 2.74  55 2.74 359 2.74  54 2.74 358 2.74 420 2.74 444 2.75
                            51 2.75 419 2.75  53 2.75 445 2.75
  50  0.543  0.918  0.588- 100 2.57  62 2.58  52 2.66  64 2.67  39 2.67  51 2.74  99 2.74  53 2.82
                           101 2.82  40 2.84  55 2.84  54 2.92
  51  0.588  0.046  0.600-  55 2.74 359 2.74  24 2.74  64 2.74 354 2.74  50 2.74  53 2.75 413 2.75
                            57 2.75  49 2.75  52 2.75 444 2.75
  52  0.438  0.896  0.500-  50 2.66 354 2.74  22 2.74  62 2.74  15 2.74  39 2.74  33 2.75  57 2.75
                            53 2.75  61 2.75  51 2.75  35 2.75
  53  0.488  0.946  0.700- 358 2.74  54 2.74 354 2.74  40 2.74  16 2.74 420 2.75  51 2.75  67 2.75
                            52 2.75  33 2.75  49 2.75  50 2.82
  54  0.596  0.971  0.800- 420 2.70 101 2.74  53 2.74 124 2.74  97 2.74  49 2.74  55 2.75 418 2.75
                            40 2.75  56 2.75  71 2.90  50 2.92
  55  0.696  0.071  0.700-  99 2.74  51 2.74  97 2.74  49 2.74 444 2.74  54 2.75 414 2.75  56 2.75
                            64 2.75 442 2.76 468 2.79  50 2.84
  56  0.746  0.121  0.900-  97 2.74  49 2.74 123 2.74 419 2.74 445 2.74 418 2.75  55 2.75 423 2.75
                            54 2.75 446 2.75 469 2.77 442 2.79
  57  0.538  0.996  0.400-  64 2.74  24 2.74  63 2.74  23 2.74  62 2.74  22 2.74  52 2.75 412 2.75
                            51 2.75  59 2.75 413 2.75  61 2.75
  58  0.442  0.817  0.185-  60 2.47  47 2.51  70 2.55 108 2.59  72 2.66 107 2.74  59 2.74  61 2.84
                           109 2.84  48 2.86  63 2.86  62 2.95
  59  0.488  0.946  0.200-  23 2.74  63 2.74  72 2.74  32 2.74  18 2.74  58 2.74  61 2.75  57 2.75
                            65 2.75 412 2.75  60 2.76 421 2.80
  60  0.341  0.792  0.100-  58 2.47  47 2.48  70 2.58  41 2.76  65 2.76  61 2.76  69 2.76  59 2.76
                            43 2.76  18 2.90  30 2.90 407 2.90
  61  0.388  0.846  0.300-  62 2.74  22 2.74  18 2.74  48 2.74 408 2.74  59 2.75  35 2.75  52 2.75
                            57 2.75  41 2.75  60 2.76  58 2.84
  62  0.496  0.871  0.400-  50 2.58 100 2.66  61 2.74 109 2.74  52 2.74 105 2.74  57 2.74  63 2.75
                            39 2.75  48 2.75  64 2.75  58 2.95
  63  0.596  0.971  0.300-  59 2.74 107 2.74 105 2.74  57 2.74 412 2.74  62 2.75 422 2.75  64 2.75
                            72 2.75 410 2.75 452 2.80  58 2.86
  64  0.646  0.021  0.500-  50 2.67  57 2.74 105 2.74  51 2.74  99 2.74 413 2.74  63 2.75  55 2.75
                            62 2.75 414 2.75 453 2.76 410 2.80
  65  0.438  0.896  0.000-  71 2.69  32 2.74  72 2.74  30 2.74  70 2.74  67 2.75  59 2.75  69 2.75
                            31 2.76  60 2.76 420 2.76 421 2.77
  66  0.346  0.721  0.800-  71 2.61 431 2.71 432 2.73 116 2.74  69 2.74 117 2.74  67 2.74 115 2.74
                            40 2.75  70 2.75  38 2.75  68 2.87
  67  0.388  0.846  0.800-  71 2.69  40 2.74  16 2.74  66 2.74  26 2.74  69 2.75  53 2.75  65 2.75
                            33 2.75 420 2.76  68 2.76  31 2.76
  68  0.234  0.699  0.700- 383 2.56  26 2.58  14 2.60 425 2.75  33 2.76  69 2.76  37 2.76 427 2.76
                            67 2.76 431 2.85  66 2.87  38 2.87
  69  0.288  0.746  0.900-  30 2.74  70 2.74  66 2.74 432 2.74 384 2.74 425 2.75  67 2.75  43 2.75
                            65 2.75  26 2.75  68 2.76  60 2.76
  70  0.396  0.771  1.000-  58 2.55  60 2.58  47 2.61  71 2.61 108 2.68  69 2.74 117 2.74 113 2.74
                            65 2.74  66 2.75  72 2.75 432 2.77
  71  0.487  0.862  0.900-  70 2.61  66 2.61  67 2.69 115 2.69 113 2.69  65 2.69  72 2.76  40 2.76
                           420 2.81 124 2.84  54 2.90 418 2.90
  72  0.546  0.921  0.100-  58 2.66  65 2.74 113 2.74 107 2.74  59 2.74 125 2.74 418 2.75  63 2.75
                           422 2.75  70 2.75  71 2.76 421 2.76
  73  0.221  0.513  0.800-  79 2.70 432 2.72 430 2.73  80 2.74  78 2.74 431 2.75 116 2.75  92 2.75
                            75 2.75  91 2.75  77 2.75 117 2.75
  74  0.129  0.337  0.600-  79 2.64 132 2.74  76 2.74 133 2.74  77 2.74 131 2.74  75 2.74 456 2.75
                            78 2.75 455 2.75 462 2.75 464 2.78
  75  0.171  0.463  0.600- 426 2.69  79 2.70 440 2.74  74 2.74 431 2.74  85 2.75  77 2.75  73 2.75
                            76 2.75 116 2.75 457 2.75 464 2.76
  76  0.021  0.313  0.500- 426 2.68 415 2.70  74 2.74 438 2.74 455 2.74 462 2.75 449 2.75  77 2.75
                           461 2.75  75 2.75 451 2.75 457 2.76
  77  0.071  0.363  0.700- 430 2.73  78 2.74  74 2.74 456 2.74 416 2.74 426 2.74  75 2.75 467 2.75
                            76 2.75  92 2.75 449 2.75  73 2.75
  78  0.179  0.387  0.800-  79 2.64  77 2.74 133 2.74  92 2.74 156 2.74  73 2.74 129 2.74 471 2.75
                            90 2.75  74 2.75  80 2.75 456 2.75
  79  0.272  0.480  0.700-  78 2.64  74 2.64  75 2.70 131 2.70 129 2.70  73 2.70  80 2.75 464 2.81
                           116 2.82 180 2.82  86 2.87 114 2.87
  80  0.329  0.537  0.900-  73 2.74 129 2.74  91 2.74 155 2.74 117 2.74 181 2.74 114 2.75  90 2.75
                            95 2.75  78 2.75 118 2.75  79 2.75
  81  0.421  0.713  0.600-  87 2.70  40 2.74  88 2.74  39 2.74  38 2.74  86 2.74 116 2.75  83 2.75
                           115 2.75  85 2.75 101 2.75 100 2.75
  82  0.332  0.540  0.410-  87 2.57  86 2.62 464 2.66  85 2.67 149 2.67  83 2.74 147 2.74 463 2.80
                            96 2.82 148 2.86  94 2.88  84 2.91
  83  0.371  0.663  0.400-  87 2.70  39 2.74  48 2.74  96 2.74  34 2.74  82 2.74  85 2.75 109 2.75
                            81 2.75  89 2.75 100 2.75  84 2.75
  84  0.218  0.515  0.300-  34 2.58  46 2.63 439 2.63 457 2.75  89 2.75  85 2.75  93 2.75  83 2.75
                           459 2.75 463 2.83  94 2.85  82 2.91
  85  0.271  0.563  0.500-  82 2.67  38 2.74  86 2.74 440 2.74 464 2.74 457 2.74  83 2.75  75 2.75
                           116 2.75  81 2.75  84 2.75  34 2.79
  86  0.379  0.587  0.600-  82 2.62  87 2.64 149 2.74  85 2.74 180 2.74 116 2.74 145 2.74  81 2.74
                           114 2.75  88 2.75 464 2.78  79 2.87
  87  0.472  0.680  0.500-  82 2.57  86 2.64 147 2.70  83 2.70 145 2.70  81 2.70  88 2.75  96 2.75
                           164 2.82 110 2.87 100 2.90  98 2.92
  88  0.529  0.737  0.700-  98 2.70 145 2.74  81 2.74 179 2.74 115 2.74 165 2.74 101 2.74 114 2.75
                           119 2.75  86 2.75 102 2.75  87 2.75
  89  0.321  0.613  0.200-  96 2.74  48 2.74  95 2.74  46 2.74  94 2.74  83 2.75  91 2.75  93 2.75
                           109 2.75 108 2.75  84 2.75  47 2.79
  90  0.229  0.437  1.000-  92 2.74 156 2.74  93 2.74 157 2.74  91 2.74 155 2.74 472 2.75  80 2.75
                            78 2.75  94 2.75 471 2.75  95 2.75
  91  0.271  0.563  0.000-  95 2.74  80 2.74  90 2.74  42 2.74 117 2.75  93 2.75  73 2.75  89 2.75
                            92 2.75 108 2.75 432 2.76  47 2.79
  92  0.121  0.413  0.900-  42 2.67 447 2.70 430 2.73  90 2.74  78 2.74 471 2.74  73 2.75 465 2.75
                            77 2.75  93 2.75 467 2.75  91 2.75
  93  0.171  0.463  0.100-  46 2.74  94 2.74  90 2.74 472 2.74 448 2.74 459 2.75  91 2.75  92 2.75
                            89 2.75 465 2.75  84 2.75  42 2.81
  94  0.279  0.487  0.200- 463 2.71 157 2.74  93 2.74 153 2.74  89 2.74  95 2.75  90 2.75  96 2.75
                           472 2.75 148 2.79  84 2.85  82 2.88
  95  0.379  0.587  0.100-  91 2.74 155 2.74  89 2.74 153 2.74  94 2.75 118 2.75  96 2.75  80 2.75
                           106 2.75  90 2.75 108 2.79 172 2.85
  96  0.429  0.637  0.300-  89 2.74 153 2.74 147 2.74  83 2.74 109 2.74 173 2.74 106 2.75  95 2.75
                            94 2.75 110 2.75  87 2.75  82 2.82
  97  0.721  0.013  0.800-  56 2.74 104 2.74 103 2.74  55 2.74  54 2.74 102 2.74 124 2.75  99 2.75
                           123 2.75 101 2.75 468 2.78 469 2.78
  98  0.631  0.839  0.607- 102 2.65 101 2.69 165 2.69  88 2.70 103 2.70  99 2.74 163 2.74 164 2.79
                           112 2.80 110 2.85 100 2.87  87 2.92
  99  0.671  0.963  0.600-  55 2.74 103 2.74 112 2.74  64 2.74  98 2.74  50 2.74 101 2.75  97 2.75
                           105 2.75 100 2.75 468 2.77 453 2.80
 100  0.519  0.814  0.500-  50 2.57  62 2.66  39 2.66  81 2.75 105 2.75 101 2.75 109 2.75  99 2.75
                            83 2.75 110 2.82  98 2.87  87 2.90
 101  0.571  0.863  0.700-  98 2.69 102 2.74  54 2.74  40 2.74  88 2.74  99 2.75 115 2.75 124 2.75
                            81 2.75  97 2.75 100 2.75  50 2.82
 102  0.679  0.887  0.800-  98 2.65 101 2.74 165 2.74 124 2.74 196 2.74  97 2.74 161 2.74 103 2.75
                           119 2.75 104 2.75  88 2.75 122 2.78
 103  0.779  0.987  0.700-  98 2.70 468 2.71 163 2.74  99 2.74 161 2.74  97 2.74 476 2.74 102 2.75
                           454 2.75 104 2.75 112 2.75 466 2.75
 104  0.829  0.037  0.900-  97 2.74 161 2.74 123 2.74 195 2.74 477 2.74 466 2.75 103 2.75 127 2.75
                           102 2.75 470 2.75 122 2.77 469 2.77
 105  0.621  0.913  0.400- 111 2.72  64 2.74 112 2.74  63 2.74  62 2.74 110 2.74 107 2.75  99 2.75
                           109 2.75 100 2.75 453 2.77 452 2.78
 106  0.529  0.737  0.200- 111 2.69 173 2.74 109 2.74 171 2.74 107 2.74  96 2.75 120 2.75 110 2.75
                           118 2.75  95 2.75 108 2.79 172 2.85
 107  0.571  0.863  0.200- 111 2.72  63 2.74 120 2.74  72 2.74 106 2.74  58 2.74 125 2.75 109 2.75
                           105 2.75 113 2.75 108 2.75 452 2.77
 108  0.420  0.714  0.100-  58 2.59  47 2.59  70 2.68  89 2.75 113 2.75 109 2.75 117 2.75 107 2.75
                            91 2.75 106 2.79 118 2.79  95 2.79
 109  0.471  0.763  0.300-  62 2.74 110 2.74 106 2.74  48 2.74  96 2.74 107 2.75  83 2.75 105 2.75
                            89 2.75 108 2.75 100 2.75  58 2.84
 110  0.579  0.787  0.400- 111 2.69 109 2.74 173 2.74 164 2.74 169 2.74 105 2.74 106 2.75  96 2.75
                           112 2.75 100 2.82  98 2.85  87 2.87
 111  0.676  0.884  0.300- 110 2.69 106 2.69 171 2.72 107 2.72 169 2.72 105 2.72 452 2.74 112 2.75
                           120 2.75 126 2.81 450 2.81 188 2.91
 112  0.729  0.937  0.500- 105 2.74 169 2.74  99 2.74 163 2.74 189 2.74 450 2.75 103 2.75 110 2.75
                           454 2.75 111 2.75 453 2.76  98 2.80
 113  0.521  0.813  0.000-  71 2.69 120 2.74  72 2.74 119 2.74 118 2.74  70 2.74 124 2.75 115 2.75
                           107 2.75 117 2.75 125 2.75 108 2.75
 114  0.429  0.637  0.800- 116 2.74 180 2.74 117 2.74 181 2.74 115 2.74 179 2.74  80 2.75  88 2.75
                           118 2.75  86 2.75 119 2.75  79 2.87
 115  0.471  0.763  0.800-  71 2.69 119 2.74  40 2.74  88 2.74  66 2.74 114 2.74 117 2.75 101 2.75
                           113 2.75  81 2.75 124 2.75 116 2.75
 116  0.321  0.613  0.700- 431 2.70 114 2.74  66 2.74  38 2.74  86 2.74  73 2.75  81 2.75 117 2.75
                            85 2.75  75 2.75 115 2.75  79 2.82
 117  0.371  0.663  0.900- 118 2.74  70 2.74 114 2.74  66 2.74  80 2.74 432 2.74 115 2.75  91 2.75
                           116 2.75 113 2.75  73 2.75 108 2.75
 118  0.479  0.687  1.000- 117 2.74 181 2.74 113 2.74 177 2.74 119 2.75  95 2.75 114 2.75 106 2.75
                            80 2.75 120 2.75 108 2.79 172 2.85
 119  0.579  0.787  0.900- 115 2.74 179 2.74 113 2.74 177 2.74 124 2.74 196 2.74 118 2.75 102 2.75
                           120 2.75  88 2.75 114 2.75 122 2.77
 120  0.629  0.837  0.100- 122 2.73 113 2.74 177 2.74 107 2.74 171 2.74 125 2.74 197 2.74 106 2.75
                           119 2.75 126 2.75 118 2.75 111 2.75
 121  0.821  0.113  0.200- 452 2.73 128 2.74 424 2.74 127 2.74 423 2.74 422 2.74 126 2.74 460 2.75
                           451 2.75 123 2.75 125 2.75 461 2.75
 122  0.730  0.938  0.002- 126 2.72 125 2.72 197 2.72 120 2.73 127 2.73 195 2.74 123 2.74 196 2.75
                           124 2.75 104 2.77 119 2.77 102 2.78
 123  0.771  0.063  0.000- 127 2.74 423 2.74  56 2.74 104 2.74 418 2.74 122 2.74 125 2.75  97 2.75
                           121 2.75 124 2.75 460 2.75 469 2.81
 124  0.621  0.913  0.900- 418 2.74  54 2.74 102 2.74 119 2.74 113 2.75  97 2.75 125 2.75 101 2.75
                           123 2.75 115 2.75 122 2.75  71 2.84
 125  0.671  0.963  0.100- 122 2.72 126 2.74 422 2.74 418 2.74 120 2.74  72 2.74 452 2.74 107 2.75
                           123 2.75 124 2.75 121 2.75 113 2.75
 126  0.779  0.987  0.200- 452 2.68 122 2.72 197 2.74 125 2.74 193 2.74 121 2.74 127 2.75 450 2.75
                           128 2.75 120 2.75 111 2.81 188 2.87
 127  0.879  0.087  0.100- 458 2.73 122 2.73 195 2.74 123 2.74 121 2.74 193 2.74 460 2.74 126 2.75
                           470 2.75 128 2.75 104 2.75 140 2.76
 128  0.929  0.137  0.300- 121 2.74 193 2.74 187 2.74 451 2.74 141 2.74 461 2.74 450 2.75 127 2.75
                           455 2.75 126 2.75 462 2.75 458 2.78
 129  0.304  0.429  0.800-  79 2.70  80 2.74 136 2.74 135 2.74  78 2.74 134 2.74 180 2.75 156 2.75
                           131 2.75 155 2.75 133 2.75 181 2.75
 130  0.212  0.254  0.600- 191 2.61 132 2.74 204 2.74 133 2.74 205 2.74 131 2.74 203 2.74 144 2.75
                           192 2.75 134 2.75 142 2.75 135 2.75
 131  0.254  0.379  0.600-  79 2.70 135 2.74 144 2.74  74 2.74 130 2.74 149 2.75 133 2.75 129 2.75
                           137 2.75 132 2.75 180 2.75 464 2.76
 132  0.104  0.229  0.500- 191 2.64 462 2.73  74 2.74 130 2.74 142 2.74 455 2.74 185 2.75 137 2.75
                           133 2.75 141 2.75 131 2.75 187 2.75
 133  0.154  0.279  0.700-  78 2.74 134 2.74 130 2.74  74 2.74 192 2.74 456 2.74 131 2.75 475 2.75
                           132 2.75 156 2.75 129 2.75 185 2.75
 134  0.262  0.304  0.800- 205 2.74 133 2.74 236 2.74 156 2.74 129 2.74 201 2.74 135 2.75 154 2.75
                           130 2.75 136 2.75 192 2.75 479 2.76
 135  0.362  0.404  0.700- 131 2.74 203 2.74 129 2.74 201 2.74 180 2.74 134 2.75 150 2.75 136 2.75
                           144 2.75 130 2.75 178 2.75 260 2.76
 136  0.412  0.454  0.900- 129 2.74 201 2.74 235 2.74 155 2.74 261 2.74 181 2.74 178 2.75 154 2.75
                           135 2.75 134 2.75 182 2.75 159 2.75
 137  0.204  0.329  0.400- 464 2.71 462 2.73 144 2.74 143 2.74 142 2.74 463 2.75 132 2.75 139 2.75
                           131 2.75 149 2.75 141 2.75 148 2.75
 138  0.112  0.154  0.198- 212 2.67 140 2.69 478 2.72 480 2.73 139 2.74 211 2.74 141 2.75 213 2.75
                           200 2.77 143 2.77 142 2.78 199 2.82
 139  0.154  0.279  0.200- 458 2.70 463 2.73 480 2.73 143 2.74 472 2.74 138 2.74 157 2.75 141 2.75
                           137 2.75 473 2.75 140 2.75 148 2.75
 140  0.005  0.129  0.100- 138 2.69 458 2.71 478 2.73 193 2.75 141 2.75 477 2.75 139 2.75 195 2.75
                           473 2.76 470 2.76 127 2.76 199 2.77
 141  0.054  0.179  0.300- 462 2.73 458 2.73 142 2.74 128 2.74 200 2.74 139 2.75 187 2.75 132 2.75
                           193 2.75 137 2.75 140 2.75 138 2.75
 142  0.162  0.204  0.400- 191 2.61 141 2.74 213 2.74 204 2.74 132 2.74 209 2.74 137 2.74 143 2.75
                           130 2.75 200 2.75 144 2.75 138 2.78
 143  0.262  0.304  0.300- 148 2.68 228 2.71 146 2.72 211 2.74 139 2.74 209 2.74 137 2.74 480 2.74
                           158 2.75 142 2.75 144 2.75 138 2.77
 144  0.312  0.354  0.500- 209 2.74 137 2.74 203 2.74 131 2.74 229 2.74 149 2.74 130 2.75 143 2.75
                           135 2.75 142 2.75 150 2.75 146 2.78
 145  0.504  0.629  0.600-  87 2.70  88 2.74 152 2.74 150 2.74  86 2.74 164 2.75 180 2.75 147 2.75
                           179 2.75 165 2.75 149 2.75 151 2.76
 146  0.411  0.453  0.395- 148 2.65 228 2.68 158 2.68 160 2.72 143 2.72 147 2.74 227 2.74 149 2.77
                           229 2.77 144 2.78 150 2.82 151 2.84
 147  0.454  0.579  0.400-  87 2.70  96 2.74 160 2.74 146 2.74  82 2.74 149 2.75 173 2.75 145 2.75
                           153 2.75 164 2.75 148 2.75 151 2.76
 148  0.305  0.428  0.300- 146 2.65 158 2.68 143 2.68 137 2.75 153 2.75 149 2.75 157 2.75 147 2.75
                           139 2.75 463 2.76  94 2.79  82 2.86
 149  0.354  0.479  0.500-  82 2.67  86 2.74 150 2.74 144 2.74 464 2.74 147 2.75 131 2.75 180 2.75
                           137 2.75 145 2.75 148 2.75 146 2.77
 150  0.462  0.504  0.600- 149 2.74 229 2.74 180 2.74 145 2.74 225 2.74 135 2.75 178 2.75 152 2.75
                           144 2.75 260 2.76 151 2.81 146 2.82
 151  0.566  0.608  0.500- 162 2.64 174 2.69 164 2.70 244 2.70 152 2.75 160 2.75 147 2.76 227 2.76
                           145 2.76 225 2.76 150 2.81 146 2.84
 152  0.612  0.654  0.700- 145 2.74 225 2.74 179 2.74 259 2.74 165 2.74 245 2.74 178 2.75 183 2.75
                           150 2.75 166 2.75 151 2.75 162 2.80
 153  0.404  0.529  0.200-  96 2.74 160 2.74  95 2.74 158 2.74  94 2.74 147 2.75 155 2.75 173 2.75
                           157 2.75 148 2.75 172 2.75 159 2.77
 154  0.312  0.354  1.000- 236 2.74 156 2.74 237 2.74 157 2.74 235 2.74 155 2.74 136 2.75 134 2.75
                           158 2.75 480 2.75 479 2.76 159 2.84
 155  0.354  0.479  0.000-  95 2.74  80 2.74 136 2.74  90 2.74 154 2.74 181 2.75 157 2.75 129 2.75
                           153 2.75 156 2.75 172 2.75 159 2.77
 156  0.204  0.329  0.900-  90 2.74 154 2.74 134 2.74  78 2.74 471 2.74 473 2.74 129 2.75 133 2.75
                           157 2.75 475 2.75 155 2.75 479 2.76
 157  0.254  0.379  0.100-  94 2.74 158 2.74 154 2.74  90 2.74 472 2.74 480 2.74 473 2.74 139 2.75
                           155 2.75 156 2.75 153 2.75 148 2.75
 158  0.362  0.404  0.200- 148 2.68 146 2.68 228 2.71 157 2.74 237 2.74 153 2.74 233 2.74 480 2.75
                           143 2.75 154 2.75 160 2.75 159 2.84
 159  0.468  0.509  0.100- 172 2.57 170 2.60 182 2.66 252 2.68 160 2.75 136 2.75 235 2.77 155 2.77
                           233 2.77 153 2.77 158 2.84 154 2.84
 160  0.512  0.554  0.300- 146 2.72 233 2.74 153 2.74 227 2.74 147 2.74 173 2.74 253 2.74 158 2.75
                           174 2.75 151 2.75 159 2.75 170 2.82
 161  0.804  0.929  0.800- 104 2.74 168 2.74 167 2.74 103 2.74 102 2.74 166 2.74 476 2.75 196 2.75
                           163 2.75 195 2.75 165 2.75 477 2.75
 162  0.711  0.752  0.593- 151 2.64 174 2.65 164 2.69 244 2.69 176 2.70 163 2.74 243 2.74 165 2.79
                           245 2.79 152 2.80 167 2.80 166 2.85
 163  0.754  0.879  0.600- 103 2.74 167 2.74 112 2.74 176 2.74  98 2.74 162 2.74 165 2.75 189 2.75
                           161 2.75 169 2.75 476 2.75 164 2.75
 164  0.604  0.729  0.500- 162 2.69 151 2.70 110 2.74 174 2.74 145 2.75 169 2.75 165 2.75 173 2.75
                           147 2.75 163 2.75  98 2.79  87 2.82
 165  0.654  0.779  0.700-  98 2.69 102 2.74 166 2.74 152 2.74  88 2.74 163 2.75 179 2.75 164 2.75
                           196 2.75 161 2.75 145 2.75 162 2.79
 166  0.762  0.804  0.800- 245 2.74 165 2.74 196 2.74 276 2.74 161 2.74 241 2.74 167 2.75 183 2.75
                           194 2.75 168 2.75 152 2.75 162 2.85
 167  0.862  0.904  0.700- 163 2.74 243 2.74 161 2.74 241 2.74 476 2.74 220 2.74 166 2.75 190 2.75
                           168 2.75 176 2.75 474 2.76 162 2.80
 168  0.912  0.954  0.900- 161 2.74 241 2.74 275 2.74 195 2.74 221 2.74 477 2.74 194 2.75 167 2.75
                           166 2.75 478 2.75 199 2.75 474 2.79
 169  0.704  0.829  0.400- 111 2.72 112 2.74 176 2.74 174 2.74 110 2.74 164 2.75 163 2.75 171 2.75
                           173 2.75 189 2.75 188 2.76 175 2.78
 170  0.610  0.652  0.190- 172 2.56 159 2.60 182 2.62 252 2.67 184 2.69 251 2.74 171 2.74 173 2.81
                           253 2.81 160 2.82 174 2.88 175 2.93
 171  0.654  0.779  0.200- 111 2.72 120 2.74 184 2.74 106 2.74 170 2.74 197 2.75 173 2.75 169 2.75
                           177 2.75 172 2.75 188 2.76 175 2.78
 172  0.507  0.627  0.100- 170 2.56 159 2.57 182 2.63 153 2.75 177 2.75 173 2.75 181 2.75 171 2.75
                           155 2.75 106 2.85 118 2.85  95 2.85
 173  0.554  0.679  0.300- 110 2.74 174 2.74 106 2.74 160 2.74  96 2.74 171 2.75 147 2.75 164 2.75
                           153 2.75 169 2.75 172 2.75 170 2.81
 174  0.662  0.704  0.400- 162 2.65 151 2.69 173 2.74 253 2.74 244 2.74 164 2.74 249 2.74 169 2.74
                           160 2.75 176 2.75 175 2.87 170 2.88
 175  0.769  0.811  0.300- 188 2.52 198 2.60 186 2.64 268 2.69 176 2.75 184 2.75 251 2.78 171 2.78
                           169 2.78 249 2.78 174 2.87 170 2.93
 176  0.812  0.854  0.500- 162 2.70 169 2.74 249 2.74 243 2.74 163 2.74 269 2.74 189 2.74 186 2.75
                           167 2.75 174 2.75 190 2.75 175 2.75
 177  0.604  0.729  0.000- 120 2.74 184 2.74 183 2.74 119 2.74 118 2.74 182 2.74 196 2.75 179 2.75
                           171 2.75 181 2.75 197 2.75 172 2.75
 178  0.512  0.554  0.800- 180 2.74 261 2.74 181 2.74 259 2.74 179 2.74 136 2.75 152 2.75 182 2.75
                           150 2.75 135 2.75 183 2.75 260 2.76
 179  0.554  0.679  0.800- 119 2.74 183 2.74 152 2.74  88 2.74 178 2.74 114 2.74 181 2.75 165 2.75
                           177 2.75 145 2.75 196 2.75 180 2.75
 180  0.404  0.529  0.700- 114 2.74 178 2.74 150 2.74  86 2.74 135 2.74 129 2.75 145 2.75 181 2.75
                           149 2.75 131 2.75 179 2.75  79 2.82
 181  0.454  0.579  0.900- 118 2.74 182 2.74 178 2.74 114 2.74  80 2.74 136 2.74 179 2.75 155 2.75
                           180 2.75 129 2.75 177 2.75 172 2.75
 182  0.562  0.604  1.000- 170 2.62 172 2.63 159 2.66 261 2.74 181 2.74 252 2.74 257 2.74 177 2.74
                           183 2.75 178 2.75 136 2.75 184 2.75
 183  0.662  0.704  0.900- 179 2.74 259 2.74 257 2.74 177 2.74 196 2.74 276 2.74 182 2.75 166 2.75
                           184 2.75 152 2.75 194 2.75 178 2.75
 184  0.712  0.754  0.100- 170 2.69 257 2.74 177 2.74 251 2.74 171 2.74 277 2.74 197 2.74 194 2.75
                           183 2.75 182 2.75 175 2.75 198 2.78
 185  0.004  0.129  0.600- 192 2.74 456 2.74 455 2.74 190 2.74 454 2.74 132 2.75 476 2.75 187 2.75
                           475 2.75 189 2.75 133 2.75 191 2.79
 186  0.912  0.954  0.400- 188 2.60 175 2.64 198 2.68 269 2.74 189 2.74 267 2.74 187 2.74 176 2.75
                           200 2.75 190 2.75 268 2.76 191 2.90
 187  0.954  0.079  0.400- 455 2.74 200 2.74 128 2.74 450 2.74 186 2.74 189 2.75 141 2.75 185 2.75
                           193 2.75 132 2.75 188 2.76 191 2.79
 188  0.807  0.926  0.300- 175 2.52 198 2.57 186 2.60 169 2.76 193 2.76 197 2.76 189 2.76 171 2.76
                           187 2.76 450 2.87 126 2.87 111 2.91
 189  0.854  0.979  0.500- 190 2.74 454 2.74 450 2.74 186 2.74 112 2.74 176 2.74 187 2.75 163 2.75
                           476 2.75 185 2.75 169 2.75 188 2.76
 190  0.962  0.004  0.600- 474 2.72 189 2.74 269 2.74 476 2.74 220 2.74 185 2.74 265 2.74 167 2.75
                           186 2.75 192 2.75 176 2.75 191 2.90
 191  0.071  0.113  0.500- 142 2.61 130 2.61 204 2.64 132 2.64 192 2.76 200 2.76 187 2.79 267 2.79
                           265 2.79 185 2.79 190 2.90 186 2.90
 192  0.112  0.154  0.700- 474 2.71 185 2.74 265 2.74 475 2.74 219 2.74 133 2.74 205 2.74 479 2.74
                           130 2.75 190 2.75 134 2.75 191 2.76
 193  0.904  0.029  0.200- 199 2.71 128 2.74 200 2.74 127 2.74 126 2.74 198 2.74 195 2.75 187 2.75
                           141 2.75 197 2.75 140 2.75 188 2.76
 194  0.812  0.854  1.000- 199 2.66 196 2.74 276 2.74 277 2.74 197 2.74 275 2.74 195 2.74 168 2.75
                           184 2.75 166 2.75 183 2.75 198 2.82
 195  0.854  0.979  0.000- 199 2.71 127 2.74 168 2.74 104 2.74 194 2.74 122 2.74 197 2.75 477 2.75
                           193 2.75 161 2.75 196 2.75 140 2.75
 196  0.704  0.829  0.900- 194 2.74 166 2.74 102 2.74 183 2.74 119 2.74 177 2.75 161 2.75 197 2.75
                           165 2.75 195 2.75 179 2.75 122 2.75
 197  0.754  0.879  0.100- 122 2.72 126 2.74 194 2.74 184 2.74 120 2.74 171 2.75 195 2.75 196 2.75
                           193 2.75 177 2.75 188 2.76 198 2.77
 198  0.864  0.905  0.205- 188 2.57 175 2.60 186 2.68 199 2.70 200 2.72 268 2.73 273 2.74 193 2.74
                           277 2.77 197 2.77 184 2.78 194 2.82
 199  0.957  0.999  0.100- 194 2.66 198 2.70 195 2.71 275 2.71 193 2.71 273 2.71 212 2.74 200 2.75
                           168 2.75 140 2.77 138 2.82 478 2.84
 200  0.012  0.054  0.300- 198 2.72 273 2.74 193 2.74 267 2.74 187 2.74 141 2.74 213 2.74 186 2.75
                           142 2.75 199 2.75 191 2.76 138 2.77
 201  0.388  0.346  0.800- 208 2.74 136 2.74 207 2.74 135 2.74 206 2.74 134 2.74 236 2.75 203 2.75
                           235 2.75 205 2.75 261 2.75 260 2.75
 202  0.298  0.173  0.607- 206 2.65 205 2.69 285 2.69 272 2.70 207 2.70 283 2.74 203 2.74 204 2.79
                           216 2.80 271 2.80 284 2.84 214 2.85
 203  0.338  0.296  0.600- 135 2.74 207 2.74 144 2.74 216 2.74 130 2.74 202 2.74 205 2.75 229 2.75
                           201 2.75 209 2.75 204 2.75 260 2.75
 204  0.188  0.146  0.500- 191 2.64 130 2.74 142 2.74 214 2.74 271 2.74 265 2.75 209 2.75 205 2.75
                           213 2.75 203 2.75 267 2.75 202 2.79
 205  0.238  0.196  0.700- 202 2.69 134 2.74 206 2.74 130 2.74 192 2.74 272 2.74 203 2.75 219 2.75
                           204 2.75 236 2.75 265 2.75 201 2.75
 206  0.346  0.221  0.800- 202 2.65 205 2.74 285 2.74 236 2.74 308 2.74 201 2.74 281 2.74 207 2.75
                           223 2.75 208 2.75 272 2.75 234 2.78
 207  0.446  0.321  0.700- 202 2.70 260 2.71 203 2.74 283 2.74 281 2.74 201 2.74 332 2.74 206 2.75
                           230 2.75 208 2.75 216 2.75 258 2.75
 208  0.496  0.371  0.900- 201 2.74 281 2.74 235 2.74 307 2.74 261 2.74 333 2.74 258 2.75 207 2.75
                           239 2.75 206 2.75 262 2.75 234 2.77
 209  0.288  0.246  0.400- 215 2.72 144 2.74 216 2.74 143 2.74 142 2.74 214 2.74 204 2.75 211 2.75
                           203 2.75 229 2.75 213 2.75 228 2.75
 210  0.196  0.071  0.200- 279 2.69 215 2.69 292 2.74 213 2.74 293 2.74 211 2.74 291 2.74 280 2.75
                           224 2.75 214 2.75 222 2.75 212 2.79
 211  0.238  0.196  0.200- 215 2.72 480 2.73 143 2.74 224 2.74 210 2.74 138 2.74 237 2.75 213 2.75
                           209 2.75 217 2.75 228 2.75 212 2.75
 212  0.086  0.047  0.100- 478 2.66 138 2.67 199 2.74 273 2.75 217 2.75 213 2.75 221 2.75 211 2.75
                           275 2.75 279 2.75 210 2.79 222 2.79
 213  0.138  0.096  0.300- 142 2.74 214 2.74 210 2.74 280 2.74 200 2.74 211 2.75 267 2.75 204 2.75
                           273 2.75 209 2.75 212 2.75 138 2.75
 214  0.246  0.121  0.400- 215 2.69 293 2.74 213 2.74 204 2.74 289 2.74 209 2.74 271 2.75 210 2.75
                           280 2.75 216 2.75 284 2.79 202 2.85
 215  0.342  0.217  0.300- 214 2.69 210 2.69 211 2.72 291 2.72 289 2.72 209 2.72 216 2.75 224 2.75
                           228 2.80 238 2.81 226 2.81 300 2.86
 216  0.396  0.271  0.500- 209 2.74 289 2.74 283 2.74 203 2.74 229 2.74 301 2.74 226 2.75 207 2.75
                           230 2.75 214 2.75 215 2.75 202 2.80
 217  0.188  0.146  0.000- 479 2.72 478 2.72 224 2.74 223 2.74 222 2.74 480 2.74 236 2.75 219 2.75
                           211 2.75 221 2.75 237 2.75 212 2.75
 218  0.097  0.972  0.805- 222 2.68 221 2.70   5 2.70 248 2.72 223 2.72 219 2.74   3 2.74   4 2.77
                           220 2.77 272 2.78 247 2.78 270 2.82
 219  0.138  0.096  0.800- 474 2.68 479 2.71 223 2.74 272 2.74 192 2.74 218 2.74 221 2.75 205 2.75
                           217 2.75 265 2.75 236 2.75 220 2.75
 220  0.988  0.946  0.700- 474 2.69 270 2.74 190 2.74 167 2.74 247 2.74 241 2.75 265 2.75 221 2.75
                           269 2.75 243 2.75 219 2.75 218 2.77
 221  0.038  0.996  0.900- 218 2.70 474 2.72 478 2.72 222 2.74 168 2.74 248 2.74 219 2.75 275 2.75
                           220 2.75 217 2.75 241 2.75 212 2.75
 222  0.146  0.021  1.000- 218 2.68 279 2.69 221 2.74   1 2.74 292 2.74 217 2.74   5 2.74 223 2.75
                           210 2.75 224 2.75 248 2.75 212 2.79
 223  0.246  0.121  0.900- 218 2.72 219 2.74   1 2.74 217 2.74 236 2.74 308 2.74   3 2.74 222 2.75
                           206 2.75 224 2.75 272 2.75 234 2.77
 224  0.296  0.171  0.100- 234 2.73   1 2.74 217 2.74 211 2.74 291 2.74 237 2.74 309 2.74 210 2.75
                           223 2.75 222 2.75 238 2.75 215 2.75
 225  0.588  0.546  0.600- 231 2.73 152 2.74 232 2.74 150 2.74 230 2.74 244 2.75 227 2.75 259 2.75
                           245 2.75 229 2.75 260 2.75 151 2.76
 226  0.496  0.371  0.400- 231 2.72 229 2.74 301 2.74 299 2.74 227 2.74 216 2.75 240 2.75 230 2.75
                           238 2.75 228 2.76 215 2.81 300 2.82
 227  0.538  0.496  0.400- 231 2.73 240 2.74 160 2.74 226 2.74 146 2.74 229 2.75 253 2.75 225 2.75
                           233 2.75 244 2.75 228 2.75 151 2.76
 228  0.387  0.346  0.300- 146 2.68 158 2.71 143 2.71 209 2.75 233 2.75 229 2.75 237 2.75 227 2.75
                           211 2.75 226 2.76 238 2.76 215 2.80
 229  0.438  0.396  0.500- 150 2.74 230 2.74 226 2.74 144 2.74 216 2.74 227 2.75 203 2.75 225 2.75
                           209 2.75 228 2.75 260 2.75 146 2.77
 230  0.546  0.421  0.600- 260 2.71 231 2.72 229 2.74 301 2.74 332 2.74 225 2.74 297 2.74 207 2.75
                           226 2.75 258 2.75 232 2.75 216 2.75
 231  0.644  0.519  0.500- 230 2.72 226 2.72 227 2.73 299 2.73 297 2.73 225 2.73 232 2.75 240 2.75
                           244 2.76 316 2.76 254 2.78 242 2.78
 232  0.696  0.571  0.700- 317 2.74 297 2.74 225 2.74 259 2.74 331 2.74 245 2.74 242 2.75 258 2.75
                           246 2.75 230 2.75 231 2.75 263 2.75
 233  0.488  0.446  0.200- 160 2.74 240 2.74 239 2.74 158 2.74 238 2.74 252 2.75 227 2.75 235 2.75
                           237 2.75 253 2.75 228 2.75 159 2.77
 234  0.396  0.271  0.002- 238 2.72 237 2.72 309 2.72 224 2.73 239 2.73 307 2.74 235 2.74 308 2.75
                           236 2.75 208 2.77 223 2.77 206 2.78
 235  0.438  0.396  0.000- 239 2.74 136 2.74 208 2.74 154 2.74 234 2.74 261 2.75 237 2.75 201 2.75
                           233 2.75 236 2.75 252 2.75 159 2.77
 236  0.288  0.246  0.900- 479 2.72 154 2.74 134 2.74 206 2.74 223 2.74 201 2.75 217 2.75 205 2.75
                           237 2.75 219 2.75 235 2.75 234 2.75
 237  0.338  0.296  0.100- 234 2.72 158 2.74 238 2.74 154 2.74 224 2.74 480 2.74 211 2.75 235 2.75
                           236 2.75 233 2.75 217 2.75 228 2.75
 238  0.446  0.321  0.200- 234 2.72 237 2.74 309 2.74 305 2.74 233 2.74 239 2.75 226 2.75 240 2.75
                           224 2.75 228 2.76 215 2.81 300 2.82
 239  0.546  0.421  0.100- 234 2.73 235 2.74 307 2.74 305 2.74 233 2.74 252 2.74 324 2.74 238 2.75
                           262 2.75 240 2.75 208 2.75 250 2.75
 240  0.596  0.471  0.300- 233 2.74 305 2.74 325 2.74 227 2.74 299 2.74 253 2.74 250 2.75 226 2.75
                           239 2.75 238 2.75 254 2.75 231 2.75
 241  0.888  0.846  0.800- 248 2.74 168 2.74 247 2.74 167 2.74 246 2.74 166 2.74 220 2.75 276 2.75
                           243 2.75 275 2.75 245 2.75 221 2.75
 242  0.796  0.671  0.600- 316 2.73 315 2.74 317 2.74 244 2.74 245 2.74 243 2.74 232 2.75 256 2.75
                           246 2.75 254 2.75 247 2.75 231 2.78
 243  0.838  0.796  0.600- 167 2.74 247 2.74 176 2.74 256 2.74 242 2.74 162 2.74 245 2.75 269 2.75
                           241 2.75 249 2.75 220 2.75 244 2.75
 244  0.688  0.646  0.500- 162 2.69 151 2.70 242 2.74 174 2.74 254 2.74 225 2.75 249 2.75 245 2.75
                           253 2.75 243 2.75 227 2.75 231 2.76
 245  0.738  0.696  0.700- 166 2.74 246 2.74 242 2.74 152 2.74 232 2.74 243 2.75 259 2.75 244 2.75
                           276 2.75 225 2.75 241 2.75 162 2.79
 246  0.846  0.721  0.800- 263 2.72 317 2.74 245 2.74 313 2.74 276 2.74 348 2.74 241 2.74 247 2.75
                           242 2.75 274 2.75 232 2.75 248 2.75
 247  0.946  0.821  0.700- 315 2.73   4 2.74 243 2.74 313 2.74 241 2.74 220 2.74 246 2.75 270 2.75
                           248 2.75 256 2.75 242 2.75 218 2.78
 248  0.996  0.871  0.900- 218 2.72 313 2.74 241 2.74 347 2.74 275 2.74 221 2.74   5 2.74 274 2.75
                           247 2.75 222 2.75 246 2.75 279 2.75
 249  0.788  0.746  0.400- 256 2.74 176 2.74 255 2.74 254 2.74 174 2.74 244 2.75 251 2.75 243 2.75
                           253 2.75 269 2.75 268 2.75 175 2.78
 250  0.696  0.571  0.200- 252 2.74 325 2.74 253 2.74 251 2.74 324 2.74 323 2.74 240 2.75 264 2.75
                           254 2.75 262 2.75 255 2.75 239 2.75
 251  0.738  0.696  0.200- 255 2.74 184 2.74 264 2.74 250 2.74 170 2.74 277 2.75 253 2.75 249 2.75
                           257 2.75 252 2.75 268 2.75 175 2.78
 252  0.588  0.546  0.100- 170 2.67 159 2.68 250 2.74 182 2.74 262 2.74 239 2.74 233 2.75 257 2.75
                           253 2.75 261 2.75 251 2.75 235 2.75
 253  0.638  0.596  0.300- 254 2.74 174 2.74 250 2.74 240 2.74 160 2.74 251 2.75 227 2.75 252 2.75
                           244 2.75 249 2.75 233 2.75 170 2.81
 254  0.746  0.621  0.400- 321 2.74 325 2.74 253 2.74 244 2.74 249 2.74 316 2.74 255 2.75 250 2.75
                           242 2.75 240 2.75 256 2.75 231 2.78
 255  0.846  0.721  0.300- 268 2.71 266 2.73 321 2.74 251 2.74 249 2.74 323 2.74 254 2.75 278 2.75
                           256 2.75 264 2.75 250 2.75 340 2.79
 256  0.896  0.771  0.500- 321 2.73 315 2.74 249 2.74 243 2.74 269 2.74 242 2.75 255 2.75 247 2.75
                           270 2.75 254 2.75 266 2.77 341 2.77
 257  0.688  0.646  0.000- 184 2.74 264 2.74 183 2.74 182 2.74 262 2.74 263 2.75 276 2.75 252 2.75
                           259 2.75 251 2.75 261 2.75 277 2.75
 258  0.596  0.471  0.800- 260 2.71 332 2.74 261 2.74 333 2.74 259 2.74 331 2.74 208 2.75 232 2.75
                           262 2.75 230 2.75 207 2.75 263 2.78
 259  0.638  0.596  0.800- 183 2.74 232 2.74 152 2.74 258 2.74 178 2.74 263 2.75 261 2.75 245 2.75
                           257 2.75 225 2.75 276 2.75 260 2.75
 260  0.488  0.445  0.700- 258 2.71 230 2.71 207 2.71 201 2.75 225 2.75 261 2.75 229 2.75 203 2.75
                           259 2.75 178 2.76 150 2.76 135 2.76
 261  0.538  0.496  0.900- 182 2.74 262 2.74 178 2.74 258 2.74 136 2.74 208 2.74 259 2.75 235 2.75
                           252 2.75 257 2.75 201 2.75 260 2.75
 262  0.646  0.521  1.000- 324 2.73 329 2.74 261 2.74 333 2.74 252 2.74 257 2.74 239 2.75 258 2.75
                           250 2.75 208 2.75 264 2.75 263 2.78
 263  0.748  0.623  0.900- 276 2.72 348 2.72 274 2.72 246 2.72 329 2.75 331 2.75 259 2.75 257 2.75
                           264 2.75 232 2.75 262 2.78 258 2.78
 264  0.796  0.671  0.100- 329 2.74 257 2.74 251 2.74 277 2.74 349 2.74 323 2.74 250 2.75 274 2.75
                           255 2.75 278 2.75 262 2.75 263 2.75
 265  0.088  0.046  0.600- 192 2.74 272 2.74 271 2.74 190 2.74 270 2.74 204 2.75 220 2.75 267 2.75
                           219 2.75 269 2.75 205 2.75 191 2.79
 266  0.995  0.870  0.398- 268 2.69 278 2.72 341 2.73 280 2.73 255 2.73 339 2.74 267 2.74 269 2.75
                           256 2.77 271 2.77 340 2.78 270 2.78
 267  0.038  0.996  0.400- 271 2.74 280 2.74 200 2.74 186 2.74 266 2.74 269 2.75 213 2.75 265 2.75
                           273 2.75 204 2.75 268 2.75 191 2.79
 268  0.888  0.845  0.300- 175 2.69 266 2.69 278 2.71 255 2.71 198 2.73 249 2.75 273 2.75 277 2.75
                           269 2.75 251 2.75 267 2.75 186 2.76
 269  0.938  0.896  0.500- 190 2.74 270 2.74 186 2.74 176 2.74 256 2.74 267 2.75 243 2.75 220 2.75
                           265 2.75 249 2.75 268 2.75 266 2.75
 270  0.046  0.921  0.600- 341 2.73   4 2.74 269 2.74 220 2.74 337 2.74 265 2.74 271 2.75 247 2.75
                           256 2.75 272 2.75 266 2.78 218 2.82
 271  0.146  0.021  0.500- 267 2.74 339 2.74 337 2.74 265 2.74 204 2.74 214 2.75 270 2.75 280 2.75
                           272 2.75 266 2.77 284 2.79 202 2.80
 272  0.196  0.071  0.700- 202 2.70 265 2.74 337 2.74 219 2.74 285 2.74 205 2.74   3 2.74 271 2.75
                           223 2.75 270 2.75 206 2.75 218 2.78
 273  0.988  0.946  0.200- 199 2.71 200 2.74 280 2.74 278 2.74 198 2.74 275 2.75 267 2.75 213 2.75
                           277 2.75 268 2.75 212 2.75 279 2.76
 274  0.896  0.771  1.000- 263 2.72 276 2.74 348 2.74 277 2.74 349 2.74 347 2.74 275 2.74 248 2.75
                           264 2.75 246 2.75 278 2.75 279 2.81
 275  0.938  0.896  0.000- 199 2.71 168 2.74 248 2.74 194 2.74 274 2.74 277 2.75 221 2.75 273 2.75
                           241 2.75 276 2.75 212 2.75 279 2.76
 276  0.788  0.746  0.900- 263 2.72 274 2.74 194 2.74 246 2.74 166 2.74 183 2.74 257 2.75 241 2.75
                           277 2.75 245 2.75 259 2.75 275 2.75
 277  0.838  0.796  0.100- 278 2.74 194 2.74 274 2.74 184 2.74 264 2.74 251 2.75 275 2.75 276 2.75
                           273 2.75 257 2.75 268 2.75 198 2.77
 278  0.946  0.821  0.200- 268 2.71 266 2.72 277 2.74 349 2.74 273 2.74 255 2.75 274 2.75 280 2.75
                           264 2.75 345 2.76 340 2.77 279 2.81
 279  0.049  0.924  0.100- 210 2.69 222 2.69 292 2.70 280 2.75 248 2.75 212 2.75 345 2.76 275 2.76
                           347 2.76 273 2.76 278 2.81 274 2.81
 280  0.096  0.971  0.300- 266 2.73 273 2.74 345 2.74 339 2.74 267 2.74 213 2.74 293 2.74 210 2.75
                           271 2.75 278 2.75 214 2.75 279 2.75
 281  0.471  0.263  0.800- 208 2.74 288 2.74 207 2.74 287 2.74 206 2.74 286 2.74 332 2.75 308 2.75
                           283 2.75 307 2.75 285 2.75 333 2.75
 282  0.378  0.086  0.595- 284 2.65 294 2.68 296 2.72 343 2.72 283 2.74 355 2.74 356 2.75 357 2.76
                           285 2.77 344 2.78 287 2.78 286 2.82
 283  0.421  0.213  0.600- 207 2.74 287 2.74 296 2.74 216 2.74 282 2.74 202 2.74 285 2.75 301 2.75
                           281 2.75 289 2.75 332 2.75 284 2.75
 284  0.272  0.061  0.500- 282 2.65 294 2.68 343 2.68 337 2.75 289 2.75 285 2.75 293 2.75 283 2.75
                           339 2.75 214 2.79 271 2.79 202 2.84
 285  0.321  0.113  0.700- 202 2.69 286 2.74 206 2.74 272 2.74 344 2.74 283 2.75   3 2.75 308 2.75
                           337 2.75 281 2.75 284 2.75 282 2.77
 286  0.429  0.137  0.800- 357 2.73 285 2.74 308 2.74 353 2.74 281 2.74 372 2.75 287 2.75   7 2.75
                           306 2.75 288 2.75 344 2.75 282 2.82
 287  0.529  0.237  0.700- 355 2.74 283 2.74 353 2.74 281 2.74 396 2.74 332 2.74 330 2.74 286 2.75
                           302 2.75 288 2.75 296 2.75 282 2.78
 288  0.579  0.287  0.900- 281 2.74 353 2.74 307 2.74 371 2.74 333 2.74 397 2.74 330 2.74 306 2.75
                           287 2.75 311 2.75 286 2.75 334 2.75
 289  0.371  0.163  0.400- 215 2.72 296 2.74 216 2.74 294 2.74 214 2.74 291 2.75 283 2.75 301 2.75
                           293 2.75 284 2.75 300 2.75 295 2.77
 290  0.279  0.987  0.200- 351 2.70 352 2.73  20 2.74 292 2.74 293 2.74  21 2.74  19 2.74 291 2.74
                             8 2.75 294 2.75   6 2.75 295 2.84
 291  0.321  0.113  0.200- 215 2.72 224 2.74 290 2.74 210 2.74   8 2.74 309 2.75 293 2.75 289 2.75
                             1 2.75 292 2.75 300 2.75 295 2.77
 292  0.171  0.963  0.100- 279 2.70 351 2.70 345 2.73 210 2.74 290 2.74 222 2.74   6 2.74   1 2.75
                           293 2.75   5 2.75 291 2.75 347 2.75
 293  0.221  0.013  0.300- 345 2.73 214 2.74 294 2.74 290 2.74 210 2.74 280 2.74 352 2.74 291 2.75
                           339 2.75 292 2.75 289 2.75 284 2.75
 294  0.329  0.037  0.400- 284 2.68 282 2.68  21 2.74 293 2.74 289 2.74  17 2.74 343 2.75 290 2.75
                           296 2.75 356 2.76 352 2.77 295 2.84
 295  0.434  0.143  0.300- 300 2.60 298 2.61 310 2.66 364 2.68 296 2.75   8 2.75  19 2.77 291 2.77
                            17 2.77 289 2.77 294 2.84 290 2.84
 296  0.479  0.187  0.500- 282 2.72 289 2.74  17 2.74 283 2.74 355 2.74 301 2.74 365 2.74 287 2.75
                           294 2.75 302 2.75 295 2.75 298 2.80
 297  0.671  0.463  0.600- 231 2.73 232 2.74 304 2.74 303 2.74 230 2.74 302 2.74 316 2.75 332 2.75
                           299 2.75 331 2.75 301 2.75 317 2.75
 298  0.577  0.286  0.393- 300 2.60 295 2.61 310 2.65 364 2.69 312 2.70 363 2.74 299 2.74 301 2.79
                           365 2.79 296 2.80 303 2.80 302 2.85
 299  0.621  0.413  0.400- 231 2.73 303 2.74 240 2.74 312 2.74 226 2.74 298 2.74 301 2.75 325 2.75
                           297 2.75 305 2.75 316 2.75 300 2.75
 300  0.473  0.261  0.300- 295 2.60 298 2.60 310 2.66 289 2.75 305 2.75 301 2.75 309 2.75 299 2.75
                           291 2.75 226 2.82 238 2.82 215 2.86
 301  0.521  0.313  0.500- 230 2.74 302 2.74 226 2.74 296 2.74 216 2.74 299 2.75 283 2.75 332 2.75
                           297 2.75 289 2.75 300 2.75 298 2.79
 302  0.629  0.337  0.600- 365 2.74 301 2.74 396 2.74 332 2.74 297 2.74 303 2.75 287 2.75 304 2.75
                           296 2.75 330 2.75 361 2.76 298 2.85
 303  0.729  0.437  0.500- 299 2.74 363 2.74 361 2.74 297 2.74 380 2.74 316 2.74 314 2.75 302 2.75
                           326 2.75 312 2.75 304 2.75 298 2.80
 304  0.779  0.487  0.700- 335 2.71 297 2.74 361 2.74 395 2.74 331 2.74 381 2.74 317 2.74 303 2.75
                           302 2.75 318 2.75 314 2.75 330 2.76
 305  0.571  0.363  0.200- 312 2.74 240 2.74 311 2.74 239 2.74 238 2.74 310 2.74 299 2.75 307 2.75
                           309 2.75 325 2.75 324 2.75 300 2.75
 306  0.479  0.187  1.000- 373 2.71 308 2.74 309 2.74 307 2.74 371 2.74 288 2.75   8 2.75 286 2.75
                           310 2.75 311 2.75   7 2.75 372 2.77
 307  0.521  0.313  0.000- 311 2.74 239 2.74 288 2.74 208 2.74 306 2.74 234 2.74 324 2.75 333 2.75
                           309 2.75 281 2.75 305 2.75 308 2.75
 308  0.371  0.163  0.900- 306 2.74 286 2.74 206 2.74 223 2.74   7 2.74 281 2.75   1 2.75 285 2.75
                           309 2.75 307 2.75   3 2.75 234 2.75
 309  0.421  0.213  0.100- 234 2.72 238 2.74 310 2.74 306 2.74 224 2.74   8 2.74 291 2.75 307 2.75
                           308 2.75 305 2.75   1 2.75 300 2.75
 310  0.529  0.237  0.200- 298 2.65 300 2.66 295 2.66 373 2.73 309 2.74 364 2.74 369 2.74 305 2.74
                           311 2.75 306 2.75 312 2.75   8 2.75
 311  0.629  0.337  0.100- 307 2.74 371 2.74 305 2.74 369 2.74 324 2.74 310 2.75 334 2.75 312 2.75
                           288 2.75 306 2.75 322 2.75 388 2.79
 312  0.679  0.387  0.300- 298 2.70 305 2.74 369 2.74 363 2.74 299 2.74 325 2.74 322 2.75 311 2.75
                           303 2.75 310 2.75 326 2.75 389 2.76
 313  0.971  0.763  0.800- 320 2.74 248 2.74 247 2.74 246 2.74 318 2.74 319 2.74 348 2.75   4 2.75
                           347 2.75   5 2.75 317 2.75 315 2.75
 314  0.879  0.587  0.600- 316 2.73 380 2.73 379 2.74 315 2.74 381 2.74 317 2.74 326 2.75 303 2.75
                           328 2.75 304 2.75 319 2.75 318 2.75
 315  0.921  0.713  0.600- 247 2.73 256 2.74 242 2.74 314 2.74 328 2.74 319 2.74 316 2.75 317 2.75
                           321 2.75   4 2.75 313 2.75 341 2.80
 316  0.771  0.563  0.500- 314 2.73 242 2.73 303 2.74 326 2.74 254 2.74 317 2.75 297 2.75 315 2.75
                           321 2.75 299 2.75 325 2.75 231 2.76
 317  0.821  0.613  0.700- 246 2.74 242 2.74 232 2.74 318 2.74 304 2.74 314 2.74 316 2.75 315 2.75
                           331 2.75 348 2.75 313 2.75 297 2.75
 318  0.929  0.638  0.800- 346 2.69 335 2.71 348 2.74 381 2.74 313 2.74 317 2.74 320 2.75 319 2.75
                           304 2.75 314 2.75 404 2.76 377 2.77
 319  0.029  0.737  0.700- 379 2.73 313 2.74   4 2.74 315 2.74 320 2.75 342 2.75   2 2.75 328 2.75
                           318 2.75 314 2.75 377 2.77  28 2.79
 320  0.079  0.787  0.900- 346 2.70 313 2.74   5 2.74  29 2.74 403 2.74 347 2.74 351 2.75 319 2.75
                           318 2.75   2 2.75   6 2.75 377 2.77
 321  0.871  0.663  0.400- 256 2.73 255 2.74 254 2.74 328 2.74 326 2.74 327 2.74 315 2.75 325 2.75
                           323 2.75 316 2.75 340 2.77 341 2.79
 322  0.779  0.488  0.200- 389 2.71 323 2.73 325 2.74 387 2.74 324 2.74 326 2.75 312 2.75 327 2.75
                           311 2.75 334 2.75 336 2.76 388 2.79
 323  0.821  0.612  0.200- 327 2.73 322 2.73 255 2.74 264 2.74 250 2.74 336 2.74 340 2.75 349 2.75
                           325 2.75 329 2.75 321 2.75 324 2.75
 324  0.671  0.462  0.100- 262 2.73 311 2.74 239 2.74 250 2.74 322 2.74 334 2.74 333 2.75 329 2.75
                           307 2.75 305 2.75 323 2.75 325 2.75
 325  0.721  0.513  0.300- 322 2.74 254 2.74 326 2.74 250 2.74 240 2.74 312 2.74 299 2.75 323 2.75
                           305 2.75 321 2.75 324 2.75 316 2.75
 326  0.829  0.537  0.400- 325 2.74 389 2.74 380 2.74 385 2.74 321 2.74 316 2.74 322 2.75 314 2.75
                           328 2.75 303 2.75 327 2.75 312 2.75
 327  0.929  0.637  0.300- 340 2.69 323 2.73 387 2.74 385 2.74  12 2.74 321 2.74 322 2.75 328 2.75
                           326 2.75 338 2.75 350 2.75 336 2.76
 328  0.979  0.687  0.500- 385 2.74  13 2.74 379 2.74 321 2.74 315 2.74 314 2.75 327 2.75 338 2.75
                           326 2.75 342 2.75 319 2.75 341 2.77
 329  0.771  0.563  0.000- 336 2.73 264 2.74 262 2.74 334 2.74 263 2.75 324 2.75 348 2.75 331 2.75
                           333 2.75 349 2.75 323 2.75 335 2.75
 330  0.679  0.387  0.800- 396 2.73 332 2.73 397 2.73 333 2.73 288 2.74 287 2.74 395 2.74 331 2.74
                           334 2.75 302 2.75 335 2.76 304 2.76
 331  0.721  0.513  0.800- 335 2.71 232 2.74 304 2.74 258 2.74 330 2.74 263 2.75 333 2.75 317 2.75
                           297 2.75 329 2.75 348 2.75 332 2.75
 332  0.571  0.363  0.700- 330 2.73 258 2.74 302 2.74 230 2.74 207 2.74 287 2.74 281 2.75 297 2.75
                           333 2.75 301 2.75 283 2.75 331 2.75
 333  0.621  0.413  0.900- 330 2.73 262 2.74 258 2.74 288 2.74 208 2.74 334 2.74 324 2.75 331 2.75
                           307 2.75 332 2.75 281 2.75 329 2.75
 334  0.729  0.437  1.000- 397 2.73 324 2.74 333 2.74 393 2.74 329 2.74 336 2.75 330 2.75 311 2.75
                           288 2.75 322 2.75 388 2.77 335 2.79
 335  0.829  0.538  0.897- 304 2.71 331 2.71 318 2.71 348 2.72 395 2.73 346 2.74 329 2.75 330 2.76
                           404 2.77 393 2.78 336 2.78 334 2.79
 336  0.879  0.587  0.099- 329 2.73 349 2.74 393 2.74 323 2.74 387 2.74 334 2.75 350 2.75 322 2.76
                           327 2.76 405 2.77 335 2.78 346 2.80
 337  0.171  0.963  0.600- 341 2.71 272 2.74 344 2.74 343 2.74 271 2.74 270 2.74 342 2.74   4 2.75
                           339 2.75 285 2.75   3 2.75 284 2.75
 338  0.079  0.787  0.400- 340 2.70 341 2.72  12 2.74  13 2.74  11 2.74 339 2.74 328 2.75 342 2.75
                           343 2.75 327 2.75 350 2.75 352 2.77
 339  0.121  0.913  0.400- 341 2.70 271 2.74 343 2.74 280 2.74 338 2.74 266 2.74 293 2.75 337 2.75
                           345 2.75 284 2.75 340 2.76 352 2.76
 340  0.972  0.761  0.298- 350 2.69 327 2.69 338 2.70 349 2.73 323 2.75 345 2.75 339 2.76 341 2.76
                           321 2.77 278 2.77 266 2.78 255 2.79
 341  0.024  0.815  0.499- 339 2.70 337 2.71 338 2.72 270 2.73 342 2.73 266 2.73   4 2.76 340 2.76
                           328 2.77 256 2.77 321 2.79 315 2.80
 342  0.129  0.837  0.600- 341 2.73  13 2.74   9 2.74 337 2.74   4 2.74 343 2.75 319 2.75 338 2.75
                           344 2.75   2 2.75 328 2.75  28 2.79
 343  0.229  0.937  0.500- 284 2.68 282 2.72  11 2.74 339 2.74 337 2.74   9 2.74 342 2.75 294 2.75
                           344 2.75 338 2.75 356 2.78 352 2.79
 344  0.279  0.987  0.700-   3 2.74   9 2.74 337 2.74  27 2.74 285 2.74   2 2.75 343 2.75 342 2.75
                           286 2.75   7 2.75 357 2.76 282 2.78
 345  0.072  0.864  0.200- 352 2.70 292 2.73 293 2.73 280 2.74 347 2.75 339 2.75 351 2.75 340 2.75
                           278 2.76 279 2.76 350 2.76 349 2.77
 346  0.980  0.687  0.996- 403 2.69 318 2.69 320 2.70 404 2.71 405 2.72 335 2.74 348 2.75 347 2.76
                           336 2.80 349 2.80 350 2.81 351 2.82
 347  0.021  0.813  0.000- 248 2.74 274 2.74 320 2.74 349 2.75   5 2.75 313 2.75 348 2.75 292 2.75
                           345 2.75 346 2.76 279 2.76 351 2.76
 348  0.871  0.663  0.900- 335 2.72 263 2.72 274 2.74 318 2.74 246 2.74 346 2.75 313 2.75 329 2.75
                           349 2.75 317 2.75 347 2.75 331 2.75
 349  0.921  0.713  0.100- 340 2.73 278 2.74 274 2.74 264 2.74 336 2.74 347 2.75 323 2.75 348 2.75
                           329 2.75 350 2.75 345 2.77 346 2.80
 350  0.030  0.737  0.200- 340 2.69 405 2.71  12 2.72 401 2.72 352 2.73 327 2.75 338 2.75 349 2.75
                           336 2.75 345 2.76 346 2.81 351 2.81
 351  0.133  0.841  0.099-   6 2.69  20 2.69 290 2.70 292 2.70 352 2.72 320 2.75 403 2.75 345 2.75
                           401 2.76 347 2.76 350 2.81 346 2.82
 352  0.178  0.887  0.297- 345 2.70 401 2.72 351 2.72 290 2.73 350 2.73 293 2.74  21 2.74  11 2.76
                           339 2.76 338 2.77 294 2.77 343 2.79
 353  0.554  0.179  0.800- 357 2.72 372 2.73 360 2.74 288 2.74 287 2.74 359 2.74 358 2.74 286 2.74
                           396 2.75 355 2.75 371 2.75 397 2.75
 354  0.462  0.004  0.600- 356 2.71 357 2.72  52 2.74  53 2.74 355 2.74  51 2.74  24 2.75  16 2.75
                            22 2.75 358 2.75 359 2.75  15 2.75
 355  0.504  0.129  0.600- 357 2.71 287 2.74 359 2.74  24 2.74 296 2.74 354 2.74 282 2.74 365 2.75
                           353 2.75  17 2.75 396 2.75 356 2.76
 356  0.355  0.978  0.498-  22 2.68  15 2.70 354 2.71  21 2.73  17 2.73  11 2.75 282 2.75 355 2.76
                           294 2.76 357 2.77   9 2.77 343 2.78
 357  0.406  0.031  0.700- 355 2.71 353 2.72 354 2.72 286 2.73 358 2.73 372 2.73 282 2.76 344 2.76
                            16 2.76 356 2.77   9 2.78  27 2.79
 358  0.512  0.054  0.800-  31 2.69 372 2.70 357 2.73  53 2.74  49 2.74 353 2.74 359 2.75 370 2.75
                           354 2.75 360 2.75  16 2.75 420 2.76
 359  0.612  0.154  0.700- 394 2.72 355 2.74  51 2.74 353 2.74  49 2.74 396 2.74 444 2.74 358 2.75
                           360 2.75  24 2.75 354 2.75 366 2.75
 360  0.662  0.204  0.900-  49 2.74 353 2.74 419 2.74 371 2.74 445 2.74 397 2.74 370 2.75 359 2.75
                           375 2.75 358 2.75 398 2.75 394 2.79
 361  0.755  0.380  0.600- 368 2.70 380 2.73 381 2.73 304 2.74 303 2.74 363 2.75 395 2.75 302 2.76
                           366 2.76 367 2.76 365 2.77 396 2.77
 362  0.663  0.203  0.397- 412 2.68 411 2.69 374 2.71 413 2.72 376 2.72  23 2.74 364 2.77 363 2.77
                            24 2.78 366 2.79 367 2.80 365 2.80
 363  0.704  0.329  0.400- 303 2.74 312 2.74 376 2.74 298 2.74 365 2.75 369 2.75 364 2.75 380 2.75
                           361 2.75 367 2.77 362 2.77 389 2.80
 364  0.554  0.179  0.300- 295 2.68 298 2.69 310 2.74 374 2.74  23 2.74  17 2.75 369 2.75 365 2.75
                           363 2.75  19 2.75 362 2.77 373 2.78
 365  0.604  0.229  0.500- 302 2.74 296 2.74  24 2.74 363 2.75 355 2.75 364 2.75 396 2.75  17 2.75
                           366 2.75 361 2.77 298 2.79 362 2.80
 366  0.713  0.254  0.600- 394 2.68 413 2.72 444 2.72 368 2.72 409 2.73 359 2.75  24 2.75 365 2.75
                           396 2.75 361 2.76 362 2.79 367 2.80
 367  0.815  0.356  0.499- 428 2.69 368 2.70 390 2.71 378 2.71 411 2.72 380 2.73 409 2.74 376 2.74
                           361 2.76 363 2.77 366 2.80 362 2.80
 368  0.861  0.403  0.696- 361 2.70 367 2.70 378 2.71 409 2.71 366 2.72 381 2.74 429 2.74 394 2.74
                           395 2.76 443 2.76 399 2.77 382 2.78
 369  0.654  0.279  0.200- 373 2.72 312 2.74 376 2.74 375 2.74 311 2.74 310 2.74 374 2.74 364 2.75
                           363 2.75 371 2.75 388 2.76 389 2.77
 370  0.562  0.104  1.000-  31 2.69 373 2.71 421 2.71 372 2.72 419 2.74 371 2.74  32 2.75 360 2.75
                           358 2.75 374 2.75 375 2.75 420 2.77
 371  0.604  0.229  0.000- 373 2.69 311 2.74 375 2.74 288 2.74 360 2.74 306 2.74 370 2.74 397 2.75
                           353 2.75 369 2.75 388 2.76 372 2.76
 372  0.455  0.079  0.898-  31 2.68 358 2.70 370 2.72 353 2.73 357 2.73 373 2.75 286 2.75  27 2.75
                           371 2.76   7 2.76 306 2.77  25 2.77
 373  0.507  0.132  0.098- 371 2.69 370 2.71 306 2.71 369 2.72 310 2.73 374 2.73 372 2.75   8 2.77
                            32 2.77 364 2.78  25 2.78  19 2.81
 374  0.612  0.154  0.200- 362 2.71 373 2.73 421 2.74 364 2.74 412 2.74 369 2.74 417 2.74  23 2.75
                           375 2.75 370 2.75 376 2.75  32 2.75
 375  0.712  0.254  0.100- 388 2.69 419 2.74 371 2.74 417 2.74 369 2.74 374 2.75 376 2.75 360 2.75
                           386 2.75 370 2.75 398 2.75 436 2.77
 376  0.762  0.304  0.300- 362 2.72 417 2.74 369 2.74 411 2.74 363 2.74 367 2.74 386 2.75 375 2.75
                           374 2.75 390 2.75 389 2.76 437 2.77
 377  0.055  0.679  0.800- 384 2.68 382 2.71 383 2.73 404 2.75  28 2.75  29 2.75 379 2.75 403 2.75
                           381 2.76 320 2.77 319 2.77 318 2.77
 378  0.962  0.504  0.601- 368 2.71 367 2.71 429 2.72 381 2.73 382 2.73 428 2.74 427 2.74 380 2.75
                           379 2.75 392 2.77 390 2.77 383 2.80
 379  0.004  0.629  0.600- 319 2.73 392 2.74 314 2.74 328 2.74 378 2.75  13 2.75 381 2.75 385 2.75
                           380 2.75 377 2.75  28 2.75 383 2.76
 380  0.854  0.479  0.500- 361 2.73 367 2.73 314 2.73 326 2.74 390 2.74 303 2.74 378 2.75 385 2.75
                           381 2.75 379 2.75 363 2.75 389 2.77
 381  0.904  0.529  0.700- 378 2.73 361 2.73 318 2.74 304 2.74 368 2.74 314 2.74 382 2.74 404 2.75
                           379 2.75 395 2.75 380 2.75 377 2.76
 382  0.013  0.554  0.800- 399 2.69 404 2.70 377 2.71 384 2.72 429 2.73 378 2.73  44 2.73 381 2.74
                           425 2.74 402 2.75 368 2.78 383 2.80
 383  0.116  0.657  0.699-  68 2.56  28 2.66  26 2.69  14 2.70 384 2.70 377 2.73 427 2.74 392 2.74
                           425 2.75 379 2.76 378 2.80 382 2.80
 384  0.161  0.703  0.896- 377 2.68 383 2.70 425 2.71 382 2.72  69 2.74  29 2.74  26 2.74  43 2.76
                           403 2.76 402 2.78  30 2.78 407 2.81
 385  0.954  0.579  0.400- 389 2.73 328 2.74 392 2.74 327 2.74 391 2.74 326 2.74 390 2.74  12 2.75
                           380 2.75 379 2.75 387 2.75  13 2.75
 386  0.862  0.404  0.200- 388 2.69 389 2.71 437 2.72 387 2.74 435 2.74 376 2.75 390 2.75 391 2.75
                           375 2.75 398 2.75 436 2.77 400 2.79
 387  0.904  0.529  0.200- 389 2.71 327 2.74 391 2.74 386 2.74 322 2.74 336 2.74 388 2.75 385 2.75
                            12 2.75 393 2.75 400 2.77 405 2.80
 388  0.756  0.378  0.100- 386 2.69 375 2.69 398 2.70 389 2.74 397 2.75 393 2.75 387 2.75 371 2.76
                           369 2.76 334 2.77 322 2.79 311 2.79
 389  0.806  0.431  0.298- 387 2.71 322 2.71 386 2.71 385 2.73 388 2.74 326 2.74 390 2.74 376 2.76
                           312 2.76 380 2.77 369 2.77 363 2.80
 390  0.912  0.454  0.400- 367 2.71 437 2.73 389 2.74 428 2.74 380 2.74 433 2.74 385 2.74 391 2.75
                           386 2.75 376 2.75 392 2.75 378 2.77
 391  0.012  0.554  0.300- 435 2.74 387 2.74 433 2.74 385 2.74  12 2.74 406 2.75 390 2.75 392 2.75
                           386 2.75  10 2.75  36 2.82 400 2.82
 392  0.062  0.604  0.500- 385 2.74 433 2.74 427 2.74 379 2.74  37 2.74  13 2.74 383 2.74  10 2.75
                           391 2.75 390 2.75  14 2.75 378 2.77
 393  0.855  0.479  0.000- 400 2.69 336 2.74 334 2.74 388 2.75 395 2.75 387 2.75 398 2.75 397 2.76
                           404 2.76 335 2.78 405 2.79 399 2.79
 394  0.762  0.302  0.795- 444 2.67 366 2.68 443 2.70 359 2.72 396 2.74 368 2.74 445 2.74 395 2.77
                           360 2.79 399 2.80 397 2.80 398 2.82
 395  0.804  0.429  0.800- 335 2.73 304 2.74 330 2.74 397 2.75 381 2.75 393 2.75 396 2.75 361 2.75
                           404 2.76 399 2.76 368 2.76 394 2.77
 396  0.654  0.279  0.700- 330 2.73 302 2.74 287 2.74 359 2.74 394 2.74 353 2.75 397 2.75 365 2.75
                           355 2.75 395 2.75 366 2.75 361 2.77
 397  0.704  0.329  0.900- 334 2.73 330 2.73 288 2.74 360 2.74 388 2.75 395 2.75 371 2.75 396 2.75
                           353 2.75 398 2.75 393 2.76 394 2.80
 398  0.813  0.354  1.000- 388 2.70 400 2.72 445 2.72 441 2.73 436 2.74 375 2.75 386 2.75 360 2.75
                           393 2.75 397 2.75 399 2.81 394 2.82
 399  0.915  0.455  0.897-  44 2.68 382 2.69 443 2.70 404 2.71 400 2.72 402 2.73 441 2.74 395 2.76
                           368 2.77 393 2.79 394 2.80 398 2.81
 400  0.961  0.503  0.095- 393 2.69 441 2.71 402 2.72 398 2.72 399 2.72  45 2.74 405 2.77 435 2.77
                           387 2.77 386 2.79 406 2.79 391 2.82
 401  0.154  0.779  0.200- 405 2.71 352 2.72 350 2.72 408 2.74 407 2.74 406 2.74  20 2.75  12 2.75
                            11 2.75 403 2.75  21 2.75 351 2.76
 402  0.062  0.604  1.000- 404 2.71 405 2.72 400 2.72 399 2.73  44 2.74  45 2.74  43 2.74 403 2.74
                           406 2.75 407 2.75 382 2.75 384 2.78
 403  0.104  0.729  0.000- 346 2.69 405 2.70 407 2.74 402 2.74 320 2.74 404 2.75 351 2.75  29 2.75
                           401 2.75  20 2.75 377 2.75 384 2.76
 404  0.955  0.579  0.900- 382 2.70 402 2.71 399 2.71 346 2.71 381 2.75 405 2.75 377 2.75 403 2.75
                           395 2.76 393 2.76 318 2.76 335 2.77
 405  0.007  0.632  0.099- 403 2.70 350 2.71 401 2.71 402 2.72 346 2.72 406 2.73 404 2.75  12 2.76
                           336 2.77 400 2.77 393 2.79 387 2.80
 406  0.112  0.654  0.200- 405 2.73  45 2.74  12 2.74 401 2.74  41 2.74 391 2.75 407 2.75  10 2.75
                           402 2.75 408 2.75 400 2.79  36 2.82
 407  0.212  0.754  0.100-  43 2.74 403 2.74  41 2.74 401 2.74  20 2.74 406 2.75  30 2.75 408 2.75
                            18 2.75 402 2.75 384 2.81  60 2.90
 408  0.262  0.804  0.300-  41 2.74 401 2.74  11 2.74  35 2.74  61 2.74  21 2.74  18 2.75  10 2.75
                           407 2.75  15 2.75 406 2.75  22 2.75
 409  0.838  0.296  0.600- 416 2.70 368 2.71 366 2.73 367 2.74 414 2.74 428 2.75 429 2.75 411 2.75
                           443 2.75 413 2.76 444 2.76 415 2.76
 410  0.747  0.120  0.396- 451 2.68 453 2.70 424 2.70 422 2.70 452 2.72  63 2.75 412 2.77 411 2.77
                           415 2.77 414 2.80  64 2.80 413 2.81
 411  0.788  0.246  0.400- 362 2.69 367 2.72 424 2.74 376 2.74 413 2.75 409 2.75 417 2.75 412 2.75
                           428 2.75 415 2.76 410 2.77 437 2.80
 412  0.638  0.096  0.300- 362 2.68 422 2.74 374 2.74  63 2.74  23 2.74 417 2.75  57 2.75 413 2.75
                           411 2.75  59 2.75 410 2.77 421 2.77
 413  0.688  0.146  0.500- 362 2.72 366 2.72  24 2.74  64 2.74 414 2.74 411 2.75  51 2.75 412 2.75
                           444 2.75  57 2.75 409 2.76 410 2.81
 414  0.796  0.171  0.600- 442 2.72 416 2.72 453 2.73 449 2.73 409 2.74 413 2.74 444 2.74  55 2.75
                            64 2.75 468 2.76 415 2.78 410 2.80
 415  0.898  0.272  0.499-  76 2.70 416 2.70 451 2.72 426 2.72 438 2.72 449 2.73 428 2.74 424 2.74
                           411 2.76 409 2.76 410 2.77 414 2.78
 416  0.945  0.320  0.696- 409 2.70 415 2.70 449 2.71 414 2.72 429 2.74  77 2.74 442 2.74 443 2.76
                           467 2.76 426 2.77 430 2.78 447 2.78
 417  0.738  0.196  0.200- 421 2.73 376 2.74 424 2.74 375 2.74 423 2.74 374 2.74 422 2.74 412 2.75
                           411 2.75 419 2.75 436 2.76 437 2.79
 418  0.646  0.021  1.000- 420 2.71 421 2.71 124 2.74 125 2.74 123 2.74 419 2.74  56 2.75  72 2.75
                            54 2.75 422 2.75 423 2.75  71 2.90
 419  0.688  0.146  0.000- 421 2.71 375 2.74 423 2.74 360 2.74  56 2.74 370 2.74 418 2.74 420 2.75
                           445 2.75  49 2.75 417 2.75 436 2.76
 420  0.539  0.995  0.900-  54 2.70 418 2.71  31 2.73 421 2.73  49 2.74  53 2.75 419 2.75  67 2.76
                            65 2.76 358 2.76 370 2.77  71 2.81
 421  0.589  0.047  0.098- 419 2.71 418 2.71 370 2.71 417 2.73 420 2.73 422 2.74 374 2.74  32 2.76
                            72 2.76 412 2.77  65 2.77  59 2.80
 422  0.696  0.071  0.200- 410 2.70 125 2.74 421 2.74 412 2.74 417 2.74 121 2.74  63 2.75 423 2.75
                           418 2.75 424 2.75  72 2.75 452 2.77
 423  0.796  0.171  0.100- 436 2.71 419 2.74 123 2.74 121 2.74 417 2.74 460 2.74 422 2.75 446 2.75
                           424 2.75  56 2.75 434 2.75 418 2.75
 424  0.846  0.221  0.300- 410 2.70 121 2.74 417 2.74 411 2.74 451 2.74 461 2.74 415 2.74 434 2.75
                           423 2.75 422 2.75 438 2.75 437 2.77
 425  0.138  0.596  0.800- 432 2.71 384 2.71 430 2.74 382 2.74  69 2.75 427 2.75  43 2.75 431 2.75
                            68 2.75 383 2.75 429 2.76  44 2.76
 426  0.047  0.420  0.596-  76 2.68  75 2.69 438 2.69 440 2.70 415 2.72  77 2.74 428 2.75 427 2.76
                           416 2.77 431 2.80 429 2.80 430 2.81
 427  0.088  0.546  0.600- 392 2.74 440 2.74 378 2.74 383 2.74 429 2.75  37 2.75 425 2.75 433 2.75
                           428 2.75 431 2.75  68 2.76 426 2.76
 428  0.938  0.396  0.500- 367 2.69 378 2.74 390 2.74 438 2.74 415 2.74 409 2.75 426 2.75 433 2.75
                           429 2.75 427 2.75 411 2.75 437 2.76
 429  0.988  0.446  0.700- 378 2.72 382 2.73 368 2.74 416 2.74 430 2.74 409 2.75 427 2.75 443 2.75
                           428 2.75  44 2.75 425 2.76 426 2.80
 430  0.096  0.471  0.800-  42 2.62 447 2.71  77 2.73 432 2.73  92 2.73  73 2.73 425 2.74 429 2.74
                            44 2.74 416 2.78 431 2.80 426 2.81
 431  0.198  0.573  0.699- 116 2.70  38 2.71  66 2.71 432 2.72  75 2.74 440 2.74  73 2.75 427 2.75
                           425 2.75 430 2.80 426 2.80  68 2.85
 432  0.245  0.620  0.897-  42 2.70 425 2.71  73 2.72 431 2.72  66 2.73 430 2.73 117 2.74  69 2.74
                            43 2.76  91 2.76  70 2.77  47 2.79
 433  0.038  0.496  0.400- 437 2.71 392 2.74 440 2.74 391 2.74 439 2.74 390 2.74 438 2.74 428 2.75
                           435 2.75 427 2.75  37 2.75  36 2.75
 434  0.946  0.321  0.200- 436 2.71 437 2.72 460 2.74 461 2.74 459 2.74 435 2.74 424 2.75 438 2.75
                           439 2.75 423 2.75 446 2.75 448 2.77
 435  0.988  0.446  0.200- 437 2.70 391 2.74 439 2.74 386 2.74 434 2.74 436 2.75  45 2.75 433 2.75
                           441 2.75  36 2.75 448 2.76 400 2.77
 436  0.839  0.295  0.100- 434 2.71 446 2.71 423 2.71 398 2.74 445 2.75 437 2.75 441 2.75 435 2.75
                           419 2.76 417 2.76 386 2.77 375 2.77
 437  0.890  0.349  0.299- 435 2.70 433 2.71 434 2.72 386 2.72 438 2.73 390 2.73 436 2.75 428 2.76
                           424 2.77 376 2.77 417 2.79 411 2.80
 438  0.996  0.371  0.400- 426 2.69 415 2.72 437 2.73 461 2.74  76 2.74 428 2.74 433 2.74 439 2.75
                           434 2.75 424 2.75 440 2.75 457 2.76
 439  0.096  0.471  0.300-  84 2.63  36 2.66  34 2.70 435 2.74 459 2.74 433 2.74  46 2.75 438 2.75
                           440 2.75 434 2.75 457 2.75 448 2.79
 440  0.146  0.521  0.500- 426 2.70 433 2.74 427 2.74  75 2.74  85 2.74  37 2.74 431 2.74 439 2.75
                            38 2.75 438 2.75 457 2.75  34 2.80
 441  0.938  0.396  0.000- 400 2.71 448 2.71 398 2.73 446 2.74 399 2.74  44 2.75  45 2.75 436 2.75
                           443 2.75 435 2.75 445 2.76 447 2.77
 442  0.848  0.221  0.798- 467 2.68 469 2.68 414 2.72 468 2.72 416 2.74  55 2.76 447 2.76 443 2.77
                           444 2.77 446 2.78  56 2.79 445 2.80
 443  0.888  0.346  0.800- 399 2.70 394 2.70 445 2.75 429 2.75 441 2.75  44 2.75 444 2.75 409 2.75
                           447 2.75 416 2.76 368 2.76 442 2.77
[...]
 total energy-change (2. order) :-0.4578532E+02  (-0.3134056E+02)
 number of electron    4320.0003275 magnetization 
 augmentation part      539.1960011 magnetization 

 Broyden mixing:
  rms(total) = 0.64467E+01    rms(broyden)= 0.64467E+01
  rms(prec ) = 0.13690E+02
  weight for this iteration     100.00

 eigenvalues of (default mixing * dielectric matrix)
  average eigenvalue GAMMA=   0.6206
  2.2291  2.2291  1.3396  1.3396  1.1618  1.1618  0.8148  0.9249  0.9249  0.8925
  0.8925  0.6606  0.6606  0.8178  0.5754  0.5754  0.6190  0.6190  0.4283  0.4283
  0.3210  0.3210  0.3814  0.3814  0.2923  0.2923  0.2642  0.2642  0.1058  0.2389
  0.2389  0.1376  0.2163  0.1949  0.1949  0.1811  0.1643  0.0965

 Free energy of the ion-electron system (eV)
  ---------------------------------------------------
  alpha Z        PSCENC =     37455.67077199
  Ewald energy   TEWEN  =   -330617.20455296
  -Hartree energ DENC   =     -3605.19329165
  -exchange      EXHF   =         0.00000000
  -V(xc)+E(xc)   XCENC  =     -7955.59802804
  PAW double counting   =    204368.97755114  -190926.94643450
  entropy T*S    EENTRO =         0.00204206
  eigenvalues    EBANDS =     69288.69333022
  atomic energy  EATOM  =    268872.57549992
  Solvation  Ediel_sol  =         0.00000000
  ---------------------------------------------------
  free energy    TOTEN  =     46880.97688817 eV

  energy without entropy =    46880.97484612  energy(sigma->0) =    46880.97620749


--------------------------------------------------------------------------------------------------------




----------------------------------------- Iteration    1(  40)  ---------------------------------------


    POTLOK:  cpu time    0.3907: real time    0.3909
    SETDIJ:  cpu time    0.0688: real time    0.0689
    EDDIAG:  cpu time   95.1645: real time   95.2737
  RMM-DIIS:  cpu time 3537.3797: real time 3541.6671
    ORTHCH:  cpu time   38.8903: real time   38.9070
       DOS:  cpu time    0.0451: real time    0.0451
    CHARGE:  cpu time   12.9375: real time   12.9370
    MIXING:  cpu time    0.0499: real time    0.0499
    --------------------------------------------
      LOOP:  cpu time 3684.9280: real time 3689.3440

 eigenvalue-minimisations  :196888
 total energy-change (2. order) :-0.6053392E+02  (-0.3468988E+02)
 number of electron    4320.0003286 magnetization 
 augmentation part      541.4082980 magnetization 

 Broyden mixing:
  rms(total) = 0.69638E+01    rms(broyden)= 0.69637E+01
  rms(prec ) = 0.15632E+02
  weight for this iteration     100.00

 eigenvalues of (default mixing * dielectric matrix)
  average eigenvalue GAMMA=   0.6040
  2.2243  2.2243  1.2602  1.2602  1.2314  1.2314  0.7726  0.9206  0.9206  0.8178
  0.6594  0.6594  0.5031  0.6254  0.6254  0.5946  0.5946  0.6215  0.6215  0.4271
  0.4271  0.3213  0.3213  0.3810  0.3810  0.2928  0.2928  0.2643  0.2643  0.1058
  0.1376  0.2394  0.2394  0.2135  0.2135  0.1947  0.1947  0.1809  0.0956

 Free energy of the ion-electron system (eV)
  ---------------------------------------------------
  alpha Z        PSCENC =     37455.67077199
  Ewald energy   TEWEN  =   -330617.20455296
  -Hartree energ DENC   =     -3635.52062166
  -exchange      EXHF   =         0.00000000
  -V(xc)+E(xc)   XCENC  =     -7958.38974150
  PAW double counting   =    204360.37470024  -190920.78731132
  entropy T*S    EENTRO =        -0.00022499
  eigenvalues    EBANDS =     69263.72445297
  atomic energy  EATOM  =    268872.57549992
  Solvation  Ediel_sol  =         0.00000000
  ---------------------------------------------------
  free energy    TOTEN  =     46820.44297267 eV

  energy without entropy =    46820.44319766  energy(sigma->0) =    46820.44304767


--------------------------------------------------------------------------------------------------------




----------------------------------------- Iteration    1(  41)  ---------------------------------------


    POTLOK:  cpu time    0.3907: real time    0.3907
    SETDIJ:  cpu time    0.0707: real time    0.0707
    EDDIAG:  cpu time   94.7422: real time   94.8755
  RMM-DIIS:  cpu time 3444.2865: real time 3448.8838
    ORTHCH:  cpu time   38.6149: real time   38.6711
       DOS:  cpu time    0.0446: real time    0.0446
    CHARGE:  cpu time   13.0342: real time   13.0337
    MIXING:  cpu time    0.0529: real time    0.0529
    --------------------------------------------
      LOOP:  cpu time 3591.2380: real time 3596.0242

 eigenvalue-minimisations  :196282
 total energy-change (2. order) :-0.6664354E+01  (-0.2534001E+02)
 number of electron    4320.0003286 magnetization 
 augmentation part      541.0282285 magnetization 

 Broyden mixing:
  rms(total) = 0.71078E+01    rms(broyden)= 0.71078E+01
  rms(prec ) = 0.16088E+02
  weight for this iteration     100.00

 eigenvalues of (default mixing * dielectric matrix)
  average eigenvalue GAMMA=   0.6046
  2.2260  2.2260  1.2791  1.2791  1.1589  1.1589  0.8157  0.9430  0.9430  0.9136
  0.9136  0.6610  0.6610  0.8188  0.5631  0.5631  0.6236  0.6236  0.4278  0.4278
  0.3223  0.3223  0.3786  0.3786  0.3017  0.3017  0.2938  0.2938  0.2643  0.2643
  0.1058  0.1376  0.2412  0.2412  0.2218  0.2218  0.1947  0.1947  0.1809  0.0955

 Free energy of the ion-electron system (eV)
  ---------------------------------------------------
  alpha Z        PSCENC =     37455.67077199
  Ewald energy   TEWEN  =   -330617.20455296
  -Hartree energ DENC   =     -3610.31486644
  -exchange      EXHF   =         0.00000000
  -V(xc)+E(xc)   XCENC  =     -7956.16081439
  PAW double counting   =    204221.01078787  -190779.43325060
  entropy T*S    EENTRO =         0.00142304
  eigenvalues    EBANDS =     69227.63361996
  atomic energy  EATOM  =    268872.57549992
  Solvation  Ediel_sol  =         0.00000000
  ---------------------------------------------------
  free energy    TOTEN  =     46813.77861839 eV

  energy without entropy =    46813.77719535  energy(sigma->0) =    46813.77814404


--------------------------------------------------------------------------------------------------------




----------------------------------------- Iteration    1(  42)  ---------------------------------------


    POTLOK:  cpu time    0.3904: real time    0.3904
    SETDIJ:  cpu time    0.0680: real time    0.0680
    EDDIAG:  cpu time   94.5448: real time   94.7102
  RMM-DIIS:  cpu time 3432.6387: real time 3436.6494
    ORTHCH:  cpu time   38.5265: real time   38.5594
       DOS:  cpu time    0.0426: real time    0.0426
    CHARGE:  cpu time   13.0115: real time   13.0123
    MIXING:  cpu time    0.0590: real time    0.0590
    --------------------------------------------
      LOOP:  cpu time 3579.2830: real time 3583.4940

 eigenvalue-minimisations  :196992
 total energy-change (2. order) :-0.3085015E+02  (-0.2656861E+02)
 number of electron    4320.0003300 magnetization 
 augmentation part      543.1501456 magnetization 

 Broyden mixing:
  rms(total) = 0.73907E+01    rms(broyden)= 0.73907E+01
  rms(prec ) = 0.17171E+02
  weight for this iteration     100.00

 eigenvalues of (default mixing * dielectric matrix)
  average eigenvalue GAMMA=   0.5903
  2.2281  2.2281  1.3053  1.3053  1.1428  1.1428  0.8110  0.9158  0.9158  0.9018
  0.9018  0.6608  0.6608  0.8148  0.5707  0.5707  0.6234  0.6234  0.2551  0.4296
  0.4296  0.3207  0.3207  0.3743  0.3743  0.2955  0.2955  0.2133  0.2133  0.2647
  0.2647  0.1058  0.1376  0.2424  0.2424  0.1948  0.1948  0.2198  0.2143  0.1808
  0.0955

 Free energy of the ion-electron system (eV)
  ---------------------------------------------------
  alpha Z        PSCENC =     37455.67077199
  Ewald energy   TEWEN  =   -330617.20455296
  -Hartree energ DENC   =     -3613.13108678
  -exchange      EXHF   =         0.00000000
  -V(xc)+E(xc)   XCENC  =     -7956.42701158
  PAW double counting   =    204238.35716005  -190797.12345897
  entropy T*S    EENTRO =        -0.00009426
  eigenvalues    EBANDS =     69200.21124202
  atomic energy  EATOM  =    268872.57549992
  Solvation  Ediel_sol  =         0.00000000
  ---------------------------------------------------
  free energy    TOTEN  =     46782.92846943 eV

  energy without entropy =    46782.92856369  energy(sigma->0) =    46782.92850085


--------------------------------------------------------------------------------------------------------




----------------------------------------- Iteration    1(  43)  ---------------------------------------


    POTLOK:  cpu time    0.3914: real time    0.3914
    SETDIJ:  cpu time    0.0672: real time    0.0672
    EDDIAG:  cpu time   94.8040: real time   94.9874
  RMM-DIIS:  cpu time 3500.7147: real time 3505.7498
    ORTHCH:  cpu time   38.5624: real time   38.6298
       DOS:  cpu time    0.0463: real time    0.0463
    CHARGE:  cpu time   12.9948: real time   12.9970
    MIXING:  cpu time    0.0606: real time    0.0606
    --------------------------------------------
      LOOP:  cpu time 3647.6427: real time 3652.9310

 eigenvalue-minimisations  :196969
 total energy-change (2. order) :-0.3139218E+02  (-0.2696993E+02)
 number of electron    4320.0003303 magnetization 
 augmentation part      543.4432885 magnetization 

 Broyden mixing:
  rms(total) = 0.77179E+01    rms(broyden)= 0.77179E+01
  rms(prec ) = 0.18312E+02
  weight for this iteration     100.00

 eigenvalues of (default mixing * dielectric matrix)
  average eigenvalue GAMMA=   0.6080
  2.2294  2.2294  1.4324  1.4324  1.2498  1.2498  1.0355  1.0355  0.8177  0.8811
  0.8811  0.6602  0.6602  0.8039  0.5148  0.5637  0.5637  0.6266  0.6266  0.4262
  0.4262  0.3876  0.3876  0.3203  0.3203  0.3588  0.3588  0.2921  0.2921  0.2638
  0.2638  0.1058  0.1376  0.2482  0.2482  0.2336  0.2336  0.1947  0.1947  0.1809
  0.0728  0.0955

 Free energy of the ion-electron system (eV)
  ---------------------------------------------------
  alpha Z        PSCENC =     37455.67077199
  Ewald energy   TEWEN  =   -330617.20455296
  -Hartree energ DENC   =     -3618.92370840
  -exchange      EXHF   =         0.00000000
  -V(xc)+E(xc)   XCENC  =     -7956.84653256
  PAW double counting   =    204213.21168925  -190772.68914337
  entropy T*S    EENTRO =        -0.00204730
  eigenvalues    EBANDS =     69175.74430873
  atomic energy  EATOM  =    268872.57549992
  Solvation  Ediel_sol  =         0.00000000
  ---------------------------------------------------
  free energy    TOTEN  =     46751.53628529 eV

  energy without entropy =    46751.53833259  energy(sigma->0) =    46751.53696773


--------------------------------------------------------------------------------------------------------




----------------------------------------- Iteration    1(  44)  ---------------------------------------


    POTLOK:  cpu time    0.3895: real time    0.3901
    SETDIJ:  cpu time    0.0674: real time    0.0674
    EDDIAG:  cpu time   95.0495: real time   95.2143
  RMM-DIIS:  cpu time 3401.9452: real time 3406.1370
    ORTHCH:  cpu time   38.4950: real time   38.5208
       DOS:  cpu time    0.0686: real time    0.0686
    CHARGE:  cpu time   12.9497: real time   12.9506
    MIXING:  cpu time    0.0685: real time    0.0685
    --------------------------------------------
      LOOP:  cpu time 3549.0347: real time 3553.4204

 eigenvalue-minimisations  :196862
 total energy-change (2. order) :-0.4762240E+02  (-0.2588201E+02)
 number of electron    4320.0003315 magnetization 
 augmentation part      545.5692486 magnetization 

 Broyden mixing:
  rms(total) = 0.80895E+01    rms(broyden)= 0.80895E+01
  rms(prec ) = 0.19771E+02
  weight for this iteration     100.00

 eigenvalues of (default mixing * dielectric matrix)
  average eigenvalue GAMMA=   0.6059
  2.2324  2.2324  1.4439  1.4439  1.2656  1.2656  1.0156  1.0156  0.8259  0.8769
  0.8769  0.6603  0.6603  0.7989  0.5673  0.5673  0.4957  0.4957  0.6312  0.6312
  0.4527  0.4527  0.3205  0.3205  0.3801  0.3801  0.3300  0.3300  0.2932  0.2932
  0.2635  0.2635  0.1058  0.1376  0.2712  0.2358  0.2358  0.2373  0.1947  0.1947
  0.1809  0.0797  0.0955

 Free energy of the ion-electron system (eV)
  ---------------------------------------------------
  alpha Z        PSCENC =     37455.67077199
  Ewald energy   TEWEN  =   -330617.20455296
  -Hartree energ DENC   =     -3634.11116622
  -exchange      EXHF   =         0.00000000
  -V(xc)+E(xc)   XCENC  =     -7957.97458263
  PAW double counting   =    204154.79783312  -190715.80220485
  entropy T*S    EENTRO =        -0.00644626
  eigenvalues    EBANDS =     69145.96872965
  atomic energy  EATOM  =    268872.57549992
  Solvation  Ediel_sol  =         0.00000000
  ---------------------------------------------------
  free energy    TOTEN  =     46703.91388176 eV

  energy without entropy =    46703.92032802  energy(sigma->0) =    46703.91603051


--------------------------------------------------------------------------------------------------------




----------------------------------------- Iteration    1(  45)  ---------------------------------------


    POTLOK:  cpu time    0.3907: real time    0.3909
    SETDIJ:  cpu time    0.0656: real time    0.0656
    EDDIAG:  cpu time   94.8756: real time   94.9808
  RMM-DIIS:  cpu time 3512.7029: real time 3517.5360
    ORTHCH:  cpu time   38.8299: real time   38.8719
       DOS:  cpu time    0.0441: real time    0.0441
    CHARGE:  cpu time   12.9886: real time   12.9898
    MIXING:  cpu time    0.0745: real time    0.0746
    --------------------------------------------
      LOOP:  cpu time 3659.9732: real time 3664.9552

 eigenvalue-minimisations  :196754
 total energy-change (2. order) :-0.5680512E+02  (-0.2962708E+02)
 number of electron    4320.0003320 magnetization 
 augmentation part      546.3573429 magnetization 

 Broyden mixing:
  rms(total) = 0.86800E+01    rms(broyden)= 0.86800E+01
  rms(prec ) = 0.21910E+02
  weight for this iteration     100.00

 eigenvalues of (default mixing * dielectric matrix)
  average eigenvalue GAMMA=   0.5948
  2.2334  2.2334  1.4366  1.4366  1.2588  1.2588  1.0112  1.0112  0.8265  0.8753
  0.8753  0.6603  0.6603  0.7984  0.5530  0.5530  0.5676  0.5676  0.6303  0.6303
  0.4537  0.4537  0.3205  0.3205  0.3832  0.3832  0.3318  0.3318  0.2921  0.2921
  0.2633  0.2633  0.2722  0.2371  0.2357  0.2357  0.1058  0.1376  0.1947  0.1947
  0.1809  0.0354  0.0790  0.0955

 Free energy of the ion-electron system (eV)
  ---------------------------------------------------
  alpha Z        PSCENC =     37455.67077199
  Ewald energy   TEWEN  =   -330617.20455296
  -Hartree energ DENC   =     -3639.81959945
  -exchange      EXHF   =         0.00000000
  -V(xc)+E(xc)   XCENC  =     -7958.40836475
  PAW double counting   =    203723.11270598  -190283.73317727
  entropy T*S    EENTRO =        -0.00907109
  eigenvalues    EBANDS =     69094.92454943
  atomic energy  EATOM  =    268872.57549992
  Solvation  Ediel_sol  =         0.00000000
  ---------------------------------------------------
  free energy    TOTEN  =     46647.10876179 eV

  energy without entropy =    46647.11783288  energy(sigma->0) =    46647.11178548


--------------------------------------------------------------------------------------------------------




----------------------------------------- Iteration    1(  46)  ---------------------------------------


    POTLOK:  cpu time    0.3918: real time    0.3919
    SETDIJ:  cpu time    0.0619: real time    0.0619
    EDDIAG:  cpu time   94.5406: real time   94.7153
  RMM-DIIS:  cpu time 3377.5619: real time 3382.2128
    ORTHCH:  cpu time   38.5748: real time   38.6463
       DOS:  cpu time    0.0402: real time    0.0402
    CHARGE:  cpu time   12.9193: real time   12.9400
    MIXING:  cpu time    0.0589: real time    0.0589
    --------------------------------------------
      LOOP:  cpu time 3524.1506: real time 3529.0687

 eigenvalue-minimisations  :196989
 total energy-change (2. order) :-0.2411368E+02  (-0.2572530E+02)
 number of electron    4320.0003329 magnetization 
 augmentation part      548.2208567 magnetization 

 Broyden mixing:
  rms(total) = 0.89687E+01    rms(broyden)= 0.89687E+01
  rms(prec ) = 0.22929E+02
  weight for this iteration     100.00

 eigenvalues of (default mixing * dielectric matrix)
  average eigenvalue GAMMA=   0.5560
  2.0297  1.5318  1.5318  1.5951  1.5951  1.4550  0.7554  0.8932  0.8932  0.6698
  0.6698  0.7419  0.7419  0.3298  0.3298  0.4274  0.4274  0.0607  0.3089  0.3089
  0.4171  0.4171  0.3965  0.3965  0.3251  0.3251  0.0553  0.2768  0.2768  0.2623
  0.2623  0.0905  0.1124  0.1267  0.2390  0.2390  0.1734  0.1734  0.2063  0.1739

 Free energy of the ion-electron system (eV)
  ---------------------------------------------------
  alpha Z        PSCENC =     37455.67077199
  Ewald energy   TEWEN  =   -330617.20455296
  -Hartree energ DENC   =     -3640.56326980
  -exchange      EXHF   =         0.00000000
  -V(xc)+E(xc)   XCENC  =     -7958.46684091
  PAW double counting   =    203678.92955990  -190239.58321865
  entropy T*S    EENTRO =        -0.01093204
  eigenvalues    EBANDS =     69071.64806832
  atomic energy  EATOM  =    268872.57549992
  Solvation  Ediel_sol  =         0.00000000
  ---------------------------------------------------
  free energy    TOTEN  =     46622.99508576 eV

  energy without entropy =    46623.00601780  energy(sigma->0) =    46622.99872977


--------------------------------------------------------------------------------------------------------




----------------------------------------- Iteration    1(  47)  ---------------------------------------


    POTLOK:  cpu time    0.3909: real time    0.3909
    SETDIJ:  cpu time    0.0688: real time    0.0688
    EDDIAG:  cpu time   95.0355: real time   95.1389
  RMM-DIIS:  cpu time 3421.2567: real time 3426.2071
    ORTHCH:  cpu time   38.4927: real time   38.5338
       DOS:  cpu time    0.0690: real time    0.0690
    CHARGE:  cpu time   12.9563: real time   12.9694
    MIXING:  cpu time    0.0553: real time    0.0553
    --------------------------------------------
      LOOP:  cpu time 3568.3264: real time 3573.4347

 eigenvalue-minimisations  :195259
 total energy-change (2. order) :-0.5862230E+02  (-0.4035604E+02)
 number of electron    4320.0003341 magnetization 
 augmentation part      552.3717960 magnetization 

 Broyden mixing:
  rms(total) = 0.91452E+01    rms(broyden)= 0.91452E+01
  rms(prec ) = 0.24405E+02
  weight for this iteration     100.00

 eigenvalues of (default mixing * dielectric matrix)
  average eigenvalue GAMMA=   0.5445
  2.0640  1.7178  1.7178  1.5400  1.5400  1.2933  0.9013  0.9013  0.6693  0.6693
  0.4630  0.7594  0.7594  0.2495  0.2623  0.2623  0.4314  0.4314  0.3160  0.3160
  0.4187  0.4187  0.0405  0.3941  0.3941  0.3230  0.3230  0.2805  0.2805  0.0795
  0.2593  0.2593  0.1069  0.1311  0.1311  0.1828  0.1828  0.2391  0.2391  0.1658
  0.2093

 Free energy of the ion-electron system (eV)
  ---------------------------------------------------
  alpha Z        PSCENC =     37455.67077199
  Ewald energy   TEWEN  =   -330617.20455296
  -Hartree energ DENC   =     -3798.70917958
  -exchange      EXHF   =         0.00000000
  -V(xc)+E(xc)   XCENC  =     -7972.25739920
  PAW double counting   =    203477.37723618  -190025.55510615
  entropy T*S    EENTRO =        -0.01501839
  eigenvalues    EBANDS =     69172.49053844
  atomic energy  EATOM  =    268872.57549992
  Solvation  Ediel_sol  =         0.00000000
  ---------------------------------------------------
  free energy    TOTEN  =     46564.37279023 eV

  energy without entropy =    46564.38780862  energy(sigma->0) =    46564.37779636


--------------------------------------------------------------------------------------------------------




----------------------------------------- Iteration    1(  48)  ---------------------------------------


    POTLOK:  cpu time    0.3904: real time    0.3904
    SETDIJ:  cpu time    0.0704: real time    0.0704
    EDDIAG:  cpu time   95.1792: real time   95.2476
