<?xml version="1.0" encoding="ISO-8859-1"?>
<modeling>
 <generator>
  <i name="program" type="string">vasp </i>
  <i name="version" type="string">5.4.1  </i>
  <i name="subversion" type="string">24Jun15 (build Feb 03 2017 16:24:58) complex                          parallel </i>
  <i name="platform" type="string">IFC91_ompi </i>
  <i name="date" type="string">2018 07 14 </i>
  <i name="time" type="string">18:23:47 </i>
 </generator>
 <incar>
  <i type="string" name="SYSTEM"> Ir_Ru</i>
  <i type="int" name="ISTART">     0</i>
  <i type="string" name="PREC">accurate</i>
  <i type="string" name="ALGO"> Very_Fast</i>
  <i type="int" name="ICHARG">     2</i>
  <i type="int" name="NELMIN">     5</i>
  <i type="int" name="IBRION">    -1</i>
  <i name="EDIFFG">      0.00001000</i>
  <i type="int" name="ISIF">     2</i>
  <i type="string" name="LREAL"> AUTO</i>
  <i type="int" name="ISMEAR">     1</i>
  <i name="SIGMA">      0.10000000</i>
  <v type="int" name="KPOINT_BSE">    -1     0     0     0</v>
 </incar>
 <kpoints>
  <generation param="Gamma">
   <v type="int" name="divisions">       4        3        3 </v>
   <v name="usershift">      0.00000000       0.00000000       0.00000000 </v>
   <v name="genvec1">      0.25000000      -0.00000000      -0.00000000 </v>
   <v name="genvec2">      0.00000000       0.33333333       0.00000000 </v>
   <v name="genvec3">     -0.00000000      -0.00000000       0.33333333 </v>
   <v name="shift">      0.00000000       0.00000000       0.00000000 </v>
  </generation>
  <varray name="kpointlist" >
   <v>       0.00000000       0.00000000       0.00000000 </v>
   <v>       0.25000000       0.00000000      -0.00000000 </v>
   <v>       0.50000000       0.00000000      -0.00000000 </v>
   <v>       0.00000000       0.33333333       0.00000000 </v>
   <v>       0.25000000       0.33333333       0.00000000 </v>
   <v>       0.50000000       0.33333333       0.00000000 </v>
   <v>      -0.25000000       0.33333333       0.00000000 </v>
   <v>       0.00000000      -0.00000000       0.33333333 </v>
   <v>       0.25000000      -0.00000000       0.33333333 </v>
   <v>       0.50000000       0.00000000       0.33333333 </v>
   <v>      -0.25000000       0.00000000       0.33333333 </v>
   <v>       0.00000000       0.33333333       0.33333333 </v>
   <v>       0.25000000       0.33333333       0.33333333 </v>
   <v>       0.50000000       0.33333333       0.33333333 </v>
   <v>      -0.25000000       0.33333333       0.33333333 </v>
   <v>       0.00000000      -0.33333333       0.33333333 </v>
   <v>       0.25000000      -0.33333333       0.33333333 </v>
   <v>       0.50000000      -0.33333333       0.33333333 </v>
   <v>      -0.25000000      -0.33333333       0.33333333 </v>
  </varray>
  <varray name="weights" >
   <v>       0.02777778 </v>
   <v>       0.05555556 </v>
   <v>       0.02777778 </v>
   <v>       0.05555556 </v>
   <v>       0.05555556 </v>
   <v>       0.05555556 </v>
   <v>       0.05555556 </v>
   <v>       0.05555556 </v>
   <v>       0.05555556 </v>
   <v>       0.05555556 </v>
   <v>       0.05555556 </v>
   <v>       0.05555556 </v>
   <v>       0.05555556 </v>
   <v>       0.05555556 </v>
   <v>       0.05555556 </v>
   <v>       0.05555556 </v>
   <v>       0.05555556 </v>
   <v>       0.05555556 </v>
   <v>       0.05555556 </v>
  </varray>
 </kpoints>
 <parameters>
  <separator name="general" >
   <i type="string" name="SYSTEM">Ir_Ru</i>
   <i type="logical" name="LCOMPAT"> F  </i>
  </separator>
  <separator name="electronic" >
   <i type="string" name="PREC">accura</i>
   <i name="ENMAX">    213.27600000</i>
   <i name="ENAUG">    333.49400000</i>
   <i name="EDIFF">      0.00010000</i>
   <i type="int" name="IALGO">    48</i>
   <i type="int" name="IWAVPR">    10</i>
   <i type="int" name="NBANDS">  1320</i>
   <i name="NELECT">   2176.00000000</i>
   <i type="int" name="TURBO">     0</i>
   <i type="int" name="IRESTART">     0</i>
   <i type="int" name="NREBOOT">     0</i>
   <i type="int" name="NMIN">     0</i>
   <i name="EREF">      0.00000000</i>
   <separator name="electronic smearing" >
    <i type="int" name="ISMEAR">     1</i>
    <i name="SIGMA">      0.10000000</i>
    <i name="KSPACING">      0.50000000</i>
    <i type="logical" name="KGAMMA"> T  </i>
   </separator>
   <separator name="electronic projectors" >
    <i type="logical" name="LREAL"> T  </i>
    <v name="ROPT">     -0.00025000     -0.00025000</v>
    <i type="int" name="LMAXPAW">  -100</i>
    <i type="int" name="LMAXMIX">     2</i>
    <i type="logical" name="NLSPLINE"> F  </i>
   </separator>
   <separator name="electronic startup" >
    <i type="int" name="ISTART">     0</i>
    <i type="int" name="ICHARG">     2</i>
    <i type="int" name="INIWAV">     1</i>
   </separator>
   <separator name="electronic spin" >
    <i type="int" name="ISPIN">     1</i>
    <i type="logical" name="LNONCOLLINEAR"> F  </i>
    <v name="MAGMOM">      1.00000000      1.00000000      1.00000000      1.00000000      1.00000000      1.00000000      1.00000000      1.00000000      1.00000000      1.00000000      1.00000000      1.00000000      1.00000000      1.00000000      1.00000000      1.00000000      1.00000000      1.00000000      1.00000000      1.00000000
      1.00000000      1.00000000      1.00000000      1.00000000      1.00000000      1.00000000      1.00000000      1.00000000      1.00000000      1.00000000      1.00000000      1.00000000      1.00000000      1.00000000      1.00000000      1.00000000      1.00000000      1.00000000      1.00000000      1.00000000
      1.00000000      1.00000000      1.00000000      1.00000000      1.00000000      1.00000000      1.00000000      1.00000000      1.00000000      1.00000000      1.00000000      1.00000000      1.00000000      1.00000000      1.00000000      1.00000000      1.00000000      1.00000000      1.00000000      1.00000000
      1.00000000      1.00000000      1.00000000      1.00000000      1.00000000      1.00000000      1.00000000      1.00000000      1.00000000      1.00000000      1.00000000      1.00000000      1.00000000      1.00000000      1.00000000      1.00000000      1.00000000      1.00000000      1.00000000      1.00000000
      1.00000000      1.00000000      1.00000000      1.00000000      1.00000000      1.00000000      1.00000000      1.00000000      1.00000000      1.00000000      1.00000000      1.00000000      1.00000000      1.00000000      1.00000000      1.00000000      1.00000000      1.00000000      1.00000000      1.00000000
      1.00000000      1.00000000      1.00000000      1.00000000      1.00000000      1.00000000      1.00000000      1.00000000      1.00000000      1.00000000      1.00000000      1.00000000      1.00000000      1.00000000      1.00000000      1.00000000      1.00000000      1.00000000      1.00000000      1.00000000
      1.00000000      1.00000000      1.00000000      1.00000000      1.00000000      1.00000000      1.00000000      1.00000000      1.00000000      1.00000000      1.00000000      1.00000000      1.00000000      1.00000000      1.00000000      1.00000000      1.00000000      1.00000000      1.00000000      1.00000000
      1.00000000      1.00000000      1.00000000      1.00000000      1.00000000      1.00000000      1.00000000      1.00000000      1.00000000      1.00000000      1.00000000      1.00000000      1.00000000      1.00000000      1.00000000      1.00000000      1.00000000      1.00000000      1.00000000      1.00000000
      1.00000000      1.00000000      1.00000000      1.00000000      1.00000000      1.00000000      1.00000000      1.00000000      1.00000000      1.00000000      1.00000000      1.00000000      1.00000000      1.00000000      1.00000000      1.00000000      1.00000000      1.00000000      1.00000000      1.00000000
      1.00000000      1.00000000      1.00000000      1.00000000      1.00000000      1.00000000      1.00000000      1.00000000      1.00000000      1.00000000      1.00000000      1.00000000      1.00000000      1.00000000      1.00000000      1.00000000      1.00000000      1.00000000      1.00000000      1.00000000
      1.00000000      1.00000000      1.00000000      1.00000000      1.00000000      1.00000000      1.00000000      1.00000000      1.00000000      1.00000000      1.00000000      1.00000000      1.00000000      1.00000000      1.00000000      1.00000000      1.00000000      1.00000000      1.00000000      1.00000000
      1.00000000      1.00000000      1.00000000      1.00000000      1.00000000      1.00000000      1.00000000      1.00000000      1.00000000      1.00000000      1.00000000      1.00000000      1.00000000      1.00000000      1.00000000      1.00000000      1.00000000      1.00000000      1.00000000      1.00000000
      1.00000000      1.00000000      1.00000000      1.00000000      1.00000000      1.00000000      1.00000000      1.00000000      1.00000000      1.00000000      1.00000000      1.00000000      1.00000000      1.00000000      1.00000000      1.00000000</v>
    <i name="NUPDOWN">     -1.00000000</i>
    <i type="logical" name="LSORBIT"> F  </i>
    <v name="SAXIS">      0.00000000      0.00000000      1.00000000</v>
    <i type="logical" name="LSPIRAL"> F  </i>
    <v name="QSPIRAL">      0.00000000      0.00000000      0.00000000</v>
    <i type="logical" name="LZEROZ"> F  </i>
   </separator>
   <separator name="electronic exchange-correlation" >
    <i type="logical" name="LASPH"> F  </i>
    <i type="logical" name="LMETAGGA"> F  </i>
   </separator>
   <separator name="electronic convergence" >
    <i type="int" name="NELM">    60</i>
    <i type="int" name="NELMDL">   -12</i>
    <i type="int" name="NELMIN">     5</i>
    <i name="ENINI">    213.27600000</i>
    <separator name="electronic convergence detail" >
     <i type="logical" name="LDIAG"> T  </i>
     <i type="logical" name="LSUBROT"> F  </i>
     <i name="WEIMIN">      0.00000000</i>
     <i name="EBREAK">      0.00000000</i>
     <i name="DEPER">      0.30000000</i>
     <i type="int" name="NRMM">     4</i>
     <i name="TIME">      0.40000000</i>
    </separator>
   </separator>
   <separator name="electronic mixer" >
    <i name="AMIX">      0.40000000</i>
    <i name="BMIX">      1.00000000</i>
    <i name="AMIN">      0.10000000</i>
    <i name="AMIX_MAG">      1.60000000</i>
    <i name="BMIX_MAG">      1.00000000</i>
    <separator name="electronic mixer details" >
     <i type="int" name="IMIX">     4</i>
     <i type="logical" name="MIXFIRST"> F  </i>
     <i type="int" name="MAXMIX">   -45</i>
     <i name="WC">    100.00000000</i>
     <i type="int" name="INIMIX">     1</i>
     <i type="int" name="MIXPRE">     1</i>
     <i type="int" name="MREMOVE">     5</i>
    </separator>
   </separator>
   <separator name="electronic dipolcorrection" >
    <i type="logical" name="LDIPOL"> F  </i>
    <i type="logical" name="LMONO"> F  </i>
    <i type="int" name="IDIPOL">     0</i>
    <i name="EPSILON">      1.00000000</i>
    <v name="DIPOL">   -100.00000000   -100.00000000   -100.00000000</v>
    <i name="EFIELD">      0.00000000</i>
   </separator>
  </separator>
  <separator name="grids" >
   <i type="int" name="NGX">    80</i>
   <i type="int" name="NGY">    84</i>
   <i type="int" name="NGZ">    84</i>
   <i type="int" name="NGXF">   160</i>
   <i type="int" name="NGYF">   168</i>
   <i type="int" name="NGZF">   168</i>
   <i type="logical" name="ADDGRID"> F  </i>
  </separator>
  <separator name="ionic" >
   <i type="int" name="NSW">     0</i>
   <i type="int" name="IBRION">    -1</i>
   <i type="int" name="ISIF">     2</i>
   <i name="PSTRESS">      0.00000000</i>
   <i name="EDIFFG">      0.00001000</i>
   <i type="int" name="NFREE">     0</i>
   <i name="POTIM">      0.50000000</i>
   <i name="SMASS">     -3.00000000</i>
   <i name="SCALEE">      1.00000000</i>
  </separator>
  <separator name="ionic md" >
   <i name="TEBEG">      0.00010000</i>
   <i name="TEEND">      0.00010000</i>
   <i type="int" name="NBLOCK">     1</i>
   <i type="int" name="KBLOCK">     1</i>
   <i type="int" name="NPACO">   256</i>
   <i name="APACO">     16.00000000</i>
  </separator>
  <separator name="symmetry" >
   <i type="int" name="ISYM">     2</i>
   <i name="SYMPREC">      0.00001000</i>
  </separator>
  <separator name="dos" >
   <i type="logical" name="LORBIT"> F  </i>
   <v name="RWIGS">     -1.00000000     -1.00000000</v>
   <i type="int" name="NEDOS">   301</i>
   <i name="EMIN">     10.00000000</i>
   <i name="EMAX">    -10.00000000</i>
   <i name="EFERMI">      0.00000000</i>
  </separator>
  <separator name="writing" >
   <i type="int" name="NWRITE">     2</i>
   <i type="logical" name="LWAVE"> T  </i>
   <i type="logical" name="LCHARG"> T  </i>
   <i type="logical" name="LPARD"> F  </i>
   <i type="logical" name="LVTOT"> F  </i>
   <i type="logical" name="LVHAR"> F  </i>
   <i type="logical" name="LELF"> F  </i>
   <i type="logical" name="LOPTICS"> F  </i>
   <v name="STM">      0.00000000      0.00000000      0.00000000      0.00000000      0.00000000      0.00000000      0.00000000</v>
  </separator>
  <separator name="performance" >
   <i type="int" name="NPAR">    20</i>
   <i type="int" name="NSIM">     4</i>
   <i type="int" name="NBLK">    -1</i>
   <i type="logical" name="LPLANE"> T  </i>
   <i type="logical" name="LSCALAPACK"> T  </i>
   <i type="logical" name="LSCAAWARE"> F  </i>
   <i type="logical" name="LSCALU"> F  </i>
   <i type="logical" name="LASYNC"> F  </i>
   <i type="logical" name="LORBITALREAL"> F  </i>
  </separator>
  <separator name="miscellaneous" >
   <i type="int" name="IDIOT">     3</i>
   <i type="logical" name="LMUSIC"> F  </i>
   <v name="POMASS">    192.22000000    101.07000000</v>
   <v name="DARWINR">      0.00000000      0.00000000</v>
   <v name="DARWINV">      1.00000000      1.00000000</v>
   <i type="logical" name="LCORR"> T  </i>
  </separator>
  <i type="logical" name="GGA_COMPAT"> T  </i>
  <i type="logical" name="LBERRY"> F  </i>
  <i type="int" name="ICORELEVEL">     0</i>
  <i type="logical" name="LDAU"> F  </i>
  <i type="int" name="I_CONSTRAINED_M">     0</i>
  <separator name="electronic exchange-correlation" >
   <i type="string" name="GGA">--</i>
   <i type="int" name="VOSKOWN">     0</i>
   <i type="logical" name="LHFCALC"> F  </i>
   <i type="string" name="PRECFOCK"></i>
   <i type="logical" name="LSYMGRAD"> F  </i>
   <i type="logical" name="LHFONE"> F  </i>
   <i type="logical" name="LRHFCALC"> F  </i>
   <i type="logical" name="LTHOMAS"> F  </i>
   <i type="logical" name="LMODELHF"> F  </i>
   <i name="ENCUT4O">     -1.00000000</i>
   <i type="int" name="EXXOEP">     0</i>
   <i type="int" name="FOURORBIT">     0</i>
   <i name="AEXX">      0.00000000</i>
   <i name="HFALPHA">      0.00000000</i>
   <i name="MCALPHA">      0.00000000</i>
   <i name="ALDAX">      1.00000000</i>
   <i name="AGGAX">      1.00000000</i>
   <i name="ALDAC">      1.00000000</i>
   <i name="AGGAC">      1.00000000</i>
   <i type="int" name="NKREDX">     1</i>
   <i type="int" name="NKREDY">     1</i>
   <i type="int" name="NKREDZ">     1</i>
   <i type="logical" name="SHIFTRED"> F  </i>
   <i type="logical" name="ODDONLY"> F  </i>
   <i type="logical" name="EVENONLY"> F  </i>
   <i type="int" name="LMAXFOCK">     0</i>
   <i type="int" name="NMAXFOCKAE">     0</i>
   <i type="logical" name="LFOCKAEDFT"> F  </i>
   <i name="HFSCREEN">      0.00000000</i>
   <i name="HFSCREENC">      0.00000000</i>
   <i type="int" name="NBANDSGWLOW">     0</i>
  </separator>
  <separator name="vdW DFT" >
   <i type="logical" name="LUSE_VDW"> F  </i>
   <i name="Zab_VDW">     -0.84910000</i>
   <i name="PARAM1">      0.12340000</i>
   <i name="PARAM2">      1.00000000</i>
   <i name="PARAM3">      0.00000000</i>
  </separator>
  <separator name="model GW" >
   <i type="int" name="MODEL_GW">     0</i>
   <i name="MODEL_EPS0">      8.51350379</i>
   <i name="MODEL_ALPHA">      1.00000000</i>
  </separator>
  <separator name="linear response parameters" >
   <i type="logical" name="LEPSILON"> F  </i>
   <i type="logical" name="LRPA"> F  </i>
   <i type="logical" name="LNABLA"> F  </i>
   <i type="logical" name="LVEL"> F  </i>
   <i type="int" name="KINTER">     0</i>
   <i name="CSHIFT">      0.10000000</i>
   <i name="OMEGAMAX">     -1.00000000</i>
   <i name="DEG_THRESHOLD">      0.00200000</i>
  </separator>
  <separator name="orbital magnetization" >
   <i type="logical" name="NUCIND"> F  </i>
   <v name="MAGPOS">      0.00000000      0.00000000      0.00000000</v>
   <i type="logical" name="LNICSALL"> T  </i>
   <i type="logical" name="ORBITALMAG"> F  </i>
   <i type="logical" name="LMAGBLOCH"> F  </i>
   <i type="logical" name="LCHIMAG"> F  </i>
   <i type="logical" name="LGAUGE"> T  </i>
   <i type="int" name="MAGATOM">     0</i>
   <v name="MAGDIPOL">      0.00000000      0.00000000      0.00000000</v>
   <v name="AVECCONST">      0.00000000      0.00000000      0.00000000</v>
  </separator>
  <separator name="response functions" >
   <i type="logical" name="LADDER"> F  </i>
   <i type="logical" name="LFXC"> F  </i>
   <i type="logical" name="LHARTREE"> T  </i>
   <i type="int" name="IBSE">     0</i>
   <v type="int" name="KPOINT">    -1     0     0     0</v>
   <i type="logical" name="LTCTE"> F  </i>
   <i type="logical" name="LTETE"> F  </i>
   <i type="logical" name="LTRIPLET"> F  </i>
   <i type="logical" name="LFXCEPS"> F  </i>
   <i type="logical" name="LFXHEG"> F  </i>
   <i type="int" name="NATURALO">     0</i>
   <i type="logical" name="L2ORDER"> F  </i>
   <i type="logical" name="LUSEW"> F  </i>
   <i name="ENCUTGW">     -2.00000000</i>
   <i name="ENCUTGWSOFT">     -2.00000000</i>
   <i name="ENCUTLF">     -1.00000000</i>
   <i type="int" name="LMAXMP2">    -1</i>
   <i name="SCISSOR">      0.00000000</i>
   <i type="int" name="NOMEGA">     0</i>
   <i type="int" name="NOMEGAR">     0</i>
   <i type="int" name="NBANDSGW">    -1</i>
   <i type="int" name="NBANDSO">    -1</i>
   <i type="int" name="NBANDSV">    -1</i>
   <i type="int" name="NELM">     1</i>
   <i type="int" name="NELMHF">     1</i>
   <i type="int" name="DIM">     3</i>
   <i type="int" name="ANTIRES">     0</i>
   <i name="OMEGAMAX">    -30.00000000</i>
   <i name="OMEGAMIN">    -30.00000000</i>
   <i name="OMEGATL">   -200.00000000</i>
   <i type="int" name="OMEGAGRID">     0</i>
   <i name="CSHIFT">     -0.10000000</i>
   <i type="logical" name="SELFENERGY"> F  </i>
   <i type="logical" name="LSPECTRAL"> F  </i>
   <i type="logical" name="LSPECTRALGW"> F  </i>
   <i type="logical" name="LSINGLES"> F  </i>
   <i type="logical" name="LFERMIGW"> F  </i>
   <i type="logical" name="ODDONLYGW"> F  </i>
   <i type="logical" name="EVENONLYGW"> F  </i>
   <i type="int" name="NKREDLFX">     1</i>
   <i type="int" name="NKREDLFY">     1</i>
   <i type="int" name="NKREDLFZ">     1</i>
   <i type="int" name="MAXMEM">  1800</i>
   <i type="int" name="TELESCOPE">     0</i>
   <i type="int" name="TAUPAR">     1</i>
   <i type="int" name="OMEGAPAR">    -1</i>
   <i name="LAMBDA">      1.00000000</i>
  </separator>
  <separator name="External order field" >
   <i name="OFIELD_KAPPA">      0.00000000</i>
   <v name="OFIELD_K">      0.00000000      0.00000000      0.00000000</v>
   <i name="OFIELD_Q6_NEAR">      0.00000000</i>
   <i name="OFIELD_Q6_FAR">      0.00000000</i>
   <i name="OFIELD_A">      0.00000000</i>
  </separator>
 </parameters>
 <atominfo>
  <atoms>     256 </atoms>
  <types>       2 </types>
  <array name="atoms" >
   <dimension dim="1">ion</dimension>
   <field type="string">element</field>
   <field type="int">atomtype</field>
   <set>
    <rc><c>Ir</c><c>   1</c></rc>
    <rc><c>Ir</c><c>   1</c></rc>
    <rc><c>Ir</c><c>   1</c></rc>
    <rc><c>Ir</c><c>   1</c></rc>
    <rc><c>Ir</c><c>   1</c></rc>
    <rc><c>Ir</c><c>   1</c></rc>
    <rc><c>Ir</c><c>   1</c></rc>
    <rc><c>Ir</c><c>   1</c></rc>
    <rc><c>Ir</c><c>   1</c></rc>
    <rc><c>Ir</c><c>   1</c></rc>
    <rc><c>Ir</c><c>   1</c></rc>
    <rc><c>Ir</c><c>   1</c></rc>
    <rc><c>Ir</c><c>   1</c></rc>
    <rc><c>Ir</c><c>   1</c></rc>
    <rc><c>Ir</c><c>   1</c></rc>
    <rc><c>Ir</c><c>   1</c></rc>
    <rc><c>Ir</c><c>   1</c></rc>
    <rc><c>Ir</c><c>   1</c></rc>
    <rc><c>Ir</c><c>   1</c></rc>
    <rc><c>Ir</c><c>   1</c></rc>
    <rc><c>Ir</c><c>   1</c></rc>
    <rc><c>Ir</c><c>   1</c></rc>
    <rc><c>Ir</c><c>   1</c></rc>
    <rc><c>Ir</c><c>   1</c></rc>
    <rc><c>Ir</c><c>   1</c></rc>
    <rc><c>Ir</c><c>   1</c></rc>
    <rc><c>Ir</c><c>   1</c></rc>
    <rc><c>Ir</c><c>   1</c></rc>
    <rc><c>Ir</c><c>   1</c></rc>
    <rc><c>Ir</c><c>   1</c></rc>
    <rc><c>Ir</c><c>   1</c></rc>
    <rc><c>Ir</c><c>   1</c></rc>
    <rc><c>Ir</c><c>   1</c></rc>
    <rc><c>Ir</c><c>   1</c></rc>
    <rc><c>Ir</c><c>   1</c></rc>
    <rc><c>Ir</c><c>   1</c></rc>
    <rc><c>Ir</c><c>   1</c></rc>
    <rc><c>Ir</c><c>   1</c></rc>
    <rc><c>Ir</c><c>   1</c></rc>
    <rc><c>Ir</c><c>   1</c></rc>
    <rc><c>Ir</c><c>   1</c></rc>
    <rc><c>Ir</c><c>   1</c></rc>
    <rc><c>Ir</c><c>   1</c></rc>
    <rc><c>Ir</c><c>   1</c></rc>
    <rc><c>Ir</c><c>   1</c></rc>
    <rc><c>Ir</c><c>   1</c></rc>
    <rc><c>Ir</c><c>   1</c></rc>
    <rc><c>Ir</c><c>   1</c></rc>
    <rc><c>Ir</c><c>   1</c></rc>
    <rc><c>Ir</c><c>   1</c></rc>
    <rc><c>Ir</c><c>   1</c></rc>
    <rc><c>Ir</c><c>   1</c></rc>
    <rc><c>Ir</c><c>   1</c></rc>
    <rc><c>Ir</c><c>   1</c></rc>
    <rc><c>Ir</c><c>   1</c></rc>
    <rc><c>Ir</c><c>   1</c></rc>
    <rc><c>Ir</c><c>   1</c></rc>
    <rc><c>Ir</c><c>   1</c></rc>
    <rc><c>Ir</c><c>   1</c></rc>
    <rc><c>Ir</c><c>   1</c></rc>
    <rc><c>Ir</c><c>   1</c></rc>
    <rc><c>Ir</c><c>   1</c></rc>
    <rc><c>Ir</c><c>   1</c></rc>
    <rc><c>Ir</c><c>   1</c></rc>
    <rc><c>Ir</c><c>   1</c></rc>
    <rc><c>Ir</c><c>   1</c></rc>
    <rc><c>Ir</c><c>   1</c></rc>
    <rc><c>Ir</c><c>   1</c></rc>
    <rc><c>Ir</c><c>   1</c></rc>
    <rc><c>Ir</c><c>   1</c></rc>
    <rc><c>Ir</c><c>   1</c></rc>
    <rc><c>Ir</c><c>   1</c></rc>
    <rc><c>Ir</c><c>   1</c></rc>
    <rc><c>Ir</c><c>   1</c></rc>
    <rc><c>Ir</c><c>   1</c></rc>
    <rc><c>Ir</c><c>   1</c></rc>
    <rc><c>Ir</c><c>   1</c></rc>
    <rc><c>Ir</c><c>   1</c></rc>
    <rc><c>Ir</c><c>   1</c></rc>
    <rc><c>Ir</c><c>   1</c></rc>
    <rc><c>Ir</c><c>   1</c></rc>
    <rc><c>Ir</c><c>   1</c></rc>
    <rc><c>Ir</c><c>   1</c></rc>
    <rc><c>Ir</c><c>   1</c></rc>
    <rc><c>Ir</c><c>   1</c></rc>
    <rc><c>Ir</c><c>   1</c></rc>
    <rc><c>Ir</c><c>   1</c></rc>
    <rc><c>Ir</c><c>   1</c></rc>
    <rc><c>Ir</c><c>   1</c></rc>
    <rc><c>Ir</c><c>   1</c></rc>
    <rc><c>Ir</c><c>   1</c></rc>
    <rc><c>Ir</c><c>   1</c></rc>
    <rc><c>Ir</c><c>   1</c></rc>
    <rc><c>Ir</c><c>   1</c></rc>
    <rc><c>Ir</c><c>   1</c></rc>
    <rc><c>Ir</c><c>   1</c></rc>
    <rc><c>Ir</c><c>   1</c></rc>
    <rc><c>Ir</c><c>   1</c></rc>
    <rc><c>Ir</c><c>   1</c></rc>
    <rc><c>Ir</c><c>   1</c></rc>
    <rc><c>Ir</c><c>   1</c></rc>
    <rc><c>Ir</c><c>   1</c></rc>
    <rc><c>Ir</c><c>   1</c></rc>
    <rc><c>Ir</c><c>   1</c></rc>
    <rc><c>Ir</c><c>   1</c></rc>
    <rc><c>Ir</c><c>   1</c></rc>
    <rc><c>Ir</c><c>   1</c></rc>
    <rc><c>Ir</c><c>   1</c></rc>
    <rc><c>Ir</c><c>   1</c></rc>
    <rc><c>Ir</c><c>   1</c></rc>
    <rc><c>Ir</c><c>   1</c></rc>
    <rc><c>Ir</c><c>   1</c></rc>
    <rc><c>Ir</c><c>   1</c></rc>
    <rc><c>Ir</c><c>   1</c></rc>
    <rc><c>Ir</c><c>   1</c></rc>
    <rc><c>Ir</c><c>   1</c></rc>
    <rc><c>Ir</c><c>   1</c></rc>
    <rc><c>Ir</c><c>   1</c></rc>
    <rc><c>Ir</c><c>   1</c></rc>
    <rc><c>Ir</c><c>   1</c></rc>
    <rc><c>Ir</c><c>   1</c></rc>
    <rc><c>Ir</c><c>   1</c></rc>
    <rc><c>Ir</c><c>   1</c></rc>
    <rc><c>Ir</c><c>   1</c></rc>
    <rc><c>Ir</c><c>   1</c></rc>
    <rc><c>Ir</c><c>   1</c></rc>
    <rc><c>Ir</c><c>   1</c></rc>
    <rc><c>Ir</c><c>   1</c></rc>
    <rc><c>Ru</c><c>   2</c></rc>
    <rc><c>Ru</c><c>   2</c></rc>
    <rc><c>Ru</c><c>   2</c></rc>
    <rc><c>Ru</c><c>   2</c></rc>
    <rc><c>Ru</c><c>   2</c></rc>
    <rc><c>Ru</c><c>   2</c></rc>
    <rc><c>Ru</c><c>   2</c></rc>
    <rc><c>Ru</c><c>   2</c></rc>
    <rc><c>Ru</c><c>   2</c></rc>
    <rc><c>Ru</c><c>   2</c></rc>
    <rc><c>Ru</c><c>   2</c></rc>
    <rc><c>Ru</c><c>   2</c></rc>
    <rc><c>Ru</c><c>   2</c></rc>
    <rc><c>Ru</c><c>   2</c></rc>
    <rc><c>Ru</c><c>   2</c></rc>
    <rc><c>Ru</c><c>   2</c></rc>
    <rc><c>Ru</c><c>   2</c></rc>
    <rc><c>Ru</c><c>   2</c></rc>
    <rc><c>Ru</c><c>   2</c></rc>
    <rc><c>Ru</c><c>   2</c></rc>
    <rc><c>Ru</c><c>   2</c></rc>
    <rc><c>Ru</c><c>   2</c></rc>
    <rc><c>Ru</c><c>   2</c></rc>
    <rc><c>Ru</c><c>   2</c></rc>
    <rc><c>Ru</c><c>   2</c></rc>
    <rc><c>Ru</c><c>   2</c></rc>
    <rc><c>Ru</c><c>   2</c></rc>
    <rc><c>Ru</c><c>   2</c></rc>
    <rc><c>Ru</c><c>   2</c></rc>
    <rc><c>Ru</c><c>   2</c></rc>
    <rc><c>Ru</c><c>   2</c></rc>
    <rc><c>Ru</c><c>   2</c></rc>
    <rc><c>Ru</c><c>   2</c></rc>
    <rc><c>Ru</c><c>   2</c></rc>
    <rc><c>Ru</c><c>   2</c></rc>
    <rc><c>Ru</c><c>   2</c></rc>
    <rc><c>Ru</c><c>   2</c></rc>
    <rc><c>Ru</c><c>   2</c></rc>
    <rc><c>Ru</c><c>   2</c></rc>
    <rc><c>Ru</c><c>   2</c></rc>
    <rc><c>Ru</c><c>   2</c></rc>
    <rc><c>Ru</c><c>   2</c></rc>
    <rc><c>Ru</c><c>   2</c></rc>
    <rc><c>Ru</c><c>   2</c></rc>
    <rc><c>Ru</c><c>   2</c></rc>
    <rc><c>Ru</c><c>   2</c></rc>
    <rc><c>Ru</c><c>   2</c></rc>
    <rc><c>Ru</c><c>   2</c></rc>
    <rc><c>Ru</c><c>   2</c></rc>
    <rc><c>Ru</c><c>   2</c></rc>
    <rc><c>Ru</c><c>   2</c></rc>
    <rc><c>Ru</c><c>   2</c></rc>
    <rc><c>Ru</c><c>   2</c></rc>
    <rc><c>Ru</c><c>   2</c></rc>
    <rc><c>Ru</c><c>   2</c></rc>
    <rc><c>Ru</c><c>   2</c></rc>
    <rc><c>Ru</c><c>   2</c></rc>
    <rc><c>Ru</c><c>   2</c></rc>
    <rc><c>Ru</c><c>   2</c></rc>
    <rc><c>Ru</c><c>   2</c></rc>
    <rc><c>Ru</c><c>   2</c></rc>
    <rc><c>Ru</c><c>   2</c></rc>
    <rc><c>Ru</c><c>   2</c></rc>
    <rc><c>Ru</c><c>   2</c></rc>
    <rc><c>Ru</c><c>   2</c></rc>
    <rc><c>Ru</c><c>   2</c></rc>
    <rc><c>Ru</c><c>   2</c></rc>
    <rc><c>Ru</c><c>   2</c></rc>
    <rc><c>Ru</c><c>   2</c></rc>
    <rc><c>Ru</c><c>   2</c></rc>
    <rc><c>Ru</c><c>   2</c></rc>
    <rc><c>Ru</c><c>   2</c></rc>
    <rc><c>Ru</c><c>   2</c></rc>
    <rc><c>Ru</c><c>   2</c></rc>
    <rc><c>Ru</c><c>   2</c></rc>
    <rc><c>Ru</c><c>   2</c></rc>
    <rc><c>Ru</c><c>   2</c></rc>
    <rc><c>Ru</c><c>   2</c></rc>
    <rc><c>Ru</c><c>   2</c></rc>
    <rc><c>Ru</c><c>   2</c></rc>
    <rc><c>Ru</c><c>   2</c></rc>
    <rc><c>Ru</c><c>   2</c></rc>
    <rc><c>Ru</c><c>   2</c></rc>
    <rc><c>Ru</c><c>   2</c></rc>
    <rc><c>Ru</c><c>   2</c></rc>
    <rc><c>Ru</c><c>   2</c></rc>
    <rc><c>Ru</c><c>   2</c></rc>
    <rc><c>Ru</c><c>   2</c></rc>
    <rc><c>Ru</c><c>   2</c></rc>
    <rc><c>Ru</c><c>   2</c></rc>
    <rc><c>Ru</c><c>   2</c></rc>
    <rc><c>Ru</c><c>   2</c></rc>
    <rc><c>Ru</c><c>   2</c></rc>
    <rc><c>Ru</c><c>   2</c></rc>
    <rc><c>Ru</c><c>   2</c></rc>
    <rc><c>Ru</c><c>   2</c></rc>
    <rc><c>Ru</c><c>   2</c></rc>
    <rc><c>Ru</c><c>   2</c></rc>
    <rc><c>Ru</c><c>   2</c></rc>
    <rc><c>Ru</c><c>   2</c></rc>
    <rc><c>Ru</c><c>   2</c></rc>
    <rc><c>Ru</c><c>   2</c></rc>
    <rc><c>Ru</c><c>   2</c></rc>
    <rc><c>Ru</c><c>   2</c></rc>
    <rc><c>Ru</c><c>   2</c></rc>
    <rc><c>Ru</c><c>   2</c></rc>
    <rc><c>Ru</c><c>   2</c></rc>
    <rc><c>Ru</c><c>   2</c></rc>
    <rc><c>Ru</c><c>   2</c></rc>
    <rc><c>Ru</c><c>   2</c></rc>
    <rc><c>Ru</c><c>   2</c></rc>
    <rc><c>Ru</c><c>   2</c></rc>
    <rc><c>Ru</c><c>   2</c></rc>
    <rc><c>Ru</c><c>   2</c></rc>
    <rc><c>Ru</c><c>   2</c></rc>
    <rc><c>Ru</c><c>   2</c></rc>
    <rc><c>Ru</c><c>   2</c></rc>
    <rc><c>Ru</c><c>   2</c></rc>
    <rc><c>Ru</c><c>   2</c></rc>
    <rc><c>Ru</c><c>   2</c></rc>
    <rc><c>Ru</c><c>   2</c></rc>
    <rc><c>Ru</c><c>   2</c></rc>
    <rc><c>Ru</c><c>   2</c></rc>
    <rc><c>Ru</c><c>   2</c></rc>
    <rc><c>Ru</c><c>   2</c></rc>
    <rc><c>Ru</c><c>   2</c></rc>
    <rc><c>Ru</c><c>   2</c></rc>
    <rc><c>Ru</c><c>   2</c></rc>
   </set>
  </array>
  <array name="atomtypes" >
   <dimension dim="1">type</dimension>
   <field type="int">atomspertype</field>
   <field type="string">element</field>
   <field>mass</field>
   <field>valence</field>
   <field type="string">pseudopotential</field>
   <set>
    <rc><c> 128</c><c>Ir</c><c>    192.22000000</c><c>      9.00000000</c><c> PAW_PBE Ir 06Sep2000                   </c></rc>
    <rc><c> 128</c><c>Ru</c><c>    101.07000000</c><c>      8.00000000</c><c> PAW_PBE Ru 06Sep2000                   </c></rc>
   </set>
  </array>
 </atominfo>
 <structure name="initialpos" >
  <crystal>
   <varray name="basis" >
    <v>       5.48320000     -14.25407000       4.35211000 </v>
    <v>     -10.97158000      -9.50382000       8.70700000 </v>
    <v>     -10.97268000      -9.50770000      -8.71242000 </v>
   </varray>
   <i name="volume">   3632.42828475 </i>
   <varray name="rec_basis" >
    <v>       0.04558516      -0.05261718       0.00000884 </v>
    <v>      -0.04557998      -0.00000485       0.05741007 </v>
    <v>      -0.02278050      -0.02628868      -0.05739990 </v>
   </varray>
  </crystal>
  <varray name="positions" >
   <v>       0.24961500       0.25116000       0.87474750 </v>
   <v>       0.37462500       0.12471000       0.81183750 </v>
   <v>       0.06264000       0.31198500       0.84450000 </v>
   <v>       0.06345000       0.06286500       0.59341500 </v>
   <v>       0.43715000       0.43626500       0.65842500 </v>
   <v>       0.18774000       0.43608000       0.53137000 </v>
   <v>       0.43778500       0.19000000       0.40508750 </v>
   <v>       0.27102000       0.31327500       0.69738000 </v>
   <v>       0.39571500       0.18779500       0.63473250 </v>
   <v>       0.02156000       0.06211500       0.82305500 </v>
   <v>       0.08285000       0.37426000       0.66685000 </v>
   <v>       0.33244500       0.12499000       0.54249250 </v>
   <v>       0.27037500       0.06213000       0.44856250 </v>
   <v>       0.08317500       0.12555000       0.91594750 </v>
   <v>       0.45837000       0.49946000       0.47964000 </v>
   <v>       0.20886500       0.49992000       0.85301250 </v>
   <v>       0.24961500       0.75116000       0.87474750 </v>
   <v>       0.37462500       0.62471000       0.81183750 </v>
   <v>       0.06264000       0.81198500       0.84450000 </v>
   <v>       0.06345500       0.56286500       0.59341250 </v>
   <v>       0.43715000       0.93626500       0.65843000 </v>
   <v>       0.18774000       0.93608000       0.53136500 </v>
   <v>       0.43778500       0.69000000       0.40508750 </v>
   <v>       0.27102000       0.81327500       0.69738000 </v>
   <v>       0.39571500       0.68779500       0.63473250 </v>
   <v>       0.02156000       0.56211500       0.82305500 </v>
   <v>       0.08285000       0.87426000       0.66685000 </v>
   <v>       0.33244500       0.62499000       0.54249250 </v>
   <v>       0.27037500       0.56213000       0.44856250 </v>
   <v>       0.08317500       0.62555000       0.91594750 </v>
   <v>       0.45837000       0.99946000       0.47964000 </v>
   <v>       0.20886500       0.99992000       0.85301250 </v>
   <v>       0.24961500       0.25116000       0.37474750 </v>
   <v>       0.37462500       0.12471000       0.31183750 </v>
   <v>       0.06264000       0.31198500       0.34450000 </v>
   <v>       0.06345500       0.06286500       0.09341250 </v>
   <v>       0.43715000       0.43626500       0.15842500 </v>
   <v>       0.18774000       0.43608000       0.03137000 </v>
   <v>       0.43778500       0.19000000       0.90508750 </v>
   <v>       0.27102000       0.31327500       0.19738000 </v>
   <v>       0.39571500       0.18779500       0.13473250 </v>
   <v>       0.02156000       0.06211500       0.32305500 </v>
   <v>       0.08285000       0.37426000       0.16685000 </v>
   <v>       0.33244500       0.12499000       0.04249250 </v>
   <v>       0.27037500       0.06213000       0.94856250 </v>
   <v>       0.08317500       0.12555000       0.41594750 </v>
   <v>       0.45837000       0.49946000       0.97964000 </v>
   <v>       0.20886500       0.49992000       0.35301250 </v>
   <v>       0.74961500       0.25116000       0.62474750 </v>
   <v>       0.87462500       0.12471000       0.56183750 </v>
   <v>       0.56264000       0.31198500       0.59450000 </v>
   <v>       0.56345000       0.06286500       0.34341500 </v>
   <v>       0.93715000       0.43626500       0.40842500 </v>
   <v>       0.68774000       0.43608000       0.28137000 </v>
   <v>       0.93778500       0.19000000       0.15508750 </v>
   <v>       0.77102000       0.31327500       0.44738000 </v>
   <v>       0.89571500       0.18779500       0.38473250 </v>
   <v>       0.52156000       0.06211500       0.57305500 </v>
   <v>       0.58285000       0.37426000       0.41685000 </v>
   <v>       0.83244500       0.12499000       0.29249750 </v>
   <v>       0.77037500       0.06213000       0.19856250 </v>
   <v>       0.58317500       0.12555000       0.66594750 </v>
   <v>       0.95837000       0.49946000       0.22964000 </v>
   <v>       0.70886500       0.49992000       0.60301250 </v>
   <v>       0.24961500       0.75116000       0.37474750 </v>
   <v>       0.37462500       0.62471000       0.31183750 </v>
   <v>       0.06264000       0.81198500       0.34450000 </v>
   <v>       0.06345500       0.56286500       0.09341250 </v>
   <v>       0.43715000       0.93626500       0.15842500 </v>
   <v>       0.18774000       0.93608000       0.03137000 </v>
   <v>       0.43778500       0.69000000       0.90508750 </v>
   <v>       0.27102000       0.81327500       0.19738000 </v>
   <v>       0.39571500       0.68779500       0.13473250 </v>
   <v>       0.02156000       0.56211500       0.32305500 </v>
   <v>       0.08285000       0.87426000       0.16685000 </v>
   <v>       0.33244500       0.62499000       0.04249250 </v>
   <v>       0.27037500       0.56213000       0.94856250 </v>
   <v>       0.08317500       0.62555000       0.41594750 </v>
   <v>       0.45837000       0.99946000       0.97964000 </v>
   <v>       0.20886500       0.99992000       0.35301250 </v>
   <v>       0.74961500       0.75116000       0.62474750 </v>
   <v>       0.87462500       0.62471000       0.56183750 </v>
   <v>       0.56264000       0.81198500       0.59450000 </v>
   <v>       0.56345000       0.56286500       0.34341500 </v>
   <v>       0.93715000       0.93626500       0.40842500 </v>
   <v>       0.68774000       0.93608000       0.28136500 </v>
   <v>       0.93778500       0.69000000       0.15508750 </v>
   <v>       0.77102000       0.81327500       0.44738000 </v>
   <v>       0.89571500       0.68779500       0.38473250 </v>
   <v>       0.52156000       0.56211500       0.57305500 </v>
   <v>       0.58285000       0.87426000       0.41685000 </v>
   <v>       0.83244500       0.62499000       0.29249250 </v>
   <v>       0.77037500       0.56213000       0.19856250 </v>
   <v>       0.58317500       0.62555000       0.66594750 </v>
   <v>       0.95837000       0.99946000       0.22964000 </v>
   <v>       0.70886500       0.99992000       0.60301250 </v>
   <v>       0.74961500       0.25116000       0.12474750 </v>
   <v>       0.87462500       0.12471000       0.06183750 </v>
   <v>       0.56264000       0.31198500       0.09450000 </v>
   <v>       0.56555500       0.06286500       0.84446250 </v>
   <v>       0.93715000       0.43626500       0.90842500 </v>
   <v>       0.68774000       0.43608000       0.78137000 </v>
   <v>       0.93778500       0.19000000       0.65508750 </v>
   <v>       0.77102000       0.31327500       0.94738000 </v>
   <v>       0.89571500       0.18779500       0.88473250 </v>
   <v>       0.52156000       0.06211500       0.07305500 </v>
   <v>       0.58285000       0.37426000       0.91685000 </v>
   <v>       0.83244500       0.12499000       0.79249750 </v>
   <v>       0.77037500       0.06213000       0.69856250 </v>
   <v>       0.58317500       0.12555000       0.16594750 </v>
   <v>       0.95837000       0.49946000       0.72964000 </v>
   <v>       0.70886500       0.49992000       0.10301250 </v>
   <v>       0.74961500       0.75116000       0.12474750 </v>
   <v>       0.87462500       0.62471000       0.06183750 </v>
   <v>       0.56264000       0.81198500       0.09450000 </v>
   <v>       0.56345000       0.56286500       0.84341500 </v>
   <v>       0.93715000       0.93626500       0.90843000 </v>
   <v>       0.68774000       0.93608000       0.78137000 </v>
   <v>       0.93778500       0.69000000       0.65508750 </v>
   <v>       0.77102000       0.81327500       0.94738000 </v>
   <v>       0.89571500       0.68779500       0.88473250 </v>
   <v>       0.52156000       0.56211500       0.07305500 </v>
   <v>       0.58285000       0.87426000       0.91685000 </v>
   <v>       0.83244500       0.62499000       0.79249250 </v>
   <v>       0.77037500       0.56213000       0.69856250 </v>
   <v>       0.58317500       0.62555000       0.16594750 </v>
   <v>       0.95837000       0.99946000       0.72964000 </v>
   <v>       0.70886500       0.99992000       0.10301250 </v>
   <v>       0.12552000       0.37374500       0.43878000 </v>
   <v>       0.49955500       0.49856000       0.25097750 </v>
   <v>       0.18753000       0.18756000       0.77992000 </v>
   <v>       0.31234000       0.06179500       0.71926500 </v>
   <v>       0.12523500       0.12622500       0.68665250 </v>
   <v>       0.24965000       0.00016500       0.62632000 </v>
   <v>       0.37544000       0.37420500       0.56234500 </v>
   <v>       0.99989000       0.25085000       0.74831000 </v>
   <v>       0.31230000       0.31346000       0.46828500 </v>
   <v>       0.14612500       0.43832500       0.76050750 </v>
   <v>       0.20830000       0.24878000       0.60429000 </v>
   <v>       0.14574500       0.18778500       0.51141250 </v>
   <v>       0.39572500       0.43673000       0.38531750 </v>
   <v>       0.02141500       0.31227500       0.57284750 </v>
   <v>       0.33289000       0.37625500       0.79155500 </v>
   <v>       0.45828500       0.25070500       0.72884250 </v>
   <v>       0.12552000       0.87374500       0.43878000 </v>
   <v>       0.49955500       0.99856000       0.25097750 </v>
   <v>       0.18753000       0.68756000       0.77992000 </v>
   <v>       0.31234000       0.56179500       0.71926500 </v>
   <v>       0.12523500       0.62622500       0.68665250 </v>
   <v>       0.24965000       0.50016500       0.62632000 </v>
   <v>       0.37544000       0.87420500       0.56234500 </v>
   <v>       0.99989000       0.75085000       0.74831000 </v>
   <v>       0.31230000       0.81346000       0.46828500 </v>
   <v>       0.14612500       0.93832500       0.76050750 </v>
   <v>       0.20830000       0.74878000       0.60429000 </v>
   <v>       0.14574500       0.68778500       0.51141250 </v>
   <v>       0.39572500       0.93673000       0.38531750 </v>
   <v>       0.02141500       0.81227500       0.57284750 </v>
   <v>       0.33289000       0.87625500       0.79155500 </v>
   <v>       0.45828500       0.75070500       0.72884250 </v>
   <v>       0.12552000       0.37374500       0.93878000 </v>
   <v>       0.49955500       0.49856000       0.75097750 </v>
   <v>       0.18753000       0.18756000       0.27992000 </v>
   <v>       0.31234000       0.06179500       0.21926500 </v>
   <v>       0.12523500       0.12622500       0.18665250 </v>
   <v>       0.24965000       0.00016500       0.12632000 </v>
   <v>       0.37544000       0.37420500       0.06234500 </v>
   <v>       0.99989000       0.25085000       0.24831000 </v>
   <v>       0.31230000       0.31346000       0.96828500 </v>
   <v>       0.14612500       0.43832500       0.26050750 </v>
   <v>       0.20830000       0.24878000       0.10429000 </v>
   <v>       0.14574500       0.18778500       0.01141250 </v>
   <v>       0.39572500       0.43673000       0.88531750 </v>
   <v>       0.02141500       0.31227500       0.07284750 </v>
   <v>       0.33289000       0.37625500       0.29155500 </v>
   <v>       0.45828500       0.25070500       0.22884250 </v>
   <v>       0.62552000       0.37374500       0.18878000 </v>
   <v>       0.99955500       0.49856000       0.00097750 </v>
   <v>       0.68753000       0.18756000       0.52992000 </v>
   <v>       0.81234000       0.06179500       0.46926500 </v>
   <v>       0.62523500       0.12622500       0.43665250 </v>
   <v>       0.74965000       0.00016500       0.37632000 </v>
   <v>       0.87544000       0.37420500       0.31234500 </v>
   <v>       0.49989000       0.25085000       0.49831000 </v>
   <v>       0.81230000       0.31346000       0.21828500 </v>
   <v>       0.64612500       0.43832500       0.51050750 </v>
   <v>       0.70830000       0.24878000       0.35429000 </v>
   <v>       0.64574500       0.18778500       0.26141250 </v>
   <v>       0.89572500       0.43673000       0.13531750 </v>
   <v>       0.52141500       0.31227500       0.32284750 </v>
   <v>       0.83289000       0.37625500       0.54155500 </v>
   <v>       0.95828500       0.25070500       0.47884250 </v>
   <v>       0.12552000       0.87374500       0.93878000 </v>
   <v>       0.49955500       0.99856000       0.75097750 </v>
   <v>       0.18753000       0.68756000       0.27992000 </v>
   <v>       0.31234000       0.56179500       0.21926500 </v>
   <v>       0.12523500       0.62622500       0.18665250 </v>
   <v>       0.24965000       0.50016500       0.12632000 </v>
   <v>       0.37544000       0.87420500       0.06234500 </v>
   <v>       0.99989000       0.75085000       0.24831000 </v>
   <v>       0.31230000       0.81346000       0.96828500 </v>
   <v>       0.14612500       0.93832500       0.26050750 </v>
   <v>       0.20830000       0.74878000       0.10429000 </v>
   <v>       0.14574500       0.68778500       0.01141250 </v>
   <v>       0.39572500       0.93673000       0.88531750 </v>
   <v>       0.02141500       0.81227500       0.07284750 </v>
   <v>       0.33289000       0.87625500       0.29155500 </v>
   <v>       0.45828500       0.75070500       0.22884250 </v>
   <v>       0.62552000       0.87374500       0.18878000 </v>
   <v>       0.99955500       0.99856000       0.00097750 </v>
   <v>       0.68753000       0.68756000       0.52992000 </v>
   <v>       0.81234000       0.56179500       0.46926500 </v>
   <v>       0.62523500       0.62622500       0.43665250 </v>
   <v>       0.74965000       0.50016500       0.37632000 </v>
   <v>       0.87544000       0.87420500       0.31234500 </v>
   <v>       0.49989000       0.75085000       0.49831000 </v>
   <v>       0.81230000       0.81346000       0.21828500 </v>
   <v>       0.64612500       0.93832500       0.51050750 </v>
   <v>       0.70830000       0.74878000       0.35429000 </v>
   <v>       0.64574500       0.68778500       0.26141250 </v>
   <v>       0.89572500       0.93673000       0.13531750 </v>
   <v>       0.52141500       0.81227500       0.32284750 </v>
   <v>       0.83289000       0.87625500       0.54155500 </v>
   <v>       0.95828500       0.75070500       0.47884250 </v>
   <v>       0.62552000       0.37374500       0.68878000 </v>
   <v>       0.99955500       0.49856000       0.50097750 </v>
   <v>       0.68753000       0.18756000       0.02992000 </v>
   <v>       0.81234000       0.06179500       0.96926500 </v>
   <v>       0.62523500       0.12622500       0.93665250 </v>
   <v>       0.74965000       0.00016500       0.87632000 </v>
   <v>       0.87544000       0.37420500       0.81234500 </v>
   <v>       0.49989000       0.25085000       0.99831000 </v>
   <v>       0.81230000       0.31346000       0.71828500 </v>
   <v>       0.64612500       0.43832500       0.01050750 </v>
   <v>       0.70830000       0.24878000       0.85429000 </v>
   <v>       0.64574500       0.18778500       0.76141250 </v>
   <v>       0.89572500       0.43673000       0.63531750 </v>
   <v>       0.52141500       0.31227500       0.82284750 </v>
   <v>       0.83289000       0.37625500       0.04155500 </v>
   <v>       0.95828500       0.25070500       0.97884250 </v>
   <v>       0.62552000       0.87374500       0.68878000 </v>
   <v>       0.99955500       0.99856000       0.50097750 </v>
   <v>       0.68753000       0.68756000       0.02992000 </v>
   <v>       0.81234000       0.56179500       0.96926500 </v>
   <v>       0.62523500       0.62622500       0.93665250 </v>
   <v>       0.74965000       0.50016500       0.87632000 </v>
   <v>       0.87544000       0.87420500       0.81234500 </v>
   <v>       0.49989000       0.75085000       0.99831000 </v>
   <v>       0.81230000       0.81346000       0.71828500 </v>
   <v>       0.64612500       0.93832500       0.01050750 </v>
   <v>       0.70830000       0.74878000       0.85429000 </v>
   <v>       0.64574500       0.68778500       0.76141250 </v>
   <v>       0.89572500       0.93673000       0.63531750 </v>
   <v>       0.52141500       0.81227500       0.82284750 </v>
   <v>       0.83289000       0.87625500       0.04155500 </v>
   <v>       0.95828500       0.75070500       0.97884250 </v>
  </varray>
 </structure>
 <calculation>
  <scstep>
   <time name="diag">   66.80   67.80</time>
   <time name="diis">  157.74  161.01</time>
   <time name="orth">   21.89   22.20</time>
   <time name="total">  246.71  251.28</time>
   <energy>
    <i name="alphaZ">  17820.12086445 </i>
    <i name="ewald">-159083.08292062 </i>
    <i name="hartreedc"> -10366.71107002 </i>
    <i name="XCdc">  -6287.82612477 </i>
    <i name="pawpsdc"> 107387.23103886 </i>
    <i name="pawaedc"> -95870.62587529 </i>
    <i name="eentropy">      0.02554458 </i>
    <i name="bandstr">  30145.79833551 </i>
    <i name="atom"> 129934.13886476 </i>
    <i name="e_fr_energy">  13679.06865746 </i>
    <i name="e_wo_entrp">  13679.04311288 </i>
    <i name="e_0_energy">  13679.06014260 </i>
   </energy>
  </scstep>
  <scstep>
   <time name="diag">   67.55   68.73</time>
   <time name="diis">  157.78  160.74</time>
   <time name="orth">   21.90   22.05</time>
   <time name="total">  247.24  251.54</time>
   <energy>
    <i name="e_fr_energy">   1313.33002430 </i>
    <i name="e_wo_entrp">   1313.32402008 </i>
    <i name="e_0_energy">   1313.32802289 </i>
   </energy>
  </scstep>
  <scstep>
   <time name="diag">   67.33   68.54</time>
   <time name="diis">  158.01  160.38</time>
   <time name="orth">   22.32   22.68</time>
   <time name="total">  247.67  251.61</time>
   <energy>
    <i name="e_fr_energy">  -1045.65885704 </i>
    <i name="e_wo_entrp">  -1045.67872297 </i>
    <i name="e_0_energy">  -1045.66547902 </i>
   </energy>
  </scstep>
  <scstep>
   <time name="diag">   67.51   68.70</time>
   <time name="diis">  158.29  160.78</time>
   <time name="orth">   22.01   22.53</time>
   <time name="total">  247.82  252.02</time>
   <energy>
    <i name="e_fr_energy">  -1845.99911878 </i>
    <i name="e_wo_entrp">  -1845.98623115 </i>
    <i name="e_0_energy">  -1845.99482290 </i>
   </energy>
  </scstep>
  <scstep>
   <time name="diag">   67.31   68.36</time>
   <time name="diis">  158.23  160.67</time>
   <time name="orth">   22.00   22.31</time>
   <time name="total">  247.56  251.35</time>
   <energy>
    <i name="e_fr_energy">  -2129.10861380 </i>
    <i name="e_wo_entrp">  -2129.11107264 </i>
    <i name="e_0_energy">  -2129.10943341 </i>
   </energy>
  </scstep>
  <scstep>
   <time name="diag">   67.43   68.43</time>
   <time name="diis">  157.80  160.67</time>
   <time name="orth">   21.96   22.30</time>
   <time name="total">  247.21  251.41</time>
   <energy>
    <i name="e_fr_energy">  -2274.82342667 </i>
    <i name="e_wo_entrp">  -2274.82835335 </i>
    <i name="e_0_energy">  -2274.82506890 </i>
   </energy>
  </scstep>
  <scstep>
   <time name="diag">   67.20   68.67</time>
   <time name="diis">  157.75  161.07</time>
   <time name="orth">   21.83   22.03</time>
   <time name="total">  246.80  251.80</time>
   <energy>
    <i name="e_fr_energy">  -2352.68489491 </i>
    <i name="e_wo_entrp">  -2352.69117226 </i>
    <i name="e_0_energy">  -2352.68698736 </i>
   </energy>
  </scstep>
  <scstep>
   <time name="diag">   67.83   69.23</time>
   <time name="diis">  158.12  160.85</time>
   <time name="orth">   22.07   22.57</time>
   <time name="total">  248.03  252.67</time>
   <energy>
    <i name="e_fr_energy">  -2400.18191140 </i>
    <i name="e_wo_entrp">  -2400.18672552 </i>
    <i name="e_0_energy">  -2400.18351611 </i>
   </energy>
  </scstep>
  <scstep>
   <time name="diag">   66.99   68.01</time>
   <time name="diis">  434.87  443.13</time>
   <time name="orth">   21.84   22.04</time>
   <time name="total">  523.71  533.19</time>
   <energy>
    <i name="e_fr_energy">  -2479.07703945 </i>
    <i name="e_wo_entrp">  -2479.06967364 </i>
    <i name="e_0_energy">  -2479.07458418 </i>
   </energy>
  </scstep>
  <scstep>
   <time name="diag">   67.80   69.08</time>
   <time name="diis">  479.24  488.18</time>
   <time name="orth">   21.89   22.23</time>
   <time name="total">  568.94  579.51</time>
   <energy>
    <i name="e_fr_energy">  -2488.63078560 </i>
    <i name="e_wo_entrp">  -2488.61666874 </i>
    <i name="e_0_energy">  -2488.62607998 </i>
   </energy>
  </scstep>
  <scstep>
   <time name="diag">   67.10   68.46</time>
   <time name="diis">  464.45  473.54</time>
   <time name="orth">   22.28   22.81</time>
   <time name="total">  553.84  564.82</time>
   <energy>
    <i name="e_fr_energy">  -2490.87384683 </i>
    <i name="e_wo_entrp">  -2490.86136667 </i>
    <i name="e_0_energy">  -2490.86968678 </i>
   </energy>
  </scstep>
  <scstep>
   <time name="diag">   67.24   68.29</time>
   <time name="diis">  478.66  488.26</time>
   <time name="orth">   21.98   22.14</time>
   <time name="total">  586.17  597.62</time>
   <energy>
    <i name="e_fr_energy">  -2491.17988995 </i>
    <i name="e_wo_entrp">  -2491.16692694 </i>
    <i name="e_0_energy">  -2491.17556894 </i>
   </energy>
  </scstep>
  <scstep>
   <time name="diag">   66.88   68.09</time>
   <time name="diis">  346.92  353.77</time>
   <time name="orth">   21.80   22.09</time>
   <time name="total">  454.36  463.01</time>
   <energy>
    <i name="e_fr_energy">  -2413.60830504 </i>
    <i name="e_wo_entrp">  -2413.60106464 </i>
    <i name="e_0_energy">  -2413.60589157 </i>
   </energy>
  </scstep>
  <scstep>
   <time name="diag">   67.32   68.66</time>
   <time name="diis">  314.35  320.62</time>
   <time name="orth">   22.11   22.49</time>
   <time name="total">  422.13  430.49</time>
   <energy>
    <i name="e_fr_energy">  -2367.77163563 </i>
    <i name="e_wo_entrp">  -2367.77451571 </i>
    <i name="e_0_energy">  -2367.77259566 </i>
   </energy>
  </scstep>
  <scstep>
   <time name="diag">   67.55   68.92</time>
   <time name="diis">  324.66  331.17</time>
   <time name="orth">   21.75   21.97</time>
   <time name="total">  432.25  441.10</time>
   <energy>
    <i name="e_fr_energy">  -2335.60831550 </i>
    <i name="e_wo_entrp">  -2335.60464072 </i>
    <i name="e_0_energy">  -2335.60709057 </i>
   </energy>
  </scstep>
  <scstep>
   <time name="diag">   67.13   68.12</time>
   <time name="diis">  339.11  346.34</time>
   <time name="orth">   22.25   22.67</time>
   <time name="total">  446.92  455.88</time>
   <energy>
    <i name="e_fr_energy">  -2321.31714690 </i>
    <i name="e_wo_entrp">  -2321.31518316 </i>
    <i name="e_0_energy">  -2321.31649232 </i>
   </energy>
  </scstep>
  <scstep>
   <time name="diag">   67.54   68.73</time>
   <time name="diis">  443.87  452.27</time>
   <time name="orth">   21.89   22.03</time>
   <time name="total">  552.00  562.14</time>
   <energy>
    <i name="e_fr_energy">  -2321.48145523 </i>
    <i name="e_wo_entrp">  -2321.48306060 </i>
    <i name="e_0_energy">  -2321.48199035 </i>
   </energy>
  </scstep>
  <scstep>
   <time name="diag">   67.46   68.77</time>
   <time name="diis">  390.75  398.23</time>
   <time name="orth">   21.80   22.10</time>
   <time name="total">  498.82  508.17</time>
   <energy>
    <i name="e_fr_energy">  -2321.12646722 </i>
    <i name="e_wo_entrp">  -2321.12717241 </i>
    <i name="e_0_energy">  -2321.12670229 </i>
   </energy>
  </scstep>
  <scstep>
   <time name="diag">   67.13   68.38</time>
   <time name="diis">  365.55  371.57</time>
   <time name="orth">   21.83   22.12</time>
   <time name="total">  472.86  480.83</time>
   <energy>
    <i name="e_fr_energy">  -2320.74736761 </i>
    <i name="e_wo_entrp">  -2320.74505532 </i>
    <i name="e_0_energy">  -2320.74659685 </i>
   </energy>
  </scstep>
  <scstep>
   <time name="diag">   67.53   68.75</time>
   <time name="diis">  378.67  385.93</time>
   <time name="orth">   21.91   22.15</time>
   <time name="total">  486.55  495.59</time>
   <energy>
    <i name="e_fr_energy">  -2320.68910503 </i>
    <i name="e_wo_entrp">  -2320.68806238 </i>
    <i name="e_0_energy">  -2320.68875748 </i>
   </energy>
  </scstep>
  <scstep>
   <time name="diag">   67.74   68.93</time>
   <time name="diis">  382.59  389.95</time>
   <time name="orth">   21.84   22.03</time>
   <time name="total">  490.78  500.08</time>
   <energy>
    <i name="e_fr_energy">  -2320.65953036 </i>
    <i name="e_wo_entrp">  -2320.65938393 </i>
    <i name="e_0_energy">  -2320.65948155 </i>
   </energy>
  </scstep>
  <scstep>
   <time name="diag">   66.92   67.97</time>
   <time name="diis">  373.49  380.55</time>
   <time name="orth">   22.02   22.41</time>
   <time name="total">  481.27  489.98</time>
   <energy>
    <i name="e_fr_energy">  -2320.63309744 </i>
    <i name="e_wo_entrp">  -2320.63292668 </i>
    <i name="e_0_energy">  -2320.63304052 </i>
   </energy>
  </scstep>
  <scstep>
   <time name="diag">   67.63   68.89</time>
   <time name="diis">  402.77  409.84</time>
   <time name="orth">   22.15   22.62</time>
   <time name="total">  511.02  520.12</time>
   <energy>
    <i name="e_fr_energy">  -2320.62834040 </i>
    <i name="e_wo_entrp">  -2320.62811708 </i>
    <i name="e_0_energy">  -2320.62826596 </i>
   </energy>
  </scstep>
  <scstep>
   <time name="diag">   67.37   68.67</time>
   <time name="diis">  385.13  392.11</time>
   <time name="orth">   22.06   22.39</time>
   <time name="total">  493.21  502.25</time>
   <energy>
    <i name="e_fr_energy">  -2320.62523697 </i>
    <i name="e_wo_entrp">  -2320.62496280 </i>
    <i name="e_0_energy">  -2320.62514558 </i>
   </energy>
  </scstep>
  <scstep>
   <time name="diag">   67.36   68.52</time>
   <time name="diis">  400.81  408.96</time>
   <time name="orth">   22.00   22.56</time>
   <time name="total">  508.77  519.14</time>
   <energy>
    <i name="e_fr_energy">  -2320.62620235 </i>
    <i name="e_wo_entrp">  -2320.62588547 </i>
    <i name="e_0_energy">  -2320.62609673 </i>
   </energy>
  </scstep>
  <scstep>
   <time name="diag">   67.23   68.49</time>
   <time name="diis">  453.18  461.35</time>
   <time name="orth">   22.34   22.75</time>
   <time name="total">  561.68  571.76</time>
   <energy>
    <i name="e_fr_energy">  -2320.62630292 </i>
    <i name="e_wo_entrp">  -2320.62597958 </i>
    <i name="e_0_energy">  -2320.62619514 </i>
   </energy>
  </scstep>
  <scstep>
   <time name="diag">   67.26   68.53</time>
   <time name="diis">  367.63  374.05</time>
   <time name="orth">   21.73   21.94</time>
   <time name="total">  475.12  483.43</time>
   <energy>
    <i name="e_fr_energy">  -2320.62539795 </i>
    <i name="e_wo_entrp">  -2320.62509266 </i>
    <i name="e_0_energy">  -2320.62529618 </i>
   </energy>
  </scstep>
  <scstep>
   <time name="diag">   67.39   68.53</time>
   <time name="diis">  388.06  395.38</time>
   <time name="orth">   22.14   22.65</time>
   <time name="total">  496.06  505.28</time>
   <energy>
    <i name="e_fr_energy">  -2320.62484789 </i>
    <i name="e_wo_entrp">  -2320.62457518 </i>
    <i name="e_0_energy">  -2320.62475699 </i>
   </energy>
  </scstep>
  <scstep>
   <time name="diag">   67.48   68.83</time>
   <time name="diis">  425.77  434.33</time>
   <time name="orth">   21.82   22.02</time>
   <time name="total">  515.34  525.45</time>
   <energy>
    <i name="alphaZ">  17820.12086445 </i>
    <i name="ewald">-159083.08292062 </i>
    <i name="hartreedc">  -7962.14478078 </i>
    <i name="XCdc">  -6307.35463812 </i>
    <i name="pawpsdc"> 121925.25467970 </i>
    <i name="pawaedc">-111099.17940202 </i>
    <i name="eentropy">     -0.00025997 </i>
    <i name="bandstr">  12451.62284270 </i>
    <i name="atom"> 129934.13886476 </i>
    <i name="e_fr_energy">  -2320.62474989 </i>
    <i name="e_wo_entrp">  -2320.62448992 </i>
    <i name="e_0_energy">  -2320.62466324 </i>
   </energy>
  </scstep>
  <structure>
   <crystal>
    <varray name="basis" >
     <v>       5.48320000     -14.25407000       4.35211000 </v>
     <v>     -10.97158000      -9.50382000       8.70700000 </v>
     <v>     -10.97268000      -9.50770000      -8.71242000 </v>
    </varray>
    <i name="volume">   3632.42828475 </i>
    <varray name="rec_basis" >
     <v>       0.04558516      -0.05261718       0.00000884 </v>
     <v>      -0.04557998      -0.00000485       0.05741007 </v>
     <v>      -0.02278050      -0.02628868      -0.05739990 </v>
    </varray>
   </crystal>
   <varray name="positions" >
    <v>       0.24961500       0.25116000       0.87474750 </v>
    <v>       0.37462500       0.12471000       0.81183750 </v>
    <v>       0.06264000       0.31198500       0.84450000 </v>
    <v>       0.06345000       0.06286500       0.59341500 </v>
    <v>       0.43715000       0.43626500       0.65842500 </v>
    <v>       0.18774000       0.43608000       0.53137000 </v>
    <v>       0.43778500       0.19000000       0.40508750 </v>
    <v>       0.27102000       0.31327500       0.69738000 </v>
    <v>       0.39571500       0.18779500       0.63473250 </v>
    <v>       0.02156000       0.06211500       0.82305500 </v>
    <v>       0.08285000       0.37426000       0.66685000 </v>
    <v>       0.33244500       0.12499000       0.54249250 </v>
    <v>       0.27037500       0.06213000       0.44856250 </v>
    <v>       0.08317500       0.12555000       0.91594750 </v>
    <v>       0.45837000       0.49946000       0.47964000 </v>
    <v>       0.20886500       0.49992000       0.85301250 </v>
    <v>       0.24961500       0.75116000       0.87474750 </v>
    <v>       0.37462500       0.62471000       0.81183750 </v>
    <v>       0.06264000       0.81198500       0.84450000 </v>
    <v>       0.06345500       0.56286500       0.59341250 </v>
    <v>       0.43715000       0.93626500       0.65843000 </v>
    <v>       0.18774000       0.93608000       0.53136500 </v>
    <v>       0.43778500       0.69000000       0.40508750 </v>
    <v>       0.27102000       0.81327500       0.69738000 </v>
    <v>       0.39571500       0.68779500       0.63473250 </v>
    <v>       0.02156000       0.56211500       0.82305500 </v>
    <v>       0.08285000       0.87426000       0.66685000 </v>
    <v>       0.33244500       0.62499000       0.54249250 </v>
    <v>       0.27037500       0.56213000       0.44856250 </v>
    <v>       0.08317500       0.62555000       0.91594750 </v>
    <v>       0.45837000       0.99946000       0.47964000 </v>
    <v>       0.20886500       0.99992000       0.85301250 </v>
    <v>       0.24961500       0.25116000       0.37474750 </v>
    <v>       0.37462500       0.12471000       0.31183750 </v>
    <v>       0.06264000       0.31198500       0.34450000 </v>
    <v>       0.06345500       0.06286500       0.09341250 </v>
    <v>       0.43715000       0.43626500       0.15842500 </v>
    <v>       0.18774000       0.43608000       0.03137000 </v>
    <v>       0.43778500       0.19000000       0.90508750 </v>
    <v>       0.27102000       0.31327500       0.19738000 </v>
    <v>       0.39571500       0.18779500       0.13473250 </v>
    <v>       0.02156000       0.06211500       0.32305500 </v>
    <v>       0.08285000       0.37426000       0.16685000 </v>
    <v>       0.33244500       0.12499000       0.04249250 </v>
    <v>       0.27037500       0.06213000       0.94856250 </v>
    <v>       0.08317500       0.12555000       0.41594750 </v>
    <v>       0.45837000       0.49946000       0.97964000 </v>
    <v>       0.20886500       0.49992000       0.35301250 </v>
    <v>       0.74961500       0.25116000       0.62474750 </v>
    <v>       0.87462500       0.12471000       0.56183750 </v>
    <v>       0.56264000       0.31198500       0.59450000 </v>
    <v>       0.56345000       0.06286500       0.34341500 </v>
    <v>       0.93715000       0.43626500       0.40842500 </v>
    <v>       0.68774000       0.43608000       0.28137000 </v>
    <v>       0.93778500       0.19000000       0.15508750 </v>
    <v>       0.77102000       0.31327500       0.44738000 </v>
    <v>       0.89571500       0.18779500       0.38473250 </v>
    <v>       0.52156000       0.06211500       0.57305500 </v>
    <v>       0.58285000       0.37426000       0.41685000 </v>
    <v>       0.83244500       0.12499000       0.29249750 </v>
    <v>       0.77037500       0.06213000       0.19856250 </v>
    <v>       0.58317500       0.12555000       0.66594750 </v>
    <v>       0.95837000       0.49946000       0.22964000 </v>
    <v>       0.70886500       0.49992000       0.60301250 </v>
    <v>       0.24961500       0.75116000       0.37474750 </v>
    <v>       0.37462500       0.62471000       0.31183750 </v>
    <v>       0.06264000       0.81198500       0.34450000 </v>
    <v>       0.06345500       0.56286500       0.09341250 </v>
    <v>       0.43715000       0.93626500       0.15842500 </v>
    <v>       0.18774000       0.93608000       0.03137000 </v>
    <v>       0.43778500       0.69000000       0.90508750 </v>
    <v>       0.27102000       0.81327500       0.19738000 </v>
    <v>       0.39571500       0.68779500       0.13473250 </v>
    <v>       0.02156000       0.56211500       0.32305500 </v>
    <v>       0.08285000       0.87426000       0.16685000 </v>
    <v>       0.33244500       0.62499000       0.04249250 </v>
    <v>       0.27037500       0.56213000       0.94856250 </v>
    <v>       0.08317500       0.62555000       0.41594750 </v>
    <v>       0.45837000       0.99946000       0.97964000 </v>
    <v>       0.20886500       0.99992000       0.35301250 </v>
    <v>       0.74961500       0.75116000       0.62474750 </v>
    <v>       0.87462500       0.62471000       0.56183750 </v>
    <v>       0.56264000       0.81198500       0.59450000 </v>
    <v>       0.56345000       0.56286500       0.34341500 </v>
    <v>       0.93715000       0.93626500       0.40842500 </v>
    <v>       0.68774000       0.93608000       0.28136500 </v>
    <v>       0.93778500       0.69000000       0.15508750 </v>
    <v>       0.77102000       0.81327500       0.44738000 </v>
    <v>       0.89571500       0.68779500       0.38473250 </v>
    <v>       0.52156000       0.56211500       0.57305500 </v>
    <v>       0.58285000       0.87426000       0.41685000 </v>
    <v>       0.83244500       0.62499000       0.29249250 </v>
    <v>       0.77037500       0.56213000       0.19856250 </v>
    <v>       0.58317500       0.62555000       0.66594750 </v>
    <v>       0.95837000       0.99946000       0.22964000 </v>
    <v>       0.70886500       0.99992000       0.60301250 </v>
    <v>       0.74961500       0.25116000       0.12474750 </v>
    <v>       0.87462500       0.12471000       0.06183750 </v>
    <v>       0.56264000       0.31198500       0.09450000 </v>
    <v>       0.56555500       0.06286500       0.84446250 </v>
    <v>       0.93715000       0.43626500       0.90842500 </v>
    <v>       0.68774000       0.43608000       0.78137000 </v>
    <v>       0.93778500       0.19000000       0.65508750 </v>
    <v>       0.77102000       0.31327500       0.94738000 </v>
    <v>       0.89571500       0.18779500       0.88473250 </v>
    <v>       0.52156000       0.06211500       0.07305500 </v>
    <v>       0.58285000       0.37426000       0.91685000 </v>
    <v>       0.83244500       0.12499000       0.79249750 </v>
    <v>       0.77037500       0.06213000       0.69856250 </v>
    <v>       0.58317500       0.12555000       0.16594750 </v>
    <v>       0.95837000       0.49946000       0.72964000 </v>
    <v>       0.70886500       0.49992000       0.10301250 </v>
    <v>       0.74961500       0.75116000       0.12474750 </v>
    <v>       0.87462500       0.62471000       0.06183750 </v>
    <v>       0.56264000       0.81198500       0.09450000 </v>
    <v>       0.56345000       0.56286500       0.84341500 </v>
    <v>       0.93715000       0.93626500       0.90843000 </v>
    <v>       0.68774000       0.93608000       0.78137000 </v>
    <v>       0.93778500       0.69000000       0.65508750 </v>
    <v>       0.77102000       0.81327500       0.94738000 </v>
    <v>       0.89571500       0.68779500       0.88473250 </v>
    <v>       0.52156000       0.56211500       0.07305500 </v>
    <v>       0.58285000       0.87426000       0.91685000 </v>
    <v>       0.83244500       0.62499000       0.79249250 </v>
    <v>       0.77037500       0.56213000       0.69856250 </v>
    <v>       0.58317500       0.62555000       0.16594750 </v>
    <v>       0.95837000       0.99946000       0.72964000 </v>
    <v>       0.70886500       0.99992000       0.10301250 </v>
    <v>       0.12552000       0.37374500       0.43878000 </v>
    <v>       0.49955500       0.49856000       0.25097750 </v>
    <v>       0.18753000       0.18756000       0.77992000 </v>
    <v>       0.31234000       0.06179500       0.71926500 </v>
    <v>       0.12523500       0.12622500       0.68665250 </v>
    <v>       0.24965000       0.00016500       0.62632000 </v>
    <v>       0.37544000       0.37420500       0.56234500 </v>
    <v>       0.99989000       0.25085000       0.74831000 </v>
    <v>       0.31230000       0.31346000       0.46828500 </v>
    <v>       0.14612500       0.43832500       0.76050750 </v>
    <v>       0.20830000       0.24878000       0.60429000 </v>
    <v>       0.14574500       0.18778500       0.51141250 </v>
    <v>       0.39572500       0.43673000       0.38531750 </v>
    <v>       0.02141500       0.31227500       0.57284750 </v>
    <v>       0.33289000       0.37625500       0.79155500 </v>
    <v>       0.45828500       0.25070500       0.72884250 </v>
    <v>       0.12552000       0.87374500       0.43878000 </v>
    <v>       0.49955500       0.99856000       0.25097750 </v>
    <v>       0.18753000       0.68756000       0.77992000 </v>
    <v>       0.31234000       0.56179500       0.71926500 </v>
    <v>       0.12523500       0.62622500       0.68665250 </v>
    <v>       0.24965000       0.50016500       0.62632000 </v>
    <v>       0.37544000       0.87420500       0.56234500 </v>
    <v>       0.99989000       0.75085000       0.74831000 </v>
    <v>       0.31230000       0.81346000       0.46828500 </v>
    <v>       0.14612500       0.93832500       0.76050750 </v>
    <v>       0.20830000       0.74878000       0.60429000 </v>
    <v>       0.14574500       0.68778500       0.51141250 </v>
    <v>       0.39572500       0.93673000       0.38531750 </v>
    <v>       0.02141500       0.81227500       0.57284750 </v>
    <v>       0.33289000       0.87625500       0.79155500 </v>
    <v>       0.45828500       0.75070500       0.72884250 </v>
    <v>       0.12552000       0.37374500       0.93878000 </v>
    <v>       0.49955500       0.49856000       0.75097750 </v>
    <v>       0.18753000       0.18756000       0.27992000 </v>
    <v>       0.31234000       0.06179500       0.21926500 </v>
    <v>       0.12523500       0.12622500       0.18665250 </v>
    <v>       0.24965000       0.00016500       0.12632000 </v>
    <v>       0.37544000       0.37420500       0.06234500 </v>
    <v>       0.99989000       0.25085000       0.24831000 </v>
    <v>       0.31230000       0.31346000       0.96828500 </v>
    <v>       0.14612500       0.43832500       0.26050750 </v>
    <v>       0.20830000       0.24878000       0.10429000 </v>
    <v>       0.14574500       0.18778500       0.01141250 </v>
    <v>       0.39572500       0.43673000       0.88531750 </v>
    <v>       0.02141500       0.31227500       0.07284750 </v>
    <v>       0.33289000       0.37625500       0.29155500 </v>
    <v>       0.45828500       0.25070500       0.22884250 </v>
    <v>       0.62552000       0.37374500       0.18878000 </v>
    <v>       0.99955500       0.49856000       0.00097750 </v>
    <v>       0.68753000       0.18756000       0.52992000 </v>
    <v>       0.81234000       0.06179500       0.46926500 </v>
    <v>       0.62523500       0.12622500       0.43665250 </v>
    <v>       0.74965000       0.00016500       0.37632000 </v>
    <v>       0.87544000       0.37420500       0.31234500 </v>
    <v>       0.49989000       0.25085000       0.49831000 </v>
    <v>       0.81230000       0.31346000       0.21828500 </v>
    <v>       0.64612500       0.43832500       0.51050750 </v>
    <v>       0.70830000       0.24878000       0.35429000 </v>
    <v>       0.64574500       0.18778500       0.26141250 </v>
    <v>       0.89572500       0.43673000       0.13531750 </v>
    <v>       0.52141500       0.31227500       0.32284750 </v>
    <v>       0.83289000       0.37625500       0.54155500 </v>
    <v>       0.95828500       0.25070500       0.47884250 </v>
    <v>       0.12552000       0.87374500       0.93878000 </v>
    <v>       0.49955500       0.99856000       0.75097750 </v>
    <v>       0.18753000       0.68756000       0.27992000 </v>
    <v>       0.31234000       0.56179500       0.21926500 </v>
    <v>       0.12523500       0.62622500       0.18665250 </v>
    <v>       0.24965000       0.50016500       0.12632000 </v>
    <v>       0.37544000       0.87420500       0.06234500 </v>
    <v>       0.99989000       0.75085000       0.24831000 </v>
    <v>       0.31230000       0.81346000       0.96828500 </v>
    <v>       0.14612500       0.93832500       0.26050750 </v>
    <v>       0.20830000       0.74878000       0.10429000 </v>
    <v>       0.14574500       0.68778500       0.01141250 </v>
    <v>       0.39572500       0.93673000       0.88531750 </v>
    <v>       0.02141500       0.81227500       0.07284750 </v>
    <v>       0.33289000       0.87625500       0.29155500 </v>
    <v>       0.45828500       0.75070500       0.22884250 </v>
    <v>       0.62552000       0.87374500       0.18878000 </v>
    <v>       0.99955500       0.99856000       0.00097750 </v>
    <v>       0.68753000       0.68756000       0.52992000 </v>
    <v>       0.81234000       0.56179500       0.46926500 </v>
    <v>       0.62523500       0.62622500       0.43665250 </v>
    <v>       0.74965000       0.50016500       0.37632000 </v>
    <v>       0.87544000       0.87420500       0.31234500 </v>
    <v>       0.49989000       0.75085000       0.49831000 </v>
    <v>       0.81230000       0.81346000       0.21828500 </v>
    <v>       0.64612500       0.93832500       0.51050750 </v>
    <v>       0.70830000       0.74878000       0.35429000 </v>
    <v>       0.64574500       0.68778500       0.26141250 </v>
    <v>       0.89572500       0.93673000       0.13531750 </v>
    <v>       0.52141500       0.81227500       0.32284750 </v>
    <v>       0.83289000       0.87625500       0.54155500 </v>
    <v>       0.95828500       0.75070500       0.47884250 </v>
    <v>       0.62552000       0.37374500       0.68878000 </v>
    <v>       0.99955500       0.49856000       0.50097750 </v>
    <v>       0.68753000       0.18756000       0.02992000 </v>
    <v>       0.81234000       0.06179500       0.96926500 </v>
    <v>       0.62523500       0.12622500       0.93665250 </v>
    <v>       0.74965000       0.00016500       0.87632000 </v>
    <v>       0.87544000       0.37420500       0.81234500 </v>
    <v>       0.49989000       0.25085000       0.99831000 </v>
    <v>       0.81230000       0.31346000       0.71828500 </v>
    <v>       0.64612500       0.43832500       0.01050750 </v>
    <v>       0.70830000       0.24878000       0.85429000 </v>
    <v>       0.64574500       0.18778500       0.76141250 </v>
    <v>       0.89572500       0.43673000       0.63531750 </v>
    <v>       0.52141500       0.31227500       0.82284750 </v>
    <v>       0.83289000       0.37625500       0.04155500 </v>
    <v>       0.95828500       0.25070500       0.97884250 </v>
    <v>       0.62552000       0.87374500       0.68878000 </v>
    <v>       0.99955500       0.99856000       0.50097750 </v>
    <v>       0.68753000       0.68756000       0.02992000 </v>
    <v>       0.81234000       0.56179500       0.96926500 </v>
    <v>       0.62523500       0.62622500       0.93665250 </v>
    <v>       0.74965000       0.50016500       0.87632000 </v>
    <v>       0.87544000       0.87420500       0.81234500 </v>
    <v>       0.49989000       0.75085000       0.99831000 </v>
    <v>       0.81230000       0.81346000       0.71828500 </v>
    <v>       0.64612500       0.93832500       0.01050750 </v>
    <v>       0.70830000       0.74878000       0.85429000 </v>
    <v>       0.64574500       0.68778500       0.76141250 </v>
    <v>       0.89572500       0.93673000       0.63531750 </v>
    <v>       0.52141500       0.81227500       0.82284750 </v>
    <v>       0.83289000       0.87625500       0.04155500 </v>
    <v>       0.95828500       0.75070500       0.97884250 </v>
   </varray>
  </structure>
  <varray name="forces" >
   <v>       0.00155577       0.00168374       0.01238482 </v>
   <v>       0.03796313      -0.04853304       0.00070088 </v>
   <v>      -0.00251563       0.01992057       0.00094056 </v>
   <v>       0.01239220       0.00746652      -0.00266237 </v>
   <v>      -0.00017853       0.01523607      -0.00550091 </v>
   <v>      -0.00901969       0.00321315      -0.00220576 </v>
   <v>      -0.00009104       0.00539079       0.00536763 </v>
   <v>       0.00352738      -0.02104360      -0.00293237 </v>
   <v>      -0.00262948      -0.02770465      -0.02168995 </v>
   <v>      -0.01014158      -0.00122001      -0.00409451 </v>
   <v>       0.00855824      -0.00698963       0.00095202 </v>
   <v>      -0.00995432      -0.00525269      -0.00281185 </v>
   <v>       0.00411670      -0.00764886       0.00447404 </v>
   <v>       0.00116867      -0.02027995      -0.00119886 </v>
   <v>      -0.00426765       0.00051094       0.00289788 </v>
   <v>       0.01241466      -0.01137345       0.00303965 </v>
   <v>      -0.00111142       0.01174573       0.01225337 </v>
   <v>      -0.00837517       0.00085765       0.00072079 </v>
   <v>      -0.00278603       0.02045439       0.00036963 </v>
   <v>       0.01116396       0.00870681      -0.00413669 </v>
   <v>      -0.01001025       0.00049676      -0.00585966 </v>
   <v>      -0.01006176       0.00113076      -0.00292013 </v>
   <v>      -0.00089890       0.00043400       0.00625017 </v>
   <v>      -0.00041698      -0.01575980      -0.00332039 </v>
   <v>      -0.00420350      -0.01125562      -0.00011016 </v>
   <v>      -0.01142332      -0.00482637      -0.00129559 </v>
   <v>       0.01196529      -0.00693530       0.00087424 </v>
   <v>      -0.01027848      -0.00646484      -0.00266445 </v>
   <v>       0.00336626      -0.00639993       0.00408675 </v>
   <v>       0.00417084      -0.01969704      -0.00082215 </v>
   <v>      -0.00259846       0.00049650       0.00202425 </v>
   <v>       0.01315857      -0.01045186       0.00272080 </v>
   <v>      -0.00155605       0.01066901       0.01177617 </v>
   <v>      -0.00896353       0.00059115       0.00001357 </v>
   <v>      -0.00150152       0.01853676       0.00092796 </v>
   <v>       0.01132284       0.00807296      -0.00238793 </v>
   <v>      -0.00205632       0.01477242      -0.00663125 </v>
   <v>      -0.00822494       0.00096686      -0.00196446 </v>
   <v>      -0.01490718       0.00374565       0.00286232 </v>
   <v>       0.00063803      -0.01660187      -0.00202824 </v>
   <v>      -0.00255544      -0.01036004      -0.00136145 </v>
   <v>      -0.01113545      -0.00539144      -0.00218468 </v>
   <v>       0.01213680      -0.00547525       0.00009667 </v>
   <v>      -0.00940589      -0.00728871       0.00023752 </v>
   <v>       0.00772318      -0.01272693       0.00320896 </v>
   <v>       0.00328106      -0.01879904      -0.00062912 </v>
   <v>      -0.00385658       0.00089666       0.00156489 </v>
   <v>       0.01351086      -0.01137373       0.00321895 </v>
   <v>       0.00326655       0.00585906       0.01157776 </v>
   <v>      -0.00930409       0.00212473      -0.00005633 </v>
   <v>      -0.00146768       0.01733437      -0.00047788 </v>
   <v>       0.01118964       0.00844445      -0.00401897 </v>
   <v>       0.00050683       0.01443112      -0.00585291 </v>
   <v>      -0.00950504      -0.00146494      -0.00196613 </v>
   <v>      -0.00016888       0.00420988       0.00440613 </v>
   <v>       0.00287466      -0.01369928      -0.00018086 </v>
   <v>      -0.00347333      -0.01317489      -0.00078091 </v>
   <v>      -0.01557382      -0.01163017       0.00001768 </v>
   <v>       0.01136121      -0.00558908       0.00107538 </v>
   <v>      -0.00871442      -0.00594709      -0.00325193 </v>
   <v>       0.00470939      -0.00431921       0.00408306 </v>
   <v>      -0.03024413      -0.03497109      -0.04152577 </v>
   <v>      -0.00385488       0.00089056       0.00241071 </v>
   <v>       0.01469051      -0.00980341       0.00110935 </v>
   <v>      -0.00102928       0.01174097       0.01183916 </v>
   <v>      -0.00883064       0.00094337       0.00072421 </v>
   <v>      -0.00143321       0.01900431       0.00052825 </v>
   <v>       0.01198672       0.00882620      -0.00308000 </v>
   <v>      -0.00077121       0.01560076      -0.00934072 </v>
   <v>      -0.00936923       0.00255609      -0.00287223 </v>
   <v>       0.00031860       0.00486056       0.00398537 </v>
   <v>      -0.00095106      -0.01490805      -0.00348897 </v>
   <v>      -0.00320103      -0.01289510       0.00365137 </v>
   <v>      -0.01127380      -0.00562898      -0.00181987 </v>
   <v>       0.01134825      -0.00650804       0.00061370 </v>
   <v>      -0.00947505      -0.00605365      -0.00363542 </v>
   <v>       0.00459077      -0.00757846       0.00331975 </v>
   <v>       0.00302733      -0.01972159      -0.00026023 </v>
   <v>       0.03127204      -0.00970421       0.03926356 </v>
   <v>       0.01409204      -0.01152851       0.00267359 </v>
   <v>       0.00020271       0.01192763       0.01211291 </v>
   <v>      -0.00869081       0.00129097       0.00089578 </v>
   <v>       0.00036219       0.02025730       0.00075803 </v>
   <v>       0.01281865       0.00772929      -0.00258231 </v>
   <v>      -0.00191757       0.01655218      -0.00546843 </v>
   <v>      -0.00711019       0.00220429      -0.00257944 </v>
   <v>      -0.00283914       0.00531729       0.00502222 </v>
   <v>      -0.00027431      -0.01543374      -0.00273371 </v>
   <v>      -0.00347446      -0.01196734      -0.00321924 </v>
   <v>      -0.01344026      -0.00268425       0.00035150 </v>
[...]
       <r>    11.0048    -0.6708  2637.1163 </r>
       <r>    11.0567    -0.0917  2637.1116 </r>
       <r>    11.1086    -0.0085  2637.1111 </r>
       <r>    11.1605    -0.0006  2637.1111 </r>
       <r>    11.2123    -0.0000  2637.1111 </r>
       <r>    11.2642    -0.0000  2637.1111 </r>
       <r>    11.3161    -0.0000  2637.1111 </r>
       <r>    11.3680    -0.0000  2637.1111 </r>
       <r>    11.4199    -0.0000  2637.1111 </r>
       <r>    11.4718    -0.0000  2637.1111 </r>
       <r>    11.5236    -0.0000  2637.1111 </r>
       <r>    11.5755    -0.0000  2637.1111 </r>
       <r>    11.6274    -0.0000  2637.1111 </r>
       <r>    11.6793    -0.0005  2637.1111 </r>
       <r>    11.7312    -0.0060  2637.1108 </r>
       <r>    11.7831    -0.0410  2637.1086 </r>
       <r>    11.8349    -0.1216  2637.1023 </r>
       <r>    11.8868     0.0306  2637.1039 </r>
       <r>    11.9387     1.0414  2637.1580 </r>
       <r>    11.9906     2.4028  2637.2826 </r>
       <r>    12.0425     2.3998  2637.4071 </r>
       <r>    12.0944     1.3749  2637.4785 </r>
       <r>    12.1462     0.8200  2637.5210 </r>
       <r>    12.1981     0.7379  2637.5593 </r>
       <r>    12.2500     1.1260  2637.6177 </r>
       <r>    12.3019     2.1460  2637.7291 </r>
       <r>    12.3538     3.3112  2637.9009 </r>
       <r>    12.4057     3.6965  2638.0926 </r>
       <r>    12.4575     2.9532  2638.2459 </r>
       <r>    12.5094     2.0370  2638.3515 </r>
       <r>    12.5613     2.0502  2638.4579 </r>
       <r>    12.6132     2.8445  2638.6055 </r>
       <r>    12.6651     3.6438  2638.7945 </r>
       <r>    12.7170     4.1398  2639.0093 </r>
       <r>    12.7688     3.6811  2639.2003 </r>
       <r>    12.8207     2.5795  2639.3341 </r>
       <r>    12.8726     2.2146  2639.4491 </r>
       <r>    12.9245     2.2174  2639.5641 </r>
       <r>    12.9764     1.7718  2639.6560 </r>
       <r>    13.0283     1.2309  2639.7199 </r>
       <r>    13.0801     0.8069  2639.7617 </r>
       <r>    13.1320     0.5807  2639.7919 </r>
       <r>    13.1839     0.8491  2639.8359 </r>
       <r>    13.2358     1.2256  2639.8995 </r>
       <r>    13.2877     1.1851  2639.9610 </r>
       <r>    13.3396     0.6884  2639.9967 </r>
       <r>    13.3914     0.1516  2640.0046 </r>
       <r>    13.4433    -0.0469  2640.0021 </r>
       <r>    13.4952    -0.0333  2640.0004 </r>
       <r>    13.5471    -0.0073  2640.0000 </r>
       <r>    13.5990    -0.0008  2640.0000 </r>
       <r>    13.6508    -0.0000  2640.0000 </r>
       <r>    13.7027    -0.0000  2640.0000 </r>
       <r>    13.7546    -0.0000  2640.0000 </r>
       <r>    13.8065    -0.0000  2640.0000 </r>
       <r>    13.8584    -0.0000  2640.0000 </r>
       <r>    13.9103    -0.0000  2640.0000 </r>
       <r>    13.9621     0.0000  2640.0000 </r>
       <r>    14.0140     0.0000  2640.0000 </r>
       <r>    14.0659     0.0000  2640.0000 </r>
       <r>    14.1178     0.0000  2640.0000 </r>
       <r>    14.1697     0.0000  2640.0000 </r>
       <r>    14.2216     0.0000  2640.0000 </r>
       <r>    14.2734     0.0000  2640.0000 </r>
      </set>
     </set>
    </array>
   </total>
  </dos>
 </calculation>
 <structure name="finalpos" >
  <crystal>
   <varray name="basis" >
    <v>       5.48320000     -14.25407000       4.35211000 </v>
    <v>     -10.97158000      -9.50382000       8.70700000 </v>
    <v>     -10.97268000      -9.50770000      -8.71242000 </v>
   </varray>
   <i name="volume">   3632.42828475 </i>
   <varray name="rec_basis" >
    <v>       0.04558516      -0.05261718       0.00000884 </v>
    <v>      -0.04557998      -0.00000485       0.05741007 </v>
    <v>      -0.02278050      -0.02628868      -0.05739990 </v>
   </varray>
  </crystal>
  <varray name="positions" >
   <v>       0.24961500       0.25116000       0.87474750 </v>
   <v>       0.37462500       0.12471000       0.81183750 </v>
   <v>       0.06264000       0.31198500       0.84450000 </v>
   <v>       0.06345000       0.06286500       0.59341500 </v>
   <v>       0.43715000       0.43626500       0.65842500 </v>
   <v>       0.18774000       0.43608000       0.53137000 </v>
   <v>       0.43778500       0.19000000       0.40508750 </v>
   <v>       0.27102000       0.31327500       0.69738000 </v>
   <v>       0.39571500       0.18779500       0.63473250 </v>
   <v>       0.02156000       0.06211500       0.82305500 </v>
   <v>       0.08285000       0.37426000       0.66685000 </v>
   <v>       0.33244500       0.12499000       0.54249250 </v>
   <v>       0.27037500       0.06213000       0.44856250 </v>
   <v>       0.08317500       0.12555000       0.91594750 </v>
   <v>       0.45837000       0.49946000       0.47964000 </v>
   <v>       0.20886500       0.49992000       0.85301250 </v>
   <v>       0.24961500       0.75116000       0.87474750 </v>
   <v>       0.37462500       0.62471000       0.81183750 </v>
   <v>       0.06264000       0.81198500       0.84450000 </v>
   <v>       0.06345500       0.56286500       0.59341250 </v>
   <v>       0.43715000       0.93626500       0.65843000 </v>
   <v>       0.18774000       0.93608000       0.53136500 </v>
   <v>       0.43778500       0.69000000       0.40508750 </v>
   <v>       0.27102000       0.81327500       0.69738000 </v>
   <v>       0.39571500       0.68779500       0.63473250 </v>
   <v>       0.02156000       0.56211500       0.82305500 </v>
   <v>       0.08285000       0.87426000       0.66685000 </v>
   <v>       0.33244500       0.62499000       0.54249250 </v>
   <v>       0.27037500       0.56213000       0.44856250 </v>
   <v>       0.08317500       0.62555000       0.91594750 </v>
   <v>       0.45837000       0.99946000       0.47964000 </v>
   <v>       0.20886500       0.99992000       0.85301250 </v>
   <v>       0.24961500       0.25116000       0.37474750 </v>
   <v>       0.37462500       0.12471000       0.31183750 </v>
   <v>       0.06264000       0.31198500       0.34450000 </v>
   <v>       0.06345500       0.06286500       0.09341250 </v>
   <v>       0.43715000       0.43626500       0.15842500 </v>
   <v>       0.18774000       0.43608000       0.03137000 </v>
   <v>       0.43778500       0.19000000       0.90508750 </v>
   <v>       0.27102000       0.31327500       0.19738000 </v>
   <v>       0.39571500       0.18779500       0.13473250 </v>
   <v>       0.02156000       0.06211500       0.32305500 </v>
   <v>       0.08285000       0.37426000       0.16685000 </v>
   <v>       0.33244500       0.12499000       0.04249250 </v>
   <v>       0.27037500       0.06213000       0.94856250 </v>
   <v>       0.08317500       0.12555000       0.41594750 </v>
   <v>       0.45837000       0.49946000       0.97964000 </v>
   <v>       0.20886500       0.49992000       0.35301250 </v>
   <v>       0.74961500       0.25116000       0.62474750 </v>
   <v>       0.87462500       0.12471000       0.56183750 </v>
   <v>       0.56264000       0.31198500       0.59450000 </v>
   <v>       0.56345000       0.06286500       0.34341500 </v>
   <v>       0.93715000       0.43626500       0.40842500 </v>
   <v>       0.68774000       0.43608000       0.28137000 </v>
   <v>       0.93778500       0.19000000       0.15508750 </v>
   <v>       0.77102000       0.31327500       0.44738000 </v>
   <v>       0.89571500       0.18779500       0.38473250 </v>
   <v>       0.52156000       0.06211500       0.57305500 </v>
   <v>       0.58285000       0.37426000       0.41685000 </v>
   <v>       0.83244500       0.12499000       0.29249750 </v>
   <v>       0.77037500       0.06213000       0.19856250 </v>
   <v>       0.58317500       0.12555000       0.66594750 </v>
   <v>       0.95837000       0.49946000       0.22964000 </v>
   <v>       0.70886500       0.49992000       0.60301250 </v>
   <v>       0.24961500       0.75116000       0.37474750 </v>
   <v>       0.37462500       0.62471000       0.31183750 </v>
   <v>       0.06264000       0.81198500       0.34450000 </v>
   <v>       0.06345500       0.56286500       0.09341250 </v>
   <v>       0.43715000       0.93626500       0.15842500 </v>
   <v>       0.18774000       0.93608000       0.03137000 </v>
   <v>       0.43778500       0.69000000       0.90508750 </v>
   <v>       0.27102000       0.81327500       0.19738000 </v>
   <v>       0.39571500       0.68779500       0.13473250 </v>
   <v>       0.02156000       0.56211500       0.32305500 </v>
   <v>       0.08285000       0.87426000       0.16685000 </v>
   <v>       0.33244500       0.62499000       0.04249250 </v>
   <v>       0.27037500       0.56213000       0.94856250 </v>
   <v>       0.08317500       0.62555000       0.41594750 </v>
   <v>       0.45837000       0.99946000       0.97964000 </v>
   <v>       0.20886500       0.99992000       0.35301250 </v>
   <v>       0.74961500       0.75116000       0.62474750 </v>
   <v>       0.87462500       0.62471000       0.56183750 </v>
   <v>       0.56264000       0.81198500       0.59450000 </v>
   <v>       0.56345000       0.56286500       0.34341500 </v>
   <v>       0.93715000       0.93626500       0.40842500 </v>
   <v>       0.68774000       0.93608000       0.28136500 </v>
   <v>       0.93778500       0.69000000       0.15508750 </v>
   <v>       0.77102000       0.81327500       0.44738000 </v>
   <v>       0.89571500       0.68779500       0.38473250 </v>
   <v>       0.52156000       0.56211500       0.57305500 </v>
   <v>       0.58285000       0.87426000       0.41685000 </v>
   <v>       0.83244500       0.62499000       0.29249250 </v>
   <v>       0.77037500       0.56213000       0.19856250 </v>
   <v>       0.58317500       0.62555000       0.66594750 </v>
   <v>       0.95837000       0.99946000       0.22964000 </v>
   <v>       0.70886500       0.99992000       0.60301250 </v>
   <v>       0.74961500       0.25116000       0.12474750 </v>
   <v>       0.87462500       0.12471000       0.06183750 </v>
   <v>       0.56264000       0.31198500       0.09450000 </v>
   <v>       0.56555500       0.06286500       0.84446250 </v>
   <v>       0.93715000       0.43626500       0.90842500 </v>
   <v>       0.68774000       0.43608000       0.78137000 </v>
   <v>       0.93778500       0.19000000       0.65508750 </v>
   <v>       0.77102000       0.31327500       0.94738000 </v>
   <v>       0.89571500       0.18779500       0.88473250 </v>
   <v>       0.52156000       0.06211500       0.07305500 </v>
   <v>       0.58285000       0.37426000       0.91685000 </v>
   <v>       0.83244500       0.12499000       0.79249750 </v>
   <v>       0.77037500       0.06213000       0.69856250 </v>
   <v>       0.58317500       0.12555000       0.16594750 </v>
   <v>       0.95837000       0.49946000       0.72964000 </v>
   <v>       0.70886500       0.49992000       0.10301250 </v>
   <v>       0.74961500       0.75116000       0.12474750 </v>
   <v>       0.87462500       0.62471000       0.06183750 </v>
   <v>       0.56264000       0.81198500       0.09450000 </v>
   <v>       0.56345000       0.56286500       0.84341500 </v>
   <v>       0.93715000       0.93626500       0.90843000 </v>
   <v>       0.68774000       0.93608000       0.78137000 </v>
   <v>       0.93778500       0.69000000       0.65508750 </v>
   <v>       0.77102000       0.81327500       0.94738000 </v>
   <v>       0.89571500       0.68779500       0.88473250 </v>
   <v>       0.52156000       0.56211500       0.07305500 </v>
   <v>       0.58285000       0.87426000       0.91685000 </v>
   <v>       0.83244500       0.62499000       0.79249250 </v>
   <v>       0.77037500       0.56213000       0.69856250 </v>
   <v>       0.58317500       0.62555000       0.16594750 </v>
   <v>       0.95837000       0.99946000       0.72964000 </v>
   <v>       0.70886500       0.99992000       0.10301250 </v>
   <v>       0.12552000       0.37374500       0.43878000 </v>
   <v>       0.49955500       0.49856000       0.25097750 </v>
   <v>       0.18753000       0.18756000       0.77992000 </v>
   <v>       0.31234000       0.06179500       0.71926500 </v>
   <v>       0.12523500       0.12622500       0.68665250 </v>
   <v>       0.24965000       0.00016500       0.62632000 </v>
   <v>       0.37544000       0.37420500       0.56234500 </v>
   <v>       0.99989000       0.25085000       0.74831000 </v>
   <v>       0.31230000       0.31346000       0.46828500 </v>
   <v>       0.14612500       0.43832500       0.76050750 </v>
   <v>       0.20830000       0.24878000       0.60429000 </v>
   <v>       0.14574500       0.18778500       0.51141250 </v>
   <v>       0.39572500       0.43673000       0.38531750 </v>
   <v>       0.02141500       0.31227500       0.57284750 </v>
   <v>       0.33289000       0.37625500       0.79155500 </v>
   <v>       0.45828500       0.25070500       0.72884250 </v>
   <v>       0.12552000       0.87374500       0.43878000 </v>
   <v>       0.49955500       0.99856000       0.25097750 </v>
   <v>       0.18753000       0.68756000       0.77992000 </v>
   <v>       0.31234000       0.56179500       0.71926500 </v>
   <v>       0.12523500       0.62622500       0.68665250 </v>
   <v>       0.24965000       0.50016500       0.62632000 </v>
   <v>       0.37544000       0.87420500       0.56234500 </v>
   <v>       0.99989000       0.75085000       0.74831000 </v>
   <v>       0.31230000       0.81346000       0.46828500 </v>
   <v>       0.14612500       0.93832500       0.76050750 </v>
   <v>       0.20830000       0.74878000       0.60429000 </v>
   <v>       0.14574500       0.68778500       0.51141250 </v>
   <v>       0.39572500       0.93673000       0.38531750 </v>
   <v>       0.02141500       0.81227500       0.57284750 </v>
   <v>       0.33289000       0.87625500       0.79155500 </v>
   <v>       0.45828500       0.75070500       0.72884250 </v>
   <v>       0.12552000       0.37374500       0.93878000 </v>
   <v>       0.49955500       0.49856000       0.75097750 </v>
   <v>       0.18753000       0.18756000       0.27992000 </v>
   <v>       0.31234000       0.06179500       0.21926500 </v>
   <v>       0.12523500       0.12622500       0.18665250 </v>
   <v>       0.24965000       0.00016500       0.12632000 </v>
   <v>       0.37544000       0.37420500       0.06234500 </v>
   <v>       0.99989000       0.25085000       0.24831000 </v>
   <v>       0.31230000       0.31346000       0.96828500 </v>
   <v>       0.14612500       0.43832500       0.26050750 </v>
   <v>       0.20830000       0.24878000       0.10429000 </v>
   <v>       0.14574500       0.18778500       0.01141250 </v>
   <v>       0.39572500       0.43673000       0.88531750 </v>
   <v>       0.02141500       0.31227500       0.07284750 </v>
   <v>       0.33289000       0.37625500       0.29155500 </v>
   <v>       0.45828500       0.25070500       0.22884250 </v>
   <v>       0.62552000       0.37374500       0.18878000 </v>
   <v>       0.99955500       0.49856000       0.00097750 </v>
   <v>       0.68753000       0.18756000       0.52992000 </v>
   <v>       0.81234000       0.06179500       0.46926500 </v>
   <v>       0.62523500       0.12622500       0.43665250 </v>
   <v>       0.74965000       0.00016500       0.37632000 </v>
   <v>       0.87544000       0.37420500       0.31234500 </v>
   <v>       0.49989000       0.25085000       0.49831000 </v>
   <v>       0.81230000       0.31346000       0.21828500 </v>
   <v>       0.64612500       0.43832500       0.51050750 </v>
   <v>       0.70830000       0.24878000       0.35429000 </v>
   <v>       0.64574500       0.18778500       0.26141250 </v>
   <v>       0.89572500       0.43673000       0.13531750 </v>
   <v>       0.52141500       0.31227500       0.32284750 </v>
   <v>       0.83289000       0.37625500       0.54155500 </v>
   <v>       0.95828500       0.25070500       0.47884250 </v>
   <v>       0.12552000       0.87374500       0.93878000 </v>
   <v>       0.49955500       0.99856000       0.75097750 </v>
   <v>       0.18753000       0.68756000       0.27992000 </v>
   <v>       0.31234000       0.56179500       0.21926500 </v>
   <v>       0.12523500       0.62622500       0.18665250 </v>
   <v>       0.24965000       0.50016500       0.12632000 </v>
   <v>       0.37544000       0.87420500       0.06234500 </v>
   <v>       0.99989000       0.75085000       0.24831000 </v>
   <v>       0.31230000       0.81346000       0.96828500 </v>
   <v>       0.14612500       0.93832500       0.26050750 </v>
   <v>       0.20830000       0.74878000       0.10429000 </v>
   <v>       0.14574500       0.68778500       0.01141250 </v>
   <v>       0.39572500       0.93673000       0.88531750 </v>
   <v>       0.02141500       0.81227500       0.07284750 </v>
   <v>       0.33289000       0.87625500       0.29155500 </v>
   <v>       0.45828500       0.75070500       0.22884250 </v>
   <v>       0.62552000       0.87374500       0.18878000 </v>
   <v>       0.99955500       0.99856000       0.00097750 </v>
   <v>       0.68753000       0.68756000       0.52992000 </v>
   <v>       0.81234000       0.56179500       0.46926500 </v>
   <v>       0.62523500       0.62622500       0.43665250 </v>
   <v>       0.74965000       0.50016500       0.37632000 </v>
   <v>       0.87544000       0.87420500       0.31234500 </v>
   <v>       0.49989000       0.75085000       0.49831000 </v>
   <v>       0.81230000       0.81346000       0.21828500 </v>
   <v>       0.64612500       0.93832500       0.51050750 </v>
   <v>       0.70830000       0.74878000       0.35429000 </v>
   <v>       0.64574500       0.68778500       0.26141250 </v>
   <v>       0.89572500       0.93673000       0.13531750 </v>
   <v>       0.52141500       0.81227500       0.32284750 </v>
   <v>       0.83289000       0.87625500       0.54155500 </v>
   <v>       0.95828500       0.75070500       0.47884250 </v>
   <v>       0.62552000       0.37374500       0.68878000 </v>
   <v>       0.99955500       0.49856000       0.50097750 </v>
   <v>       0.68753000       0.18756000       0.02992000 </v>
   <v>       0.81234000       0.06179500       0.96926500 </v>
   <v>       0.62523500       0.12622500       0.93665250 </v>
   <v>       0.74965000       0.00016500       0.87632000 </v>
   <v>       0.87544000       0.37420500       0.81234500 </v>
   <v>       0.49989000       0.25085000       0.99831000 </v>
   <v>       0.81230000       0.31346000       0.71828500 </v>
   <v>       0.64612500       0.43832500       0.01050750 </v>
   <v>       0.70830000       0.24878000       0.85429000 </v>
   <v>       0.64574500       0.18778500       0.76141250 </v>
   <v>       0.89572500       0.43673000       0.63531750 </v>
   <v>       0.52141500       0.31227500       0.82284750 </v>
   <v>       0.83289000       0.37625500       0.04155500 </v>
   <v>       0.95828500       0.25070500       0.97884250 </v>
   <v>       0.62552000       0.87374500       0.68878000 </v>
   <v>       0.99955500       0.99856000       0.50097750 </v>
   <v>       0.68753000       0.68756000       0.02992000 </v>
   <v>       0.81234000       0.56179500       0.96926500 </v>
   <v>       0.62523500       0.62622500       0.93665250 </v>
   <v>       0.74965000       0.50016500       0.87632000 </v>
   <v>       0.87544000       0.87420500       0.81234500 </v>
   <v>       0.49989000       0.75085000       0.99831000 </v>
   <v>       0.81230000       0.81346000       0.71828500 </v>
   <v>       0.64612500       0.93832500       0.01050750 </v>
   <v>       0.70830000       0.74878000       0.85429000 </v>
   <v>       0.64574500       0.68778500       0.76141250 </v>
   <v>       0.89572500       0.93673000       0.63531750 </v>
   <v>       0.52141500       0.81227500       0.82284750 </v>
   <v>       0.83289000       0.87625500       0.04155500 </v>
   <v>       0.95828500       0.75070500       0.97884250 </v>
  </varray>
 </structure>
</modeling>
