       N       E                     dE             d eps       ncg     rms          rms(c)
RMM:   1     0.136790566587E+05    0.13679E+05   -0.47218E+05 25080   0.725E+02
RMM:   2     0.131338049418E+04   -0.12366E+05   -0.13120E+05 25080   0.260E+02
RMM:   3    -0.104566838149E+04   -0.23590E+04   -0.22855E+04 25080   0.111E+02
RMM:   4    -0.184599455370E+04   -0.80033E+03   -0.57408E+03 25080   0.768E+01
RMM:   5    -0.212910774699E+04   -0.28311E+03   -0.24896E+03 25080   0.451E+01
RMM:   6    -0.227483094440E+04   -0.14572E+03   -0.12952E+03 25080   0.349E+01
RMM:   7    -0.235269580282E+04   -0.77865E+02   -0.73854E+02 25080   0.236E+01
RMM:   8    -0.240019407407E+04   -0.47498E+02   -0.44557E+02 25080   0.195E+01
RMM:   9    -0.247909041524E+04   -0.78896E+02   -0.77976E+02 71883   0.137E+01
RMM:  10    -0.248863949138E+04   -0.95491E+01   -0.11973E+02 79675   0.282E+00
RMM:  11    -0.249088300927E+04   -0.22435E+01   -0.17859E+01 77259   0.686E-01
RMM:  12    -0.249118965708E+04   -0.30665E+00   -0.19862E+00 79554   0.198E-01    0.782E+01
RMM:  13    -0.241367208055E+04    0.77518E+02   -0.68500E+02 57183   0.246E+01    0.583E+01
RMM:  14    -0.236777816654E+04    0.45894E+02   -0.34129E+02 51451   0.174E+01    0.416E+01
RMM:  15    -0.233564041104E+04    0.32138E+02   -0.11852E+02 53317   0.101E+01    0.255E+01
RMM:  16    -0.232132096105E+04    0.14319E+02   -0.25870E+01 56008   0.435E+00    0.439E+00
RMM:  17    -0.232149418506E+04   -0.17322E+00   -0.64622E+00 73677   0.130E+00    0.434E+00
RMM:  18    -0.232112874831E+04    0.36544E+00   -0.11740E+00 64569   0.693E-01    0.342E+00
RMM:  19    -0.232074836998E+04    0.38038E+00   -0.65027E-01 59791   0.745E-01    0.166E+00
RMM:  20    -0.232069614196E+04    0.52228E-01   -0.24115E-01 63414   0.355E-01    0.154E+00
RMM:  21    -0.232065879059E+04    0.37351E-01   -0.11128E-01 62862   0.234E-01    0.123E+00
RMM:  22    -0.232063314950E+04    0.25641E-01   -0.48605E-02 61235   0.160E-01    0.720E-01
RMM:  23    -0.232062768775E+04    0.54618E-02   -0.13602E-02 67128   0.687E-02    0.493E-01
RMM:  24    -0.232062406715E+04    0.36206E-02   -0.10546E-02 62418   0.764E-02    0.248E-01
RMM:  25    -0.232062499874E+04   -0.93160E-03   -0.12930E-02 66339   0.781E-02    0.259E-01
RMM:  26    -0.232062518389E+04   -0.18515E-03   -0.34830E-03 74433   0.304E-02    0.269E-01
RMM:  27    -0.232062424101E+04    0.94288E-03   -0.74503E-04 59872   0.212E-02    0.176E-01
RMM:  28    -0.232062367044E+04    0.57058E-03   -0.11306E-03 63603   0.245E-02    0.711E-02
RMM:  29    -0.232062358779E+04    0.82643E-04   -0.54125E-04 71408   0.144E-02
   1 F= -.23206236E+04 E0= -.23206235E+04  d E =-.146717E-03
