  64  64   0   0
  0.1397348E+02  0.1146707E-08  0.1146707E-08  0.1081459E-08  0.5000000E-15
  1.000000000000000E-004
  CAR 
 Ir_Ru                                   
     11.41502429     -0.65668923  301      8.82396329      1.00000000
     -0.657  0.0000E+00  0.0000E+00
     -0.616  0.0000E+00  0.0000E+00
     -0.576  0.0000E+00  0.0000E+00
     -0.536  0.0000E+00  0.0000E+00
     -0.496  0.0000E+00  0.0000E+00
     -0.455  0.0000E+00  0.0000E+00
     -0.415  0.0000E+00  0.0000E+00
     -0.375  0.0000E+00  0.0000E+00
     -0.335  0.0000E+00  0.0000E+00
     -0.295  0.0000E+00  0.0000E+00
     -0.254  0.0000E+00  0.0000E+00
     -0.214  0.0000E+00  0.0000E+00
     -0.174  0.0000E+00  0.0000E+00
     -0.134  0.0000E+00  0.0000E+00
     -0.093  0.0000E+00  0.0000E+00
     -0.053  0.0000E+00  0.0000E+00
     -0.013  0.0000E+00  0.0000E+00
      0.027  0.0000E+00  0.0000E+00
      0.068  0.0000E+00  0.0000E+00
      0.108  0.0000E+00  0.0000E+00
      0.148  0.0000E+00  0.0000E+00
      0.188  0.0000E+00  0.0000E+00
      0.229  0.0000E+00  0.0000E+00
      0.269  0.0000E+00  0.0000E+00
      0.309  0.0000E+00  0.0000E+00
      0.349  0.4166E-02  0.8298E-05
      0.390  0.2491E+00  0.3838E-02
      0.430  0.8090E+00  0.2471E-01
      0.470  0.1276E+01  0.6722E-01
      0.510  0.1593E+01  0.1256E+00
      0.550  0.1797E+01  0.1939E+00
      0.591  0.2159E+01  0.2719E+00
      0.631  0.2753E+01  0.3707E+00
      0.671  0.3030E+01  0.4888E+00
      0.711  0.3024E+01  0.6107E+00
      0.752  0.2855E+01  0.7281E+00
      0.792  0.2789E+01  0.8418E+00
      0.832  0.2689E+01  0.9521E+00
      0.872  0.2597E+01  0.1060E+01
      0.913  0.2521E+01  0.1162E+01
      0.953  0.3405E+01  0.1271E+01
      0.993  0.4093E+01  0.1423E+01
      1.033  0.4141E+01  0.1583E+01
      1.074  0.4702E+01  0.1762E+01
      1.114  0.5105E+01  0.1960E+01
      1.154  0.5367E+01  0.2189E+01
      1.194  0.4485E+01  0.2386E+01
      1.235  0.3630E+01  0.2550E+01
      1.275  0.3373E+01  0.2688E+01
      1.315  0.3373E+01  0.2823E+01
      1.355  0.3436E+01  0.2956E+01
      1.396  0.3933E+01  0.3104E+01
      1.436  0.4145E+01  0.3267E+01
      1.476  0.5228E+01  0.3451E+01
      1.516  0.7333E+01  0.3708E+01
      1.556  0.7851E+01  0.4018E+01
      1.597  0.7733E+01  0.4339E+01
      1.637  0.6935E+01  0.4626E+01
      1.677  0.6843E+01  0.4905E+01
      1.717  0.6858E+01  0.5179E+01
      1.758  0.7919E+01  0.5475E+01
      1.798  0.7608E+01  0.5786E+01
      1.838  0.7250E+01  0.6086E+01
      1.878  0.6479E+01  0.6369E+01
      1.919  0.7096E+01  0.6643E+01
      1.959  0.7329E+01  0.6926E+01
      1.999  0.8386E+01  0.7246E+01
      2.039  0.9857E+01  0.7616E+01
      2.080  0.1144E+02  0.8029E+01
      2.120  0.1200E+02  0.8555E+01
      2.160  0.1417E+02  0.9072E+01
      2.200  0.1323E+02  0.9601E+01
      2.241  0.1654E+02  0.1020E+02
      2.281  0.1676E+02  0.1087E+02
      2.321  0.1712E+02  0.1156E+02
      2.361  0.2051E+02  0.1230E+02
      2.401  0.2810E+02  0.1331E+02
      2.442  0.3165E+02  0.1450E+02
      2.482  0.3457E+02  0.1591E+02
      2.522  0.3064E+02  0.1717E+02
      2.562  0.3475E+02  0.1847E+02
      2.603  0.3506E+02  0.1979E+02
      2.643  0.3487E+02  0.2125E+02
      2.683  0.3353E+02  0.2254E+02
      2.723  0.4244E+02  0.2409E+02
      2.764  0.4434E+02  0.2581E+02
      2.804  0.4220E+02  0.2779E+02
      2.844  0.4511E+02  0.2955E+02
      2.884  0.4847E+02  0.3142E+02
      2.925  0.5402E+02  0.3350E+02
      2.965  0.5552E+02  0.3566E+02
      3.005  0.6522E+02  0.3803E+02
      3.045  0.7653E+02  0.4079E+02
      3.086  0.7812E+02  0.4386E+02
      3.126  0.6996E+02  0.4689E+02
      3.166  0.6834E+02  0.4975E+02
      3.206  0.7203E+02  0.5262E+02
      3.246  0.8252E+02  0.5580E+02
      3.287  0.7996E+02  0.5905E+02
      3.327  0.9036E+02  0.6242E+02
      3.367  0.1037E+03  0.6624E+02
      3.407  0.1224E+03  0.7087E+02
      3.448  0.1114E+03  0.7568E+02
      3.488  0.1214E+03  0.8055E+02
      3.528  0.1093E+03  0.8520E+02
      3.568  0.1210E+03  0.8965E+02
      3.609  0.1084E+03  0.9388E+02
      3.649  0.1107E+03  0.9803E+02
      3.689  0.9449E+02  0.1023E+03
      3.729  0.9627E+02  0.1061E+03
      3.770  0.9511E+02  0.1099E+03
      3.810  0.1006E+03  0.1142E+03
      3.850  0.9648E+02  0.1181E+03
      3.890  0.9265E+02  0.1219E+03
      3.931  0.8684E+02  0.1255E+03
      3.971  0.8790E+02  0.1291E+03
      4.011  0.8839E+02  0.1326E+03
      4.051  0.7585E+02  0.1359E+03
      4.092  0.7236E+02  0.1389E+03
      4.132  0.7516E+02  0.1420E+03
      4.172  0.7455E+02  0.1449E+03
      4.212  0.7370E+02  0.1480E+03
      4.252  0.7318E+02  0.1510E+03
      4.293  0.7100E+02  0.1540E+03
      4.333  0.6891E+02  0.1568E+03
      4.373  0.6348E+02  0.1595E+03
      4.413  0.6030E+02  0.1620E+03
      4.454  0.6188E+02  0.1645E+03
      4.494  0.6130E+02  0.1669E+03
      4.534  0.7118E+02  0.1695E+03
      4.574  0.7426E+02  0.1723E+03
      4.615  0.7508E+02  0.1753E+03
      4.655  0.7112E+02  0.1782E+03
      4.695  0.7172E+02  0.1811E+03
      4.735  0.6569E+02  0.1838E+03
      4.776  0.7180E+02  0.1867E+03
      4.816  0.7498E+02  0.1898E+03
      4.856  0.6879E+02  0.1925E+03
      4.896  0.8580E+02  0.1956E+03
      4.937  0.7241E+02  0.1988E+03
      4.977  0.6976E+02  0.2019E+03
      5.017  0.6742E+02  0.2046E+03
      5.057  0.7309E+02  0.2075E+03
      5.097  0.6947E+02  0.2103E+03
      5.138  0.6938E+02  0.2131E+03
      5.178  0.6790E+02  0.2161E+03
      5.218  0.6810E+02  0.2189E+03
      5.258  0.7931E+02  0.2217E+03
      5.299  0.9014E+02  0.2252E+03
      5.339  0.8559E+02  0.2288E+03
      5.379  0.8042E+02  0.2323E+03
      5.419  0.6156E+02  0.2350E+03
      5.460  0.5535E+02  0.2374E+03
      5.500  0.6682E+02  0.2400E+03
      5.540  0.7562E+02  0.2428E+03
      5.580  0.8177E+02  0.2459E+03
      5.621  0.8865E+02  0.2492E+03
      5.661  0.8439E+02  0.2529E+03
      5.701  0.8082E+02  0.2561E+03
      5.741  0.8244E+02  0.2595E+03
      5.782  0.7695E+02  0.2627E+03
      5.822  0.7390E+02  0.2657E+03
      5.862  0.7326E+02  0.2686E+03
      5.902  0.7801E+02  0.2717E+03
      5.943  0.7902E+02  0.2749E+03
      5.983  0.7858E+02  0.2781E+03
      6.023  0.8897E+02  0.2814E+03
      6.063  0.9147E+02  0.2851E+03
      6.103  0.9843E+02  0.2889E+03
      6.144  0.1072E+03  0.2930E+03
      6.184  0.1106E+03  0.2975E+03
      6.224  0.1212E+03  0.3022E+03
      6.264  0.1173E+03  0.3071E+03
      6.305  0.1186E+03  0.3119E+03
      6.345  0.1176E+03  0.3166E+03
      6.385  0.1268E+03  0.3215E+03
      6.425  0.1251E+03  0.3267E+03
      6.466  0.1370E+03  0.3321E+03
      6.506  0.1294E+03  0.3376E+03
      6.546  0.1264E+03  0.3429E+03
      6.586  0.1200E+03  0.3478E+03
      6.627  0.1265E+03  0.3525E+03
      6.667  0.1201E+03  0.3577E+03
      6.707  0.1028E+03  0.3621E+03
      6.747  0.8766E+02  0.3661E+03
      6.788  0.9609E+02  0.3699E+03
      6.828  0.9060E+02  0.3738E+03
      6.868  0.7475E+02  0.3771E+03
      6.908  0.6968E+02  0.3800E+03
      6.948  0.7119E+02  0.3828E+03
      6.989  0.7968E+02  0.3859E+03
      7.029  0.7932E+02  0.3891E+03
      7.069  0.7780E+02  0.3923E+03
      7.109  0.7307E+02  0.3954E+03
      7.150  0.6877E+02  0.3983E+03
      7.190  0.7582E+02  0.4013E+03
      7.230  0.8020E+02  0.4045E+03
      7.270  0.7222E+02  0.4075E+03
      7.311  0.7653E+02  0.4105E+03
      7.351  0.7600E+02  0.4137E+03
      7.391  0.6185E+02  0.4165E+03
      7.431  0.6161E+02  0.4189E+03
      7.472  0.6404E+02  0.4214E+03
      7.512  0.6407E+02  0.4240E+03
      7.552  0.6565E+02  0.4266E+03
      7.592  0.7142E+02  0.4294E+03
      7.633  0.7207E+02  0.4323E+03
      7.673  0.6890E+02  0.4351E+03
      7.713  0.7016E+02  0.4380E+03
      7.753  0.7517E+02  0.4408E+03
      7.794  0.7840E+02  0.4439E+03
      7.834  0.7519E+02  0.4471E+03
      7.874  0.8129E+02  0.4502E+03
      7.914  0.7467E+02  0.4534E+03
      7.954  0.7441E+02  0.4564E+03
      7.995  0.8875E+02  0.4596E+03
      8.035  0.8946E+02  0.4632E+03
      8.075  0.8641E+02  0.4669E+03
      8.115  0.8489E+02  0.4702E+03
      8.156  0.7749E+02  0.4736E+03
      8.196  0.6906E+02  0.4765E+03
      8.236  0.6515E+02  0.4792E+03
      8.276  0.7752E+02  0.4820E+03
      8.317  0.9267E+02  0.4856E+03
      8.357  0.8213E+02  0.4890E+03
      8.397  0.8168E+02  0.4923E+03
      8.437  0.7670E+02  0.4955E+03
      8.478  0.8062E+02  0.4988E+03
      8.518  0.7428E+02  0.5019E+03
      8.558  0.7039E+02  0.5050E+03
      8.598  0.7011E+02  0.5078E+03
      8.639  0.7953E+02  0.5107E+03
      8.679  0.7846E+02  0.5138E+03
      8.719  0.7401E+02  0.5169E+03
      8.759  0.6550E+02  0.5198E+03
      8.799  0.6735E+02  0.5223E+03
      8.840  0.5977E+02  0.5250E+03
      8.880  0.5631E+02  0.5272E+03
      8.920  0.5386E+02  0.5295E+03
      8.960  0.5986E+02  0.5318E+03
      9.001  0.6765E+02  0.5344E+03
      9.041  0.6565E+02  0.5371E+03
      9.081  0.6659E+02  0.5396E+03
      9.121  0.7432E+02  0.5425E+03
      9.162  0.6751E+02  0.5455E+03
      9.202  0.6816E+02  0.5482E+03
      9.242  0.6162E+02  0.5509E+03
      9.282  0.5045E+02  0.5531E+03
      9.323  0.5151E+02  0.5551E+03
      9.363  0.5498E+02  0.5572E+03
      9.403  0.7360E+02  0.5597E+03
      9.443  0.7664E+02  0.5630E+03
      9.484  0.6315E+02  0.5658E+03
      9.524  0.6229E+02  0.5683E+03
      9.564  0.5773E+02  0.5706E+03
      9.604  0.7043E+02  0.5732E+03
      9.645  0.8395E+02  0.5765E+03
      9.685  0.6640E+02  0.5792E+03
      9.725  0.7077E+02  0.5823E+03
      9.765  0.6765E+02  0.5850E+03
      9.805  0.7599E+02  0.5879E+03
      9.846  0.7276E+02  0.5909E+03
      9.886  0.7251E+02  0.5937E+03
      9.926  0.7801E+02  0.5968E+03
      9.966  0.8569E+02  0.6000E+03
     10.007  0.7602E+02  0.6030E+03
     10.047  0.8836E+02  0.6064E+03
     10.087  0.1062E+03  0.6104E+03
     10.127  0.1019E+03  0.6146E+03
     10.168  0.9930E+02  0.6188E+03
     10.208  0.8740E+02  0.6226E+03
     10.248  0.5097E+02  0.6254E+03
     10.288  0.2625E+02  0.6269E+03
     10.329  0.1148E+02  0.6276E+03
     10.369  0.3725E+01  0.6279E+03
     10.409  0.7866E-01  0.6280E+03
     10.449  0.0000E+00  0.6280E+03
     10.490  0.0000E+00  0.6280E+03
     10.530  0.0000E+00  0.6280E+03
     10.570  0.0000E+00  0.6280E+03
     10.610  0.0000E+00  0.6280E+03
     10.650  0.0000E+00  0.6280E+03
     10.691  0.0000E+00  0.6280E+03
     10.731  0.0000E+00  0.6280E+03
     10.771  0.0000E+00  0.6280E+03
     10.811  0.0000E+00  0.6280E+03
     10.852  0.0000E+00  0.6280E+03
     10.892  0.0000E+00  0.6280E+03
     10.932  0.0000E+00  0.6280E+03
     10.972  0.0000E+00  0.6280E+03
     11.013  0.0000E+00  0.6280E+03
     11.053  0.0000E+00  0.6280E+03
     11.093  0.0000E+00  0.6280E+03
     11.133  0.0000E+00  0.6280E+03
     11.174  0.0000E+00  0.6280E+03
     11.214  0.0000E+00  0.6280E+03
     11.254  0.0000E+00  0.6280E+03
     11.294  0.0000E+00  0.6280E+03
     11.335  0.0000E+00  0.6280E+03
     11.375  0.0000E+00  0.6280E+03
     11.415  0.0000E+00  0.6280E+03
