       N       E                     dE             d eps       ncg     rms          rms(c)
DAV:   1     0.266027545553E+04    0.26603E+04   -0.13244E+05 39716   0.820E+02
DAV:   2    -0.352544790929E+03   -0.30128E+04   -0.28828E+04 39592   0.334E+02
DAV:   3    -0.603022783446E+03   -0.25048E+03   -0.23255E+03 59736   0.777E+01
DAV:   4    -0.622140143564E+03   -0.19117E+02   -0.18295E+02 55728   0.216E+01
DAV:   5    -0.622867124158E+03   -0.72698E+00   -0.71194E+00 56200   0.340E+00    0.388E+01
DAV:   6    -0.592931995185E+03    0.29935E+02   -0.11298E+02 57192   0.290E+01    0.217E+01
DAV:   7    -0.600285485928E+03   -0.73535E+01   -0.11369E+02 66352   0.395E+01    0.306E+01
DAV:   8    -0.585288847643E+03    0.14997E+02   -0.78320E+01 74032   0.283E+01    0.132E+01
DAV:   9    -0.582449068173E+03    0.28398E+01   -0.19384E+01 66424   0.121E+01    0.419E+00
DAV:  10    -0.582207466843E+03    0.24160E+00   -0.19454E+00 59312   0.388E+00    0.133E+00
DAV:  11    -0.582087736460E+03    0.11973E+00   -0.23612E-01 63584   0.142E+00    0.126E+00
DAV:  12    -0.582025719307E+03    0.62017E-01   -0.11450E-01 64312   0.111E+00    0.650E-01
DAV:  13    -0.581998953386E+03    0.26766E-01   -0.67665E-02 61664   0.844E-01    0.787E-01
DAV:  14    -0.581986465536E+03    0.12488E-01   -0.40398E-02 61808   0.726E-01    0.253E-01
DAV:  15    -0.581985923060E+03    0.54248E-03   -0.78905E-03 64528   0.277E-01    0.140E-01
DAV:  16    -0.581985715515E+03    0.20755E-03   -0.24778E-03 65144   0.150E-01    0.986E-02
DAV:  17    -0.581985508237E+03    0.20728E-03   -0.98502E-04 63400   0.967E-02    0.469E-02
DAV:  18    -0.581985471507E+03    0.36730E-04   -0.29634E-04 64936   0.519E-02
   1 F= -.58198547E+03 E0= -.58198547E+03  d E =0.000000E+00
