<?xml version="1.0" encoding="ISO-8859-1"?>
<modeling>
 <generator>
  <i name="program" type="string">vasp </i>
  <i name="version" type="string">5.4.4.18Apr17-6-g9f103f2a35  </i>
  <i name="subversion" type="string">(build Sep 24 2018 12:56:49) complex            parallel </i>
  <i name="platform" type="string">LinuxIFC </i>
  <i name="date" type="string">2019 05 26 </i>
  <i name="time" type="string">19:42:11 </i>
 </generator>
 <incar>
  <i type="string" name="SYSTEM"> Ir_Ru</i>
  <i type="int" name="ISTART">     0</i>
  <i type="string" name="PREC">accurate</i>
  <i type="int" name="ICHARG">     2</i>
  <i type="int" name="NELMIN">     5</i>
  <i type="int" name="IBRION">    -1</i>
  <i name="EDIFFG">      0.00001000</i>
  <i type="int" name="ISIF">     2</i>
  <i type="int" name="ISMEAR">    -5</i>
  <i name="SIGMA">      0.10000000</i>
  <v type="int" name="KPOINT_BSE">    -1     0     0     0</v>
 </incar>
 <structure name="primitive_cell" >
  <crystal>
   <varray name="basis" >
    <v>      -3.82474074      -7.64405614       7.64418186 </v>
    <v>      -3.82474074       7.64405614      -7.64418186 </v>
    <v>       0.00000000      -7.64700609      -7.64713183 </v>
   </varray>
   <i name="volume">    894.30248777 </i>
   <varray name="rec_basis" >
    <v>      -0.13072782      -0.03270515       0.03270461 </v>
    <v>      -0.13072782       0.03270515      -0.03270461 </v>
    <v>       0.00000000      -0.06538507      -0.06538399 </v>
   </varray>
  </crystal>
  <varray name="positions" >
   <v>       0.12492167      -0.12492167      -0.25016246 </v>
   <v>      -0.00006714       0.00006714      -0.25076942 </v>
   <v>       0.12454200      -0.12454200       0.49986366 </v>
   <v>       0.25000659      -0.25000659      -0.25011484 </v>
   <v>      -0.18710475      -0.31136669      -0.37574679 </v>
   <v>       0.31136669       0.18710475      -0.37574679 </v>
   <v>      -0.06224797      -0.43756116      -0.37529731 </v>
   <v>       0.43756116       0.06224797      -0.37529731 </v>
   <v>      -0.06242955      -0.43755314      -0.12487468 </v>
   <v>       0.43755314       0.06242955      -0.12487468 </v>
   <v>       0.31233426       0.18763394      -0.12469427 </v>
   <v>      -0.18763394      -0.31233426      -0.12469427 </v>
   <v>       0.12492538      -0.12492538       0.00017416 </v>
   <v>      -0.00008395       0.00008395      -0.49969407 </v>
   <v>      -0.00008100       0.00008100      -0.00022720 </v>
   <v>       0.25003996      -0.25003996      -0.00022091 </v>
   <v>       0.25020862      -0.25020862      -0.49979401 </v>
   <v>      -0.37491684       0.37491684      -0.24979561 </v>
   <v>       0.18705201       0.31148469      -0.37552591 </v>
   <v>      -0.31148469      -0.18705201      -0.37552591 </v>
   <v>       0.18759315       0.31247379      -0.12491149 </v>
   <v>      -0.31247379      -0.18759315      -0.12491149 </v>
   <v>       0.31259957       0.18746555       0.37495286 </v>
   <v>      -0.18746555      -0.31259957       0.37495286 </v>
   <v>       0.06250453       0.43763808      -0.37507853 </v>
   <v>      -0.43763808      -0.06250453      -0.37507853 </v>
   <v>       0.49996509      -0.49996509      -0.24997429 </v>
   <v>       0.06266842       0.43761177      -0.12509086 </v>
   <v>      -0.43761177      -0.06266842      -0.12509086 </v>
   <v>      -0.24990260       0.24990260      -0.25011008 </v>
   <v>      -0.06345183      -0.43793442       0.37450645 </v>
   <v>       0.43793442       0.06345183       0.37450645 </v>
   <v>      -0.37487875       0.37487875       0.49902846 </v>
   <v>      -0.18800788      -0.31355410       0.12547169 </v>
   <v>       0.31355410       0.18800788       0.12547169 </v>
   <v>      -0.37502599       0.37502599       0.00100880 </v>
   <v>      -0.06362565      -0.43789667       0.12568806 </v>
   <v>       0.43789667       0.06362565       0.12568806 </v>
   <v>      -0.12497083       0.12497083      -0.25016326 </v>
   <v>       0.12491803      -0.12491803       0.25015688 </v>
   <v>      -0.49992294       0.49992294       0.49984832 </v>
   <v>      -0.25020755       0.25020755       0.49988118 </v>
   <v>       0.37496488      -0.37496488      -0.24978572 </v>
   <v>      -0.49992258       0.49992258       0.00013175 </v>
   <v>      -0.25003547       0.25003547       0.00011292 </v>
   <v>      -0.12458740       0.12458740       0.49918458 </v>
   <v>      -0.00048126       0.00048126       0.25076080 </v>
   <v>      -0.12499413       0.12499413       0.00079223 </v>
   <v>       0.37494206      -0.37494206       0.49921160 </v>
   <v>       0.25040862      -0.25040862       0.25011189 </v>
   <v>       0.18649953       0.31203133       0.37447815 </v>
   <v>      -0.31203133      -0.18649953       0.37447815 </v>
   <v>       0.37509187      -0.37509187       0.00082231 </v>
   <v>       0.06300072       0.43708042       0.37403059 </v>
   <v>      -0.43708042      -0.06300072       0.37403059 </v>
   <v>       0.18709928       0.31306254       0.12593395 </v>
   <v>      -0.31306254      -0.18709928       0.12593395 </v>
   <v>       0.06317765       0.43703591       0.12615573 </v>
   <v>      -0.43703591      -0.06317765       0.12615573 </v>
   <v>      -0.37489532       0.37489532       0.24975951 </v>
   <v>      -0.49985322       0.49985322       0.24991257 </v>
   <v>      -0.25009648       0.25009648       0.25010613 </v>
   <v>      -0.12475848       0.12475848       0.25018170 </v>
   <v>       0.37473754      -0.37473754       0.24976714 </v>
  </varray>
 </structure>
 <varray name="primitive_index" >
  <v type="int" >        1 </v>
  <v type="int" >       30 </v>
  <v type="int" >       17 </v>
  <v type="int" >       25 </v>
  <v type="int" >       49 </v>
  <v type="int" >       53 </v>
  <v type="int" >       33 </v>
  <v type="int" >       37 </v>
  <v type="int" >       57 </v>
  <v type="int" >       64 </v>
  <v type="int" >       45 </v>
  <v type="int" >       46 </v>
  <v type="int" >       20 </v>
  <v type="int" >       13 </v>
  <v type="int" >       11 </v>
  <v type="int" >        7 </v>
  <v type="int" >        3 </v>
  <v type="int" >        5 </v>
  <v type="int" >       34 </v>
  <v type="int" >       42 </v>
  <v type="int" >       61 </v>
  <v type="int" >       62 </v>
  <v type="int" >       38 </v>
  <v type="int" >       39 </v>
  <v type="int" >       50 </v>
  <v type="int" >       58 </v>
  <v type="int" >       29 </v>
  <v type="int" >       41 </v>
  <v type="int" >       48 </v>
  <v type="int" >       32 </v>
  <v type="int" >       51 </v>
  <v type="int" >       59 </v>
  <v type="int" >       21 </v>
  <v type="int" >       52 </v>
  <v type="int" >       60 </v>
  <v type="int" >       28 </v>
  <v type="int" >       36 </v>
  <v type="int" >       44 </v>
  <v type="int" >        8 </v>
  <v type="int" >        4 </v>
  <v type="int" >        6 </v>
  <v type="int" >        9 </v>
  <v type="int" >        2 </v>
  <v type="int" >       10 </v>
  <v type="int" >       12 </v>
  <v type="int" >       26 </v>
  <v type="int" >       23 </v>
  <v type="int" >       31 </v>
  <v type="int" >       18 </v>
  <v type="int" >       19 </v>
  <v type="int" >       54 </v>
  <v type="int" >       55 </v>
  <v type="int" >       24 </v>
  <v type="int" >       35 </v>
  <v type="int" >       43 </v>
  <v type="int" >       40 </v>
  <v type="int" >       47 </v>
  <v type="int" >       56 </v>
  <v type="int" >       63 </v>
  <v type="int" >       15 </v>
  <v type="int" >       22 </v>
  <v type="int" >       27 </v>
  <v type="int" >       16 </v>
  <v type="int" >       14 </v>
 </varray>
 <kpoints>
  <generation param="Gamma">
   <v type="int" name="divisions">       5        5        5 </v>
   <v name="usershift">      0.00000000       0.00000000       0.00000000 </v>
   <v name="genvec1">      0.20000000       0.00000000       0.00000000 </v>
   <v name="genvec2">      0.00000000       0.20000000       0.00000000 </v>
   <v name="genvec3">      0.00000000       0.00000000       0.20000000 </v>
   <v name="shift">      0.00000000       0.00000000       0.00000000 </v>
  </generation>
  <varray name="kpointlist" >
   <v>       0.00000000       0.00000000       0.00000000 </v>
   <v>       0.20000000       0.00000000       0.00000000 </v>
   <v>       0.40000000       0.00000000       0.00000000 </v>
   <v>       0.00000000       0.20000000      -0.00000000 </v>
   <v>       0.20000000       0.20000000       0.00000000 </v>
   <v>       0.40000000       0.20000000       0.00000000 </v>
   <v>      -0.40000000       0.20000000      -0.00000000 </v>
   <v>      -0.20000000       0.20000000      -0.00000000 </v>
   <v>       0.00000000       0.40000000      -0.00000000 </v>
   <v>       0.20000000       0.40000000      -0.00000000 </v>
   <v>       0.40000000       0.40000000       0.00000000 </v>
   <v>      -0.40000000       0.40000000      -0.00000000 </v>
   <v>      -0.20000000       0.40000000      -0.00000000 </v>
   <v>       0.00000000       0.00000000       0.20000000 </v>
   <v>       0.20000000       0.00000000       0.20000000 </v>
   <v>       0.40000000       0.00000000       0.20000000 </v>
   <v>      -0.40000000      -0.00000000       0.20000000 </v>
   <v>      -0.20000000       0.00000000       0.20000000 </v>
   <v>       0.00000000       0.20000000       0.20000000 </v>
   <v>       0.20000000       0.20000000       0.20000000 </v>
   <v>       0.40000000       0.20000000       0.20000000 </v>
   <v>      -0.40000000       0.20000000       0.20000000 </v>
   <v>      -0.20000000       0.20000000       0.20000000 </v>
   <v>       0.00000000       0.40000000       0.20000000 </v>
   <v>       0.20000000       0.40000000       0.20000000 </v>
   <v>       0.40000000       0.40000000       0.20000000 </v>
   <v>      -0.40000000       0.40000000       0.20000000 </v>
   <v>      -0.20000000       0.40000000       0.20000000 </v>
   <v>      -0.00000000      -0.40000000       0.20000000 </v>
   <v>       0.20000000      -0.40000000       0.20000000 </v>
   <v>       0.40000000      -0.40000000       0.20000000 </v>
   <v>      -0.40000000      -0.40000000       0.20000000 </v>
   <v>      -0.20000000      -0.40000000       0.20000000 </v>
   <v>      -0.00000000      -0.20000000       0.20000000 </v>
   <v>       0.20000000      -0.20000000       0.20000000 </v>
   <v>       0.40000000      -0.20000000       0.20000000 </v>
   <v>      -0.40000000      -0.20000000       0.20000000 </v>
   <v>      -0.20000000      -0.20000000       0.20000000 </v>
   <v>       0.00000000       0.00000000       0.40000000 </v>
   <v>       0.20000000       0.00000000       0.40000000 </v>
   <v>       0.40000000       0.00000000       0.40000000 </v>
   <v>      -0.40000000       0.00000000       0.40000000 </v>
   <v>      -0.20000000       0.00000000       0.40000000 </v>
   <v>      -0.00000000       0.20000000       0.40000000 </v>
   <v>       0.20000000       0.20000000       0.40000000 </v>
   <v>       0.40000000       0.20000000       0.40000000 </v>
   <v>      -0.40000000       0.20000000       0.40000000 </v>
   <v>      -0.20000000       0.20000000       0.40000000 </v>
   <v>       0.00000000       0.40000000       0.40000000 </v>
   <v>       0.20000000       0.40000000       0.40000000 </v>
   <v>       0.40000000       0.40000000       0.40000000 </v>
   <v>      -0.40000000       0.40000000       0.40000000 </v>
   <v>      -0.20000000       0.40000000       0.40000000 </v>
   <v>      -0.00000000      -0.40000000       0.40000000 </v>
   <v>       0.20000000      -0.40000000       0.40000000 </v>
   <v>       0.40000000      -0.40000000       0.40000000 </v>
   <v>      -0.40000000      -0.40000000       0.40000000 </v>
   <v>      -0.20000000      -0.40000000       0.40000000 </v>
   <v>      -0.00000000      -0.20000000       0.40000000 </v>
   <v>       0.20000000      -0.20000000       0.40000000 </v>
   <v>       0.40000000      -0.20000000       0.40000000 </v>
   <v>      -0.40000000      -0.20000000       0.40000000 </v>
   <v>      -0.20000000      -0.20000000       0.40000000 </v>
  </varray>
  <varray name="weights" >
   <v>       0.00800000 </v>
   <v>       0.01600000 </v>
   <v>       0.01600000 </v>
   <v>       0.01600000 </v>
   <v>       0.01600000 </v>
   <v>       0.01600000 </v>
   <v>       0.01600000 </v>
   <v>       0.01600000 </v>
   <v>       0.01600000 </v>
   <v>       0.01600000 </v>
   <v>       0.01600000 </v>
   <v>       0.01600000 </v>
   <v>       0.01600000 </v>
   <v>       0.01600000 </v>
   <v>       0.01600000 </v>
   <v>       0.01600000 </v>
   <v>       0.01600000 </v>
   <v>       0.01600000 </v>
   <v>       0.01600000 </v>
   <v>       0.01600000 </v>
   <v>       0.01600000 </v>
   <v>       0.01600000 </v>
   <v>       0.01600000 </v>
   <v>       0.01600000 </v>
   <v>       0.01600000 </v>
   <v>       0.01600000 </v>
   <v>       0.01600000 </v>
   <v>       0.01600000 </v>
   <v>       0.01600000 </v>
   <v>       0.01600000 </v>
   <v>       0.01600000 </v>
   <v>       0.01600000 </v>
   <v>       0.01600000 </v>
   <v>       0.01600000 </v>
   <v>       0.01600000 </v>
   <v>       0.01600000 </v>
   <v>       0.01600000 </v>
   <v>       0.01600000 </v>
   <v>       0.01600000 </v>
   <v>       0.01600000 </v>
   <v>       0.01600000 </v>
   <v>       0.01600000 </v>
   <v>       0.01600000 </v>
   <v>       0.01600000 </v>
   <v>       0.01600000 </v>
   <v>       0.01600000 </v>
   <v>       0.01600000 </v>
   <v>       0.01600000 </v>
   <v>       0.01600000 </v>
   <v>       0.01600000 </v>
   <v>       0.01600000 </v>
   <v>       0.01600000 </v>
   <v>       0.01600000 </v>
   <v>       0.01600000 </v>
   <v>       0.01600000 </v>
   <v>       0.01600000 </v>
   <v>       0.01600000 </v>
   <v>       0.01600000 </v>
   <v>       0.01600000 </v>
   <v>       0.01600000 </v>
   <v>       0.01600000 </v>
   <v>       0.01600000 </v>
   <v>       0.01600000 </v>
  </varray>
  <varray name="tetrahedronlist"  type="int" >
   <v type="int" >        2        1        2        4       15 </v>
   <v type="int" >        2        2        4        5       15 </v>
   <v type="int" >        2        4        5       15       20 </v>
   <v type="int" >        2        1        4       14       15 </v>
   <v type="int" >        2        4       14       15       19 </v>
   <v type="int" >        2        4       15       19       20 </v>
   <v type="int" >        2        2        3        5       16 </v>
   <v type="int" >        2        3        5        6       16 </v>
   <v type="int" >        2        5        6       16       21 </v>
   <v type="int" >        2        2        5       15       16 </v>
   <v type="int" >        2        5       15       16       20 </v>
   <v type="int" >        2        5       16       20       21 </v>
   <v type="int" >        2        3        3        6       17 </v>
   <v type="int" >        2        3        6        7       17 </v>
   <v type="int" >        2        6        7       17       22 </v>
   <v type="int" >        2        3        6       16       17 </v>
   <v type="int" >        2        6       16       17       21 </v>
   <v type="int" >        2        6       17       21       22 </v>
   <v type="int" >        2        2        3        7       18 </v>
   <v type="int" >        2        2        7        8       18 </v>
   <v type="int" >        2        7        8       18       23 </v>
   <v type="int" >        2        3        7       17       18 </v>
   <v type="int" >        2        7       17       18       22 </v>
   <v type="int" >        2        7       18       22       23 </v>
   <v type="int" >        2        1        2        8       14 </v>
   <v type="int" >        2        1        4        8       14 </v>
   <v type="int" >        2        4        8       14       19 </v>
   <v type="int" >        2        2        8       14       18 </v>
   <v type="int" >        2        8       14       18       23 </v>
   <v type="int" >        2        8       14       19       23 </v>
   <v type="int" >        2        4        5        9       20 </v>
   <v type="int" >        2        5        9       10       20 </v>
   <v type="int" >        2        9       10       20       25 </v>
   <v type="int" >        2        4        9       19       20 </v>
   <v type="int" >        2        9       19       20       24 </v>
   <v type="int" >        2        9       20       24       25 </v>
   <v type="int" >        2        5        6       10       21 </v>
   <v type="int" >        2        6       10       11       21 </v>
   <v type="int" >        2       10       11       21       26 </v>
   <v type="int" >        2        5       10       20       21 </v>
   <v type="int" >        2       10       20       21       25 </v>
   <v type="int" >        2       10       21       25       26 </v>
   <v type="int" >        2        6        7       11       22 </v>
   <v type="int" >        2        7       11       12       22 </v>
   <v type="int" >        2       11       12       22       27 </v>
   <v type="int" >        2        6       11       21       22 </v>
   <v type="int" >        2       11       21       22       26 </v>
   <v type="int" >        2       11       22       26       27 </v>
   <v type="int" >        2        7        8       12       23 </v>
   <v type="int" >        2        8       12       13       23 </v>
   <v type="int" >        2       12       13       23       28 </v>
   <v type="int" >        2        7       12       22       23 </v>
   <v type="int" >        2       12       22       23       27 </v>
   <v type="int" >        2       12       23       27       28 </v>
   <v type="int" >        2        4        8       13       19 </v>
   <v type="int" >        2        4        9       13       19 </v>
   <v type="int" >        2        9       13       19       24 </v>
   <v type="int" >        2        8       13       19       23 </v>
   <v type="int" >        2       13       19       23       28 </v>
   <v type="int" >        2       13       19       24       28 </v>
   <v type="int" >        2        9        9       10       25 </v>
   <v type="int" >        2        9       10       13       25 </v>
   <v type="int" >        2        9       13       25       30 </v>
   <v type="int" >        2        9        9       24       25 </v>
   <v type="int" >        2        9       24       25       29 </v>
   <v type="int" >        2        9       25       29       30 </v>
   <v type="int" >        2       10       11       13       26 </v>
   <v type="int" >        2       11       12       13       26 </v>
   <v type="int" >        2       12       13       26       31 </v>
   <v type="int" >        2       10       13       25       26 </v>
   <v type="int" >        2       13       25       26       30 </v>
   <v type="int" >        2       13       26       30       31 </v>
   <v type="int" >        4       11       12       12       27 </v>
   <v type="int" >        2       11       12       27       32 </v>
   <v type="int" >        2       11       12       26       27 </v>
   <v type="int" >        2       12       26       27       31 </v>
   <v type="int" >        2       12       27       31       32 </v>
   <v type="int" >        2       11       12       13       28 </v>
   <v type="int" >        2       10       11       13       28 </v>
   <v type="int" >        2       10       11       28       33 </v>
   <v type="int" >        2       11       12       27       28 </v>
   <v type="int" >        2       11       27       28       32 </v>
   <v type="int" >        2       11       28       32       33 </v>
   <v type="int" >        2        9       10       13       24 </v>
   <v type="int" >        2        9        9       10       24 </v>
   <v type="int" >        2        9       10       24       29 </v>
   <v type="int" >        2       10       13       24       28 </v>
   <v type="int" >        2       10       24       28       33 </v>
   <v type="int" >        2       10       24       29       33 </v>
   <v type="int" >        2        4        9       13       30 </v>
   <v type="int" >        2        4        8       13       30 </v>
   <v type="int" >        2        4        8       30       35 </v>
   <v type="int" >        2        4        9       29       30 </v>
   <v type="int" >        2        4       29       30       34 </v>
   <v type="int" >        2        4       30       34       35 </v>
   <v type="int" >        2        8       12       13       31 </v>
   <v type="int" >        2        7        8       12       31 </v>
   <v type="int" >        2        7        8       31       36 </v>
   <v type="int" >        2        8       13       30       31 </v>
   <v type="int" >        2        8       30       31       35 </v>
   <v type="int" >        2        8       31       35       36 </v>
   <v type="int" >        2        7       11       12       32 </v>
   <v type="int" >        2        6        7       11       32 </v>
   <v type="int" >        2        6        7       32       37 </v>
   <v type="int" >        2        7       12       31       32 </v>
   <v type="int" >        2        7       31       32       36 </v>
   <v type="int" >        2        7       32       36       37 </v>
   <v type="int" >        2        6       10       11       33 </v>
   <v type="int" >        2        5        6       10       33 </v>
   <v type="int" >        2        5        6       33       38 </v>
   <v type="int" >        2        6       11       32       33 </v>
   <v type="int" >        2        6       32       33       37 </v>
   <v type="int" >        2        6       33       37       38 </v>
   <v type="int" >        2        5        9       10       29 </v>
   <v type="int" >        2        4        5        9       29 </v>
   <v type="int" >        2        4        5       29       34 </v>
   <v type="int" >        2        5       10       29       33 </v>
   <v type="int" >        2        5       29       33       38 </v>
   <v type="int" >        2        5       29       34       38 </v>
   <v type="int" >        2        1        4        8       35 </v>
   <v type="int" >        2        1        2        8       35 </v>
   <v type="int" >        2        1        2       15       35 </v>
   <v type="int" >        2        1        4       34       35 </v>
   <v type="int" >        2        1       14       34       35 </v>
   <v type="int" >        2        1       14       15       35 </v>
   <v type="int" >        2        2        7        8       36 </v>
   <v type="int" >        2        2        3        7       36 </v>
   <v type="int" >        2        2        3       16       36 </v>
   <v type="int" >        2        2        8       35       36 </v>
   <v type="int" >        2        2       15       35       36 </v>
   <v type="int" >        2        2       15       16       36 </v>
   <v type="int" >        2        3        6        7       37 </v>
   <v type="int" >        2        3        3        6       37 </v>
   <v type="int" >        2        3        3       17       37 </v>
   <v type="int" >        2        3        7       36       37 </v>
   <v type="int" >        2        3       16       36       37 </v>
   <v type="int" >        2        3       16       17       37 </v>
   <v type="int" >        2        3        5        6       38 </v>
   <v type="int" >        2        2        3        5       38 </v>
   <v type="int" >        2        2        3       18       38 </v>
   <v type="int" >        2        3        6       37       38 </v>
   <v type="int" >        2        3       17       37       38 </v>
   <v type="int" >        2        3       17       18       38 </v>
   <v type="int" >        2        2        4        5       34 </v>
   <v type="int" >        2        1        2        4       34 </v>
   <v type="int" >        2        1        2       14       34 </v>
   <v type="int" >        2        2        5       34       38 </v>
   <v type="int" >        2        2       18       34       38 </v>
   <v type="int" >        2        2       14       18       34 </v>
   <v type="int" >        2       14       15       19       40 </v>
   <v type="int" >        2       15       19       20       40 </v>
   <v type="int" >        2       19       20       40       45 </v>
   <v type="int" >        2       14       19       39       40 </v>
   <v type="int" >        2       19       39       40       44 </v>
   <v type="int" >        2       19       40       44       45 </v>
   <v type="int" >        2       15       16       20       41 </v>
   <v type="int" >        2       16       20       21       41 </v>
   <v type="int" >        2       20       21       41       46 </v>
   <v type="int" >        2       15       20       40       41 </v>
   <v type="int" >        2       20       40       41       45 </v>
   <v type="int" >        2       20       41       45       46 </v>
   <v type="int" >        2       16       17       21       42 </v>
   <v type="int" >        2       17       21       22       42 </v>
   <v type="int" >        2       21       22       42       47 </v>
   <v type="int" >        2       16       21       41       42 </v>
   <v type="int" >        2       21       41       42       46 </v>
   <v type="int" >        2       21       42       46       47 </v>
   <v type="int" >        2       17       18       22       43 </v>
   <v type="int" >        2       18       22       23       43 </v>
   <v type="int" >        2       22       23       43       48 </v>
   <v type="int" >        2       17       22       42       43 </v>
   <v type="int" >        2       22       42       43       47 </v>
   <v type="int" >        2       22       43       47       48 </v>
   <v type="int" >        2       14       18       23       39 </v>
   <v type="int" >        2       14       19       23       39 </v>
   <v type="int" >        2       19       23       39       44 </v>
   <v type="int" >        2       18       23       39       43 </v>
   <v type="int" >        2       23       39       43       48 </v>
   <v type="int" >        2       23       39       44       48 </v>
   <v type="int" >        2       19       20       24       45 </v>
   <v type="int" >        2       20       24       25       45 </v>
   <v type="int" >        2       24       25       45       50 </v>
   <v type="int" >        2       19       24       44       45 </v>
   <v type="int" >        2       24       44       45       49 </v>
   <v type="int" >        2       24       45       49       50 </v>
   <v type="int" >        2       20       21       25       46 </v>
   <v type="int" >        2       21       25       26       46 </v>
   <v type="int" >        2       25       26       46       51 </v>
   <v type="int" >        2       20       25       45       46 </v>
   <v type="int" >        2       25       45       46       50 </v>
   <v type="int" >        2       25       46       50       51 </v>
   <v type="int" >        2       21       22       26       47 </v>
   <v type="int" >        2       22       26       27       47 </v>
   <v type="int" >        2       26       27       47       52 </v>
   <v type="int" >        2       21       26       46       47 </v>
   <v type="int" >        2       26       46       47       51 </v>
   <v type="int" >        2       26       47       51       52 </v>
   <v type="int" >        2       22       23       27       48 </v>
   <v type="int" >        2       23       27       28       48 </v>
   <v type="int" >        2       27       28       48       53 </v>
   <v type="int" >        2       22       27       47       48 </v>
   <v type="int" >        2       27       47       48       52 </v>
   <v type="int" >        2       27       48       52       53 </v>
   <v type="int" >        2       19       23       28       44 </v>
   <v type="int" >        2       19       24       28       44 </v>
   <v type="int" >        2       24       28       44       49 </v>
   <v type="int" >        2       23       28       44       48 </v>
   <v type="int" >        2       28       44       48       53 </v>
   <v type="int" >        2       28       44       49       53 </v>
   <v type="int" >        2       24       25       29       50 </v>
   <v type="int" >        2       25       29       30       50 </v>
   <v type="int" >        2       29       30       50       55 </v>
   <v type="int" >        2       24       29       49       50 </v>
   <v type="int" >        2       29       49       50       54 </v>
   <v type="int" >        2       29       50       54       55 </v>
   <v type="int" >        2       25       26       30       51 </v>
   <v type="int" >        2       26       30       31       51 </v>
   <v type="int" >        2       30       31       51       56 </v>
   <v type="int" >        2       25       30       50       51 </v>
   <v type="int" >        2       30       50       51       55 </v>
   <v type="int" >        2       30       51       55       56 </v>
   <v type="int" >        2       26       27       31       52 </v>
   <v type="int" >        2       27       31       32       52 </v>
   <v type="int" >        2       31       32       52       57 </v>
   <v type="int" >        2       26       31       51       52 </v>
   <v type="int" >        2       31       51       52       56 </v>
   <v type="int" >        2       31       52       56       57 </v>
   <v type="int" >        2       27       28       32       53 </v>
   <v type="int" >        2       28       32       33       53 </v>
   <v type="int" >        2       32       33       53       58 </v>
   <v type="int" >        2       27       32       52       53 </v>
   <v type="int" >        2       32       52       53       57 </v>
   <v type="int" >        2       32       53       57       58 </v>
   <v type="int" >        2       24       28       33       49 </v>
   <v type="int" >        2       24       29       33       49 </v>
   <v type="int" >        2       29       33       49       54 </v>
   <v type="int" >        2       28       33       49       53 </v>
   <v type="int" >        2       33       49       53       58 </v>
   <v type="int" >        2       33       49       54       58 </v>
   <v type="int" >        2       29       30       34       55 </v>
   <v type="int" >        2       30       34       35       55 </v>
   <v type="int" >        2       34       35       55       60 </v>
   <v type="int" >        2       29       34       54       55 </v>
   <v type="int" >        2       34       54       55       59 </v>
   <v type="int" >        2       34       55       59       60 </v>
   <v type="int" >        2       30       31       35       56 </v>
   <v type="int" >        2       31       35       36       56 </v>
   <v type="int" >        2       35       36       56       61 </v>
   <v type="int" >        2       30       35       55       56 </v>
   <v type="int" >        2       35       55       56       60 </v>
   <v type="int" >        2       35       56       60       61 </v>
   <v type="int" >        2       31       32       36       57 </v>
   <v type="int" >        2       32       36       37       57 </v>
   <v type="int" >        2       36       37       57       62 </v>
   <v type="int" >        2       31       36       56       57 </v>
   <v type="int" >        2       36       56       57       61 </v>
   <v type="int" >        2       36       57       61       62 </v>
   <v type="int" >        2       32       33       37       58 </v>
   <v type="int" >        2       33       37       38       58 </v>
   <v type="int" >        2       37       38       58       63 </v>
   <v type="int" >        2       32       37       57       58 </v>
   <v type="int" >        2       37       57       58       62 </v>
   <v type="int" >        2       37       58       62       63 </v>
   <v type="int" >        2       29       33       38       54 </v>
   <v type="int" >        2       29       34       38       54 </v>
   <v type="int" >        2       34       38       54       59 </v>
   <v type="int" >        2       33       38       54       58 </v>
   <v type="int" >        2       38       54       58       63 </v>
   <v type="int" >        2       38       54       59       63 </v>
   <v type="int" >        2       14       34       35       60 </v>
   <v type="int" >        2       14       15       35       60 </v>
   <v type="int" >        2       14       15       40       60 </v>
   <v type="int" >        2       14       34       59       60 </v>
   <v type="int" >        2       14       39       59       60 </v>
   <v type="int" >        2       14       39       40       60 </v>
   <v type="int" >        2       15       35       36       61 </v>
   <v type="int" >        2       15       16       36       61 </v>
   <v type="int" >        2       15       16       41       61 </v>
   <v type="int" >        2       15       35       60       61 </v>
   <v type="int" >        2       15       40       60       61 </v>
   <v type="int" >        2       15       40       41       61 </v>
   <v type="int" >        2       16       36       37       62 </v>
   <v type="int" >        2       16       17       37       62 </v>
   <v type="int" >        2       16       17       42       62 </v>
   <v type="int" >        2       16       36       61       62 </v>
   <v type="int" >        2       16       41       61       62 </v>
   <v type="int" >        2       16       41       42       62 </v>
   <v type="int" >        2       17       37       38       63 </v>
   <v type="int" >        2       17       18       38       63 </v>
   <v type="int" >        2       17       18       43       63 </v>
   <v type="int" >        2       17       37       62       63 </v>
   <v type="int" >        2       17       42       62       63 </v>
   <v type="int" >        2       17       42       43       63 </v>
   <v type="int" >        2       18       34       38       59 </v>
   <v type="int" >        2       14       18       34       59 </v>
   <v type="int" >        2       14       18       39       59 </v>
   <v type="int" >        2       18       38       59       63 </v>
   <v type="int" >        2       18       43       59       63 </v>
   <v type="int" >        2       18       39       43       59 </v>
   <v type="int" >        2       39       40       43       44 </v>
   <v type="int" >        2       40       43       44       45 </v>
   <v type="int" >        2       43       44       45       63 </v>
   <v type="int" >        2       39       39       43       44 </v>
   <v type="int" >        2       39       43       44       59 </v>
   <v type="int" >        2       43       44       59       63 </v>
   <v type="int" >        2       40       41       42       45 </v>
   <v type="int" >        2       41       42       45       46 </v>
   <v type="int" >        2       42       45       46       62 </v>
   <v type="int" >        2       40       42       43       45 </v>
   <v type="int" >        2       42       43       45       63 </v>
   <v type="int" >        2       42       45       62       63 </v>
   <v type="int" >        4       41       41       42       46 </v>
   <v type="int" >        2       41       42       46       47 </v>
   <v type="int" >        2       41       46       47       61 </v>
   <v type="int" >        2       41       42       46       62 </v>
   <v type="int" >        2       41       46       61       62 </v>
   <v type="int" >        2       40       42       43       47 </v>
   <v type="int" >        2       40       43       47       48 </v>
   <v type="int" >        2       40       47       48       60 </v>
   <v type="int" >        2       40       41       42       47 </v>
   <v type="int" >        2       40       41       47       61 </v>
   <v type="int" >        2       40       47       60       61 </v>
   <v type="int" >        2       39       39       43       48 </v>
   <v type="int" >        2       39       39       44       48 </v>
   <v type="int" >        2       39       44       48       59 </v>
   <v type="int" >        2       39       40       43       48 </v>
   <v type="int" >        2       39       40       48       60 </v>
   <v type="int" >        2       39       48       59       60 </v>
   <v type="int" >        2       44       45       49       63 </v>
   <v type="int" >        2       45       49       50       63 </v>
   <v type="int" >        2       49       50       58       63 </v>
   <v type="int" >        2       44       49       59       63 </v>
   <v type="int" >        2       49       54       59       63 </v>
   <v type="int" >        2       49       54       58       63 </v>
   <v type="int" >        2       45       46       50       62 </v>
   <v type="int" >        2       46       50       51       62 </v>
   <v type="int" >        2       50       51       57       62 </v>
   <v type="int" >        2       45       50       62       63 </v>
   <v type="int" >        2       50       58       62       63 </v>
   <v type="int" >        2       50       57       58       62 </v>
   <v type="int" >        2       46       47       51       61 </v>
   <v type="int" >        2       47       51       52       61 </v>
   <v type="int" >        2       51       52       56       61 </v>
   <v type="int" >        2       46       51       61       62 </v>
   <v type="int" >        2       51       57       61       62 </v>
   <v type="int" >        2       51       56       57       61 </v>
   <v type="int" >        2       47       48       52       60 </v>
   <v type="int" >        2       48       52       53       60 </v>
   <v type="int" >        2       52       53       55       60 </v>
   <v type="int" >        2       47       52       60       61 </v>
   <v type="int" >        2       52       56       60       61 </v>
   <v type="int" >        2       52       55       56       60 </v>
   <v type="int" >        2       44       48       53       59 </v>
   <v type="int" >        2       44       49       53       59 </v>
   <v type="int" >        2       49       53       54       59 </v>
   <v type="int" >        2       48       53       59       60 </v>
   <v type="int" >        2       53       55       59       60 </v>
   <v type="int" >        2       53       54       55       59 </v>
   <v type="int" >        2       49       50       54       58 </v>
   <v type="int" >        2       50       54       55       58 </v>
   <v type="int" >        2       53       54       55       58 </v>
   <v type="int" >        4       49       54       54       58 </v>
   <v type="int" >        2       49       53       54       58 </v>
   <v type="int" >        2       50       51       55       57 </v>
   <v type="int" >        2       51       55       56       57 </v>
   <v type="int" >        2       52       55       56       57 </v>
   <v type="int" >        2       50       55       57       58 </v>
   <v type="int" >        2       53       55       57       58 </v>
   <v type="int" >        2       52       53       55       57 </v>
   <v type="int" >        2       51       52       56       56 </v>
   <v type="int" >        2       52       56       56       57 </v>
   <v type="int" >        2       51       56       56       57 </v>
  </varray>
  <i name="volumeweight">      0.00133333 </i>
 </kpoints>
 <parameters>
  <separator name="general" >
   <i type="string" name="SYSTEM">Ir_Ru</i>
   <i type="logical" name="LCOMPAT"> F  </i>
  </separator>
  <separator name="electronic" >
   <i type="string" name="PREC">accura</i>
   <i name="ENMAX">    213.27600000</i>
   <i name="ENAUG">    333.49400000</i>
   <i name="EDIFF">      0.00010000</i>
   <i type="int" name="IALGO">    38</i>
   <i type="int" name="IWAVPR">    10</i>
   <i type="int" name="NBANDS">   314</i>
   <i name="NELECT">    524.00000000</i>
   <i type="int" name="TURBO">     0</i>
   <i type="int" name="IRESTART">     0</i>
   <i type="int" name="NREBOOT">     0</i>
   <i type="int" name="NMIN">     0</i>
   <i name="EREF">      0.00000000</i>
   <separator name="electronic smearing" >
    <i type="int" name="ISMEAR">    -5</i>
    <i name="SIGMA">      0.10000000</i>
    <i name="KSPACING">      0.50000000</i>
    <i type="logical" name="KGAMMA"> T  </i>
   </separator>
   <separator name="electronic projectors" >
    <i type="logical" name="LREAL"> F  </i>
    <v name="ROPT">      0.00000000      0.00000000</v>
    <i type="int" name="LMAXPAW">  -100</i>
    <i type="int" name="LMAXMIX">     2</i>
    <i type="logical" name="NLSPLINE"> F  </i>
   </separator>
   <separator name="electronic startup" >
    <i type="int" name="ISTART">     0</i>
    <i type="int" name="ICHARG">     2</i>
    <i type="int" name="INIWAV">     1</i>
   </separator>
   <separator name="electronic spin" >
    <i type="int" name="ISPIN">     1</i>
    <i type="logical" name="LNONCOLLINEAR"> F  </i>
    <v name="MAGMOM">      1.00000000      1.00000000      1.00000000      1.00000000      1.00000000      1.00000000      1.00000000      1.00000000      1.00000000      1.00000000      1.00000000      1.00000000      1.00000000      1.00000000      1.00000000      1.00000000      1.00000000      1.00000000      1.00000000      1.00000000
      1.00000000      1.00000000      1.00000000      1.00000000      1.00000000      1.00000000      1.00000000      1.00000000      1.00000000      1.00000000      1.00000000      1.00000000      1.00000000      1.00000000      1.00000000      1.00000000      1.00000000      1.00000000      1.00000000      1.00000000
      1.00000000      1.00000000      1.00000000      1.00000000      1.00000000      1.00000000      1.00000000      1.00000000      1.00000000      1.00000000      1.00000000      1.00000000      1.00000000      1.00000000      1.00000000      1.00000000      1.00000000      1.00000000      1.00000000      1.00000000
      1.00000000      1.00000000      1.00000000      1.00000000</v>
    <i name="NUPDOWN">     -1.00000000</i>
    <i type="logical" name="LSORBIT"> F  </i>
    <v name="SAXIS">      0.00000000      0.00000000      1.00000000</v>
    <i type="logical" name="LSPIRAL"> F  </i>
    <v name="QSPIRAL">      0.00000000      0.00000000      0.00000000</v>
    <i type="logical" name="LZEROZ"> F  </i>
   </separator>
   <separator name="electronic exchange-correlation" >
    <i type="logical" name="LASPH"> F  </i>
    <i type="logical" name="LMETAGGA"> F  </i>
   </separator>
   <separator name="electronic convergence" >
    <i type="int" name="NELM">    60</i>
    <i type="int" name="NELMDL">    -5</i>
    <i type="int" name="NELMIN">     5</i>
    <i name="ENINI">    213.27600000</i>
    <separator name="electronic convergence detail" >
     <i type="logical" name="LDIAG"> T  </i>
     <i type="logical" name="LSUBROT"> F  </i>
     <i name="WEIMIN">      0.00000000</i>
     <i name="EBREAK">      0.00000000</i>
     <i name="DEPER">      0.30000000</i>
     <i type="int" name="NRMM">     4</i>
     <i name="TIME">      0.40000000</i>
    </separator>
   </separator>
   <separator name="electronic mixer" >
    <i name="AMIX">      0.40000000</i>
    <i name="BMIX">      1.00000000</i>
    <i name="AMIN">      0.10000000</i>
    <i name="AMIX_MAG">      1.60000000</i>
    <i name="BMIX_MAG">      1.00000000</i>
    <separator name="electronic mixer details" >
     <i type="int" name="IMIX">     4</i>
     <i type="logical" name="MIXFIRST"> F  </i>
     <i type="int" name="MAXMIX">   -45</i>
     <i name="WC">    100.00000000</i>
     <i type="int" name="INIMIX">     1</i>
     <i type="int" name="MIXPRE">     1</i>
     <i type="int" name="MREMOVE">     5</i>
    </separator>
   </separator>
   <separator name="electronic dipolcorrection" >
    <i type="logical" name="LDIPOL"> F  </i>
    <i type="logical" name="LMONO"> F  </i>
    <i type="int" name="IDIPOL">     0</i>
    <i name="EPSILON">      1.00000000</i>
    <v name="DIPOL">   -100.00000000   -100.00000000   -100.00000000</v>
    <i name="EFIELD">      0.00000000</i>
   </separator>
  </separator>
  <separator name="grids" >
   <i type="int" name="NGX">    56</i>
   <i type="int" name="NGY">    56</i>
   <i type="int" name="NGZ">    54</i>
   <i type="int" name="NGXF">   112</i>
   <i type="int" name="NGYF">   112</i>
   <i type="int" name="NGZF">   108</i>
   <i type="logical" name="ADDGRID"> F  </i>
  </separator>
  <separator name="ionic" >
   <i type="int" name="NSW">     0</i>
   <i type="int" name="IBRION">    -1</i>
   <i type="int" name="MDALGO">     0</i>
   <i type="int" name="ISIF">     2</i>
   <i name="PSTRESS">      0.00000000</i>
   <i name="EDIFFG">      0.00001000</i>
   <i type="int" name="NFREE">     0</i>
   <i name="POTIM">      0.50000000</i>
   <i name="SMASS">     -3.00000000</i>
   <i name="SCALEE">      1.00000000</i>
  </separator>
  <separator name="ionic md" >
   <i name="TEBEG">      0.00010000</i>
   <i name="TEEND">      0.00010000</i>
   <i type="int" name="NBLOCK">     1</i>
   <i type="int" name="KBLOCK">     1</i>
   <i type="int" name="NPACO">   256</i>
   <i name="APACO">     16.00000000</i>
  </separator>
  <separator name="symmetry" >
   <i type="int" name="ISYM">     2</i>
   <i name="SYMPREC">      0.00001000</i>
  </separator>
  <separator name="dos" >
   <i type="int" name="LORBIT">     0</i>
   <v name="RWIGS">     -1.00000000     -1.00000000</v>
   <i type="int" name="NEDOS">   301</i>
   <i name="EMIN">     10.00000000</i>
   <i name="EMAX">    -10.00000000</i>
   <i name="EFERMI">      0.00000000</i>
  </separator>
  <separator name="writing" >
   <i type="int" name="NWRITE">     2</i>
   <i type="logical" name="LWAVE"> T  </i>
   <i type="logical" name="LDOWNSAMPLE"> F  </i>
   <i type="logical" name="LCHARG"> T  </i>
   <i type="logical" name="LPARD"> F  </i>
   <i type="logical" name="LVTOT"> F  </i>
   <i type="logical" name="LVHAR"> F  </i>
   <i type="logical" name="LELF"> F  </i>
   <i type="logical" name="LOPTICS"> F  </i>
   <v name="STM">      0.00000000      0.00000000      0.00000000      0.00000000      0.00000000      0.00000000      0.00000000</v>
  </separator>
  <separator name="performance" >
   <i type="int" name="NPAR">     1</i>
   <i type="int" name="NSIM">     4</i>
   <i type="int" name="NBLK">    -1</i>
   <i type="logical" name="LPLANE"> T  </i>
   <i type="logical" name="LSCALAPACK"> F  </i>
   <i type="logical" name="LSCAAWARE"> F  </i>
   <i type="logical" name="LSCALU"> F  </i>
   <i type="logical" name="LASYNC"> F  </i>
   <i type="logical" name="LORBITALREAL"> F  </i>
  </separator>
  <separator name="miscellaneous" >
   <i type="int" name="IDIOT">     3</i>
   <i type="int" name="ISPECIAL">     0</i>
   <i type="logical" name="LMUSIC"> F  </i>
   <v name="POMASS">    192.22000000    101.07000000</v>
   <v name="DARWINR">      0.00000000      0.00000000</v>
   <v name="DARWINV">      1.00000000      1.00000000</v>
   <i type="logical" name="LCORR"> T  </i>
  </separator>
  <i type="logical" name="GGA_COMPAT"> T  </i>
  <i type="logical" name="LBERRY"> F  </i>
  <i type="int" name="ICORELEVEL">     0</i>
  <i type="logical" name="LDAU"> F  </i>
  <i type="int" name="I_CONSTRAINED_M">     0</i>
  <separator name="electronic exchange-correlation" >
   <i type="string" name="GGA">--</i>
   <i type="int" name="VOSKOWN">     0</i>
   <i type="logical" name="LHFCALC"> F  </i>
   <i type="string" name="PRECFOCK"></i>
   <i type="logical" name="LSYMGRAD"> F  </i>
   <i type="logical" name="LHFONE"> F  </i>
   <i type="logical" name="LRHFCALC"> F  </i>
   <i type="logical" name="LTHOMAS"> F  </i>
   <i type="logical" name="LMODELHF"> F  </i>
   <i name="ENCUT4O">     -1.00000000</i>
   <i type="int" name="EXXOEP">     0</i>
   <i type="int" name="FOURORBIT">     0</i>
   <i name="AEXX">      0.00000000</i>
   <i name="HFALPHA">      0.00000000</i>
   <i name="MCALPHA">      0.00000000</i>
   <i name="ALDAX">      1.00000000</i>
   <i name="AGGAX">      1.00000000</i>
   <i name="ALDAC">      1.00000000</i>
   <i name="AGGAC">      1.00000000</i>
   <i type="int" name="NKREDX">     1</i>
   <i type="int" name="NKREDY">     1</i>
   <i type="int" name="NKREDZ">     1</i>
   <i type="logical" name="SHIFTRED"> F  </i>
   <i type="logical" name="ODDONLY"> F  </i>
   <i type="logical" name="EVENONLY"> F  </i>
   <i type="int" name="LMAXFOCK">     0</i>
   <i type="int" name="NMAXFOCKAE">     0</i>
   <i type="logical" name="LFOCKAEDFT"> F  </i>
   <i name="HFSCREEN">      0.00000000</i>
   <i name="HFSCREENC">      0.00000000</i>
   <i type="int" name="NBANDSGWLOW">     0</i>
  </separator>
  <separator name="vdW DFT" >
   <i type="logical" name="LUSE_VDW"> F  </i>
   <i name="Zab_VDW">     -0.84910000</i>
   <i name="PARAM1">      0.12340000</i>
   <i name="PARAM2">      1.00000000</i>
   <i name="PARAM3">      0.00000000</i>
  </separator>
  <separator name="model GW" >
   <i type="int" name="MODEL_GW">     0</i>
   <i name="MODEL_EPS0">      8.38408582</i>
   <i name="MODEL_ALPHA">      1.00000000</i>
  </separator>
  <separator name="linear response parameters" >
   <i type="logical" name="LEPSILON"> F  </i>
   <i type="logical" name="LRPA"> F  </i>
   <i type="logical" name="LNABLA"> F  </i>
   <i type="logical" name="LVEL"> F  </i>
   <i type="int" name="KINTER">     0</i>
   <i name="CSHIFT">      0.10000000</i>
   <i name="OMEGAMAX">     -1.00000000</i>
   <i name="DEG_THRESHOLD">      0.00200000</i>
   <i name="RTIME">     -0.10000000</i>
   <i name="WPLASMAI">      0.00000000</i>
   <v name="DFIELD">      0.00000000      0.00000000      0.00000000</v>
   <v name="WPLASMA">      0.00000000      0.00000000      0.00000000      0.00000000      0.00000000      0.00000000      0.00000000      0.00000000      0.00000000</v>
  </separator>
  <separator name="orbital magnetization" >
   <i type="logical" name="NUCIND"> F  </i>
   <v name="MAGPOS">      0.00000000      0.00000000      0.00000000</v>
   <i type="logical" name="LNICSALL"> T  </i>
   <i type="logical" name="ORBITALMAG"> F  </i>
   <i type="logical" name="LMAGBLOCH"> F  </i>
   <i type="logical" name="LCHIMAG"> F  </i>
   <i type="logical" name="LGAUGE"> T  </i>
   <i type="int" name="MAGATOM">     0</i>
   <v name="MAGDIPOL">      0.00000000      0.00000000      0.00000000</v>
   <v name="AVECCONST">      0.00000000      0.00000000      0.00000000</v>
  </separator>
  <separator name="response functions" >
   <i type="logical" name="LADDER"> F  </i>
   <i type="logical" name="LRPAFORCE"> F  </i>
   <i type="logical" name="LFXC"> F  </i>
   <i type="logical" name="LHARTREE"> T  </i>
   <i type="int" name="IBSE">     0</i>
   <v type="int" name="KPOINT">    -1     0     0     0</v>
   <i type="logical" name="LTCTE"> F  </i>
   <i type="logical" name="LTETE"> F  </i>
   <i type="logical" name="LTRIPLET"> F  </i>
   <i type="logical" name="LFXCEPS"> F  </i>
   <i type="logical" name="LFXHEG"> F  </i>
   <i type="int" name="NATURALO">     2</i>
   <i type="logical" name="L2ORDER"> F  </i>
   <i type="logical" name="LMP2LT"> F  </i>
   <i type="logical" name="LUSEW"> F  </i>
   <i name="ENCUTGW">     -2.00000000</i>
   <i name="ENCUTGWSOFT">     -2.00000000</i>
   <i name="ENCUTLF">     -1.00000000</i>
   <i type="int" name="LMAXMP2">    -1</i>
   <i name="SCISSOR">      0.00000000</i>
   <i type="int" name="NOMEGA">     0</i>
   <i type="int" name="NOMEGAR">     0</i>
   <i type="int" name="NBANDSGW">    -1</i>
   <i type="int" name="NBANDSO">    -1</i>
   <i type="int" name="NBANDSV">    -1</i>
   <i type="int" name="NELM">     1</i>
   <i type="int" name="NELMHF">     1</i>
   <i type="int" name="DIM">     3</i>
   <i type="int" name="ANTIRES">     0</i>
   <i name="OMEGAMAX">    -30.00000000</i>
   <i name="OMEGAMIN">    -30.00000000</i>
   <i name="OMEGATL">   -200.00000000</i>
   <i type="int" name="OMEGAGRID">   140</i>
   <i name="CSHIFT">     -0.10000000</i>
   <i type="logical" name="SELFENERGY"> F  </i>
   <i type="logical" name="LSPECTRAL"> F  </i>
   <i type="logical" name="LSPECTRALGW"> F  </i>
   <i type="logical" name="LSINGLES"> F  </i>
   <i type="logical" name="LFERMIGW"> F  </i>
   <i type="logical" name="ODDONLYGW"> F  </i>
   <i type="logical" name="EVENONLYGW"> F  </i>
   <i type="int" name="NKREDLFX">     1</i>
   <i type="int" name="NKREDLFY">     1</i>
   <i type="int" name="NKREDLFZ">     1</i>
   <i type="int" name="MAXMEM">  2800</i>
   <i type="int" name="TELESCOPE">     0</i>
   <i type="int" name="TAUPAR">     1</i>
   <i type="int" name="OMEGAPAR">    -1</i>
   <i name="LAMBDA">      1.00000000</i>
  </separator>
  <separator name="External order field" >
   <i name="OFIELD_KAPPA">      0.00000000</i>
   <v name="OFIELD_K">      0.00000000      0.00000000      0.00000000</v>
   <i name="OFIELD_Q6_NEAR">      0.00000000</i>
   <i name="OFIELD_Q6_FAR">      0.00000000</i>
   <i name="OFIELD_A">      0.00000000</i>
  </separator>
 </parameters>
 <atominfo>
  <atoms>      64 </atoms>
  <types>       2 </types>
  <array name="atoms" >
   <dimension dim="1">ion</dimension>
   <field type="string">element</field>
   <field type="int">atomtype</field>
   <set>
    <rc><c>Ir</c><c>   1</c></rc>
    <rc><c>Ir</c><c>   1</c></rc>
    <rc><c>Ir</c><c>   1</c></rc>
    <rc><c>Ir</c><c>   1</c></rc>
    <rc><c>Ir</c><c>   1</c></rc>
    <rc><c>Ir</c><c>   1</c></rc>
    <rc><c>Ir</c><c>   1</c></rc>
    <rc><c>Ir</c><c>   1</c></rc>
    <rc><c>Ir</c><c>   1</c></rc>
    <rc><c>Ir</c><c>   1</c></rc>
    <rc><c>Ir</c><c>   1</c></rc>
    <rc><c>Ir</c><c>   1</c></rc>
    <rc><c>Ru</c><c>   2</c></rc>
    <rc><c>Ru</c><c>   2</c></rc>
    <rc><c>Ru</c><c>   2</c></rc>
    <rc><c>Ru</c><c>   2</c></rc>
    <rc><c>Ru</c><c>   2</c></rc>
    <rc><c>Ru</c><c>   2</c></rc>
    <rc><c>Ru</c><c>   2</c></rc>
    <rc><c>Ru</c><c>   2</c></rc>
    <rc><c>Ru</c><c>   2</c></rc>
    <rc><c>Ru</c><c>   2</c></rc>
    <rc><c>Ru</c><c>   2</c></rc>
    <rc><c>Ru</c><c>   2</c></rc>
    <rc><c>Ru</c><c>   2</c></rc>
    <rc><c>Ru</c><c>   2</c></rc>
    <rc><c>Ru</c><c>   2</c></rc>
    <rc><c>Ru</c><c>   2</c></rc>
    <rc><c>Ru</c><c>   2</c></rc>
    <rc><c>Ru</c><c>   2</c></rc>
    <rc><c>Ru</c><c>   2</c></rc>
    <rc><c>Ru</c><c>   2</c></rc>
    <rc><c>Ru</c><c>   2</c></rc>
    <rc><c>Ru</c><c>   2</c></rc>
    <rc><c>Ru</c><c>   2</c></rc>
    <rc><c>Ru</c><c>   2</c></rc>
    <rc><c>Ru</c><c>   2</c></rc>
    <rc><c>Ru</c><c>   2</c></rc>
    <rc><c>Ru</c><c>   2</c></rc>
    <rc><c>Ru</c><c>   2</c></rc>
    <rc><c>Ru</c><c>   2</c></rc>
    <rc><c>Ru</c><c>   2</c></rc>
    <rc><c>Ru</c><c>   2</c></rc>
    <rc><c>Ru</c><c>   2</c></rc>
    <rc><c>Ru</c><c>   2</c></rc>
    <rc><c>Ru</c><c>   2</c></rc>
    <rc><c>Ru</c><c>   2</c></rc>
    <rc><c>Ru</c><c>   2</c></rc>
    <rc><c>Ru</c><c>   2</c></rc>
    <rc><c>Ru</c><c>   2</c></rc>
    <rc><c>Ru</c><c>   2</c></rc>
    <rc><c>Ru</c><c>   2</c></rc>
    <rc><c>Ru</c><c>   2</c></rc>
    <rc><c>Ru</c><c>   2</c></rc>
    <rc><c>Ru</c><c>   2</c></rc>
    <rc><c>Ru</c><c>   2</c></rc>
    <rc><c>Ru</c><c>   2</c></rc>
    <rc><c>Ru</c><c>   2</c></rc>
    <rc><c>Ru</c><c>   2</c></rc>
    <rc><c>Ru</c><c>   2</c></rc>
    <rc><c>Ru</c><c>   2</c></rc>
    <rc><c>Ru</c><c>   2</c></rc>
    <rc><c>Ru</c><c>   2</c></rc>
    <rc><c>Ru</c><c>   2</c></rc>
   </set>
  </array>
  <array name="atomtypes" >
   <dimension dim="1">type</dimension>
   <field type="int">atomspertype</field>
   <field type="string">element</field>
   <field>mass</field>
   <field>valence</field>
   <field type="string">pseudopotential</field>
   <set>
    <rc><c>  12</c><c>Ir</c><c>    192.22000000</c><c>      9.00000000</c><c> PAW_PBE Ir 06Sep2000                   </c></rc>
    <rc><c>  52</c><c>Ru</c><c>    101.07000000</c><c>      8.00000000</c><c> PAW_PBE Ru 06Sep2000                   </c></rc>
   </set>
  </array>
 </atominfo>
 <structure name="initialpos" >
  <crystal>
   <varray name="basis" >
    <v>      -3.82474074      -7.64405614       7.64418186 </v>
    <v>      -3.82474074       7.64405614      -7.64418186 </v>
    <v>       0.00000000      -7.64700609      -7.64713183 </v>
   </varray>
   <i name="volume">    894.30248777 </i>
   <varray name="rec_basis" >
    <v>      -0.13072782      -0.03270515       0.03270461 </v>
    <v>      -0.13072782       0.03270515      -0.03270461 </v>
    <v>       0.00000000      -0.06538507      -0.06538399 </v>
   </varray>
  </crystal>
  <varray name="positions" >
   <v>       0.12492167       0.87507833       0.74983754 </v>
   <v>       0.37496488       0.62503512       0.75021428 </v>
   <v>       0.25020862       0.74979138       0.50020599 </v>
   <v>       0.12491803       0.87508197       0.25015688 </v>
   <v>       0.62508316       0.37491684       0.75020439 </v>
   <v>       0.50007706       0.49992294       0.49984832 </v>
   <v>       0.25003996       0.74996004       0.99977909 </v>
   <v>       0.87502917       0.12497083       0.74983674 </v>
   <v>       0.74979245       0.25020755       0.49988118 </v>
   <v>       0.50007742       0.49992258       0.00013175 </v>
   <v>       0.99991900       0.00008100       0.99977280 </v>
   <v>       0.74996453       0.25003547       0.00011292 </v>
   <v>       0.99991605       0.00008395       0.50030593 </v>
   <v>       0.37473754       0.62526246       0.24976714 </v>
   <v>       0.62510468       0.37489532       0.24975951 </v>
   <v>       0.87524152       0.12475848       0.25018170 </v>
   <v>       0.12454200       0.87545800       0.49986366 </v>
   <v>       0.37494206       0.62505794       0.49921160 </v>
   <v>       0.25040862       0.74959138       0.25011189 </v>
   <v>       0.12492538       0.87507462       0.00017416 </v>
   <v>       0.62512125       0.37487875       0.49902846 </v>
   <v>       0.50014678       0.49985322       0.24991257 </v>
   <v>       0.99951874       0.00048126       0.25076080 </v>
   <v>       0.37509187       0.62490813       0.00082231 </v>
   <v>       0.25000659       0.74999341       0.74988516 </v>
   <v>       0.87541260       0.12458740       0.49918458 </v>
   <v>       0.74990352       0.25009648       0.25010613 </v>
   <v>       0.62497401       0.37502599       0.00100880 </v>
   <v>       0.49996509       0.50003491       0.75002571 </v>
   <v>       0.99993286       0.00006714       0.74923058 </v>
   <v>       0.87500587       0.12499413       0.00079223 </v>
   <v>       0.75009740       0.24990260       0.74988992 </v>
   <v>       0.93775203       0.56243884       0.62470269 </v>
   <v>       0.18705201       0.31148469       0.62447409 </v>
   <v>       0.06300072       0.43708042       0.37403059 </v>
   <v>       0.93637435       0.56210333       0.12568806 </v>
   <v>       0.43756116       0.06224797       0.62470269 </v>
   <v>       0.31259957       0.18746555       0.37495286 </v>
   <v>       0.81253445       0.68740043       0.37495286 </v>
   <v>       0.18709928       0.31306254       0.12593395 </v>
   <v>       0.06266842       0.43761177       0.87490914 </v>
   <v>       0.68851531       0.81294799       0.62447409 </v>
   <v>       0.56291958       0.93699928       0.37403059 </v>
   <v>       0.43789667       0.06362565       0.12568806 </v>
   <v>       0.31233426       0.18763394       0.87530573 </v>
   <v>       0.81236606       0.68766574       0.87530573 </v>
   <v>       0.68693746       0.81290072       0.12593395 </v>
   <v>       0.56238823       0.93733158       0.87490914 </v>
   <v>       0.81289525       0.68863331       0.62425321 </v>
   <v>       0.06250453       0.43763808       0.62492147 </v>
   <v>       0.93654817       0.56206558       0.37450645 </v>
   <v>       0.81199212       0.68644590       0.12547169 </v>
   <v>       0.31136669       0.18710475       0.62425321 </v>
   <v>       0.18649953       0.31203133       0.37447815 </v>
   <v>       0.68796867       0.81350047       0.37447815 </v>
   <v>       0.06317765       0.43703591       0.12615573 </v>
   <v>       0.93757045       0.56244686       0.87512532 </v>
   <v>       0.56236192       0.93749547       0.62492147 </v>
   <v>       0.43793442       0.06345183       0.37450645 </v>
   <v>       0.31355410       0.18800788       0.12547169 </v>
   <v>       0.18759315       0.31247379       0.87508851 </v>
   <v>       0.68752621       0.81240685       0.87508851 </v>
   <v>       0.56296409       0.93682235       0.12615573 </v>
   <v>       0.43755314       0.06242955       0.87512532 </v>
  </varray>
 </structure>
 <calculation>
  <scstep>
   <time name="dav">   49.38   49.38</time>
   <time name="total">   49.55   49.56</time>
   <energy>
    <i name="alphaZ">   4113.40730713 </i>
    <i name="ewald"> -37078.09770770 </i>
    <i name="hartreedc">  -2542.32974312 </i>
    <i name="XCdc">  -1877.22829153 </i>
    <i name="pawpsdc">  25334.45116696 </i>
    <i name="pawaedc"> -22284.62537159 </i>
    <i name="eentropy">      0.00000000 </i>
    <i name="bandstr">   6615.14142510 </i>
    <i name="atom">  30379.55667026 </i>
    <i name="e_fr_energy">   2660.27545553 </i>
    <i name="e_wo_entrp">   2660.27545553 </i>
    <i name="e_0_energy">   2660.27545553 </i>
   </energy>
  </scstep>
  <scstep>
   <time name="dav">   49.23   49.26</time>
   <time name="total">   49.36   49.38</time>
   <energy>
    <i name="e_fr_energy">   -352.54479093 </i>
    <i name="e_wo_entrp">   -352.54479093 </i>
    <i name="e_0_energy">   -352.54479093 </i>
   </energy>
  </scstep>
  <scstep>
   <time name="dav">   67.40   67.41</time>
   <time name="total">   67.53   67.53</time>
   <energy>
    <i name="e_fr_energy">   -603.02278345 </i>
    <i name="e_wo_entrp">   -603.02278345 </i>
    <i name="e_0_energy">   -603.02278345 </i>
   </energy>
  </scstep>
  <scstep>
   <time name="dav">   63.67   63.68</time>
   <time name="total">   63.80   63.80</time>
   <energy>
    <i name="e_fr_energy">   -622.14014356 </i>
    <i name="e_wo_entrp">   -622.14014356 </i>
    <i name="e_0_energy">   -622.14014356 </i>
   </energy>
  </scstep>
  <scstep>
   <time name="dav">   64.08   64.08</time>
   <time name="total">   66.22   66.22</time>
   <energy>
    <i name="e_fr_energy">   -622.86712416 </i>
    <i name="e_wo_entrp">   -622.86712416 </i>
    <i name="e_0_energy">   -622.86712416 </i>
   </energy>
  </scstep>
  <scstep>
   <time name="dav">   64.83   64.84</time>
   <time name="total">   67.01   67.01</time>
   <energy>
    <i name="e_fr_energy">   -592.93199518 </i>
    <i name="e_wo_entrp">   -592.93199518 </i>
    <i name="e_0_energy">   -592.93199518 </i>
   </energy>
  </scstep>
  <scstep>
   <time name="dav">   73.26   73.29</time>
   <time name="total">   75.44   75.46</time>
   <energy>
    <i name="e_fr_energy">   -600.28548593 </i>
    <i name="e_wo_entrp">   -600.28548593 </i>
    <i name="e_0_energy">   -600.28548593 </i>
   </energy>
  </scstep>
  <scstep>
   <time name="dav">   80.12   80.13</time>
   <time name="total">   82.29   82.30</time>
   <energy>
    <i name="e_fr_energy">   -585.28884764 </i>
    <i name="e_wo_entrp">   -585.28884764 </i>
    <i name="e_0_energy">   -585.28884764 </i>
   </energy>
  </scstep>
  <scstep>
   <time name="dav">   73.14   73.14</time>
   <time name="total">   75.31   75.32</time>
   <energy>
    <i name="e_fr_energy">   -582.44906817 </i>
    <i name="e_wo_entrp">   -582.44906817 </i>
    <i name="e_0_energy">   -582.44906817 </i>
   </energy>
  </scstep>
  <scstep>
   <time name="dav">   66.75   66.76</time>
   <time name="total">   68.93   68.94</time>
   <energy>
    <i name="e_fr_energy">   -582.20746684 </i>
    <i name="e_wo_entrp">   -582.20746684 </i>
    <i name="e_0_energy">   -582.20746684 </i>
   </energy>
  </scstep>
  <scstep>
   <time name="dav">   70.61   70.62</time>
   <time name="total">   72.79   72.79</time>
   <energy>
    <i name="e_fr_energy">   -582.08773646 </i>
    <i name="e_wo_entrp">   -582.08773646 </i>
    <i name="e_0_energy">   -582.08773646 </i>
   </energy>
  </scstep>
  <scstep>
   <time name="dav">   71.31   71.32</time>
   <time name="total">   73.49   73.50</time>
   <energy>
    <i name="e_fr_energy">   -582.02571931 </i>
    <i name="e_wo_entrp">   -582.02571931 </i>
    <i name="e_0_energy">   -582.02571931 </i>
   </energy>
  </scstep>
  <scstep>
   <time name="dav">   68.89   68.90</time>
   <time name="total">   71.06   71.07</time>
   <energy>
    <i name="e_fr_energy">   -581.99895339 </i>
    <i name="e_wo_entrp">   -581.99895339 </i>
    <i name="e_0_energy">   -581.99895339 </i>
   </energy>
  </scstep>
  <scstep>
   <time name="dav">   69.05   69.06</time>
   <time name="total">   71.23   71.23</time>
   <energy>
    <i name="e_fr_energy">   -581.98646554 </i>
    <i name="e_wo_entrp">   -581.98646554 </i>
    <i name="e_0_energy">   -581.98646554 </i>
   </energy>
  </scstep>
  <scstep>
   <time name="dav">   71.55   71.59</time>
   <time name="total">   73.72   73.76</time>
   <energy>
    <i name="e_fr_energy">   -581.98592306 </i>
    <i name="e_wo_entrp">   -581.98592306 </i>
    <i name="e_0_energy">   -581.98592306 </i>
   </energy>
  </scstep>
  <scstep>
   <time name="dav">   72.28   72.29</time>
   <time name="total">   74.46   74.47</time>
   <energy>
    <i name="e_fr_energy">   -581.98571551 </i>
    <i name="e_wo_entrp">   -581.98571551 </i>
    <i name="e_0_energy">   -581.98571551 </i>
   </energy>
  </scstep>
  <scstep>
   <time name="dav">   70.69   70.70</time>
   <time name="total">   72.86   72.87</time>
   <energy>
    <i name="e_fr_energy">   -581.98550824 </i>
    <i name="e_wo_entrp">   -581.98550824 </i>
    <i name="e_0_energy">   -581.98550824 </i>
   </energy>
  </scstep>
  <scstep>
   <time name="dav">   72.09   72.10</time>
   <time name="total">   72.25   72.26</time>
   <energy>
    <i name="alphaZ">   4113.40730713 </i>
    <i name="ewald"> -37078.09770770 </i>
    <i name="hartreedc">  -1953.04950340 </i>
    <i name="XCdc">  -1880.93433989 </i>
    <i name="pawpsdc">  28921.60465473 </i>
    <i name="pawaedc"> -26029.25471140 </i>
    <i name="eentropy">      0.00000000 </i>
    <i name="bandstr">   2944.78215875 </i>
    <i name="atom">  30379.55667026 </i>
    <i name="e_fr_energy">   -581.98547151 </i>
    <i name="e_wo_entrp">   -581.98547151 </i>
    <i name="e_0_energy">   -581.98547151 </i>
   </energy>
  </scstep>
  <structure>
   <crystal>
    <varray name="basis" >
     <v>      -3.82474074      -7.64405614       7.64418186 </v>
     <v>      -3.82474074       7.64405614      -7.64418186 </v>
     <v>       0.00000000      -7.64700609      -7.64713183 </v>
    </varray>
    <i name="volume">    894.30248777 </i>
    <varray name="rec_basis" >
     <v>      -0.13072782      -0.03270515       0.03270461 </v>
     <v>      -0.13072782       0.03270515      -0.03270461 </v>
     <v>       0.00000000      -0.06538507      -0.06538399 </v>
    </varray>
   </crystal>
   <varray name="positions" >
    <v>       0.12492167       0.87507833       0.74983754 </v>
    <v>       0.37496488       0.62503512       0.75021428 </v>
    <v>       0.25020862       0.74979138       0.50020599 </v>
    <v>       0.12491803       0.87508197       0.25015688 </v>
    <v>       0.62508316       0.37491684       0.75020439 </v>
    <v>       0.50007706       0.49992294       0.49984832 </v>
    <v>       0.25003996       0.74996004       0.99977909 </v>
    <v>       0.87502917       0.12497083       0.74983674 </v>
    <v>       0.74979245       0.25020755       0.49988118 </v>
    <v>       0.50007742       0.49992258       0.00013175 </v>
    <v>       0.99991900       0.00008100       0.99977280 </v>
    <v>       0.74996453       0.25003547       0.00011292 </v>
    <v>       0.99991605       0.00008395       0.50030593 </v>
    <v>       0.37473754       0.62526246       0.24976714 </v>
    <v>       0.62510468       0.37489532       0.24975951 </v>
    <v>       0.87524152       0.12475848       0.25018170 </v>
    <v>       0.12454200       0.87545800       0.49986366 </v>
    <v>       0.37494206       0.62505794       0.49921160 </v>
    <v>       0.25040862       0.74959138       0.25011189 </v>
    <v>       0.12492538       0.87507462       0.00017416 </v>
    <v>       0.62512125       0.37487875       0.49902846 </v>
    <v>       0.50014678       0.49985322       0.24991257 </v>
    <v>       0.99951874       0.00048126       0.25076080 </v>
    <v>       0.37509187       0.62490813       0.00082231 </v>
    <v>       0.25000659       0.74999341       0.74988516 </v>
    <v>       0.87541260       0.12458740       0.49918458 </v>
    <v>       0.74990352       0.25009648       0.25010613 </v>
    <v>       0.62497401       0.37502599       0.00100880 </v>
    <v>       0.49996509       0.50003491       0.75002571 </v>
    <v>       0.99993286       0.00006714       0.74923058 </v>
    <v>       0.87500587       0.12499413       0.00079223 </v>
    <v>       0.75009740       0.24990260       0.74988992 </v>
    <v>       0.93775203       0.56243884       0.62470269 </v>
    <v>       0.18705201       0.31148469       0.62447409 </v>
    <v>       0.06300072       0.43708042       0.37403059 </v>
    <v>       0.93637435       0.56210333       0.12568806 </v>
    <v>       0.43756116       0.06224797       0.62470269 </v>
    <v>       0.31259957       0.18746555       0.37495286 </v>
    <v>       0.81253445       0.68740043       0.37495286 </v>
    <v>       0.18709928       0.31306254       0.12593395 </v>
    <v>       0.06266842       0.43761177       0.87490914 </v>
    <v>       0.68851531       0.81294799       0.62447409 </v>
    <v>       0.56291958       0.93699928       0.37403059 </v>
    <v>       0.43789667       0.06362565       0.12568806 </v>
    <v>       0.31233426       0.18763394       0.87530573 </v>
    <v>       0.81236606       0.68766574       0.87530573 </v>
    <v>       0.68693746       0.81290072       0.12593395 </v>
    <v>       0.56238823       0.93733158       0.87490914 </v>
    <v>       0.81289525       0.68863331       0.62425321 </v>
    <v>       0.06250453       0.43763808       0.62492147 </v>
    <v>       0.93654817       0.56206558       0.37450645 </v>
    <v>       0.81199212       0.68644590       0.12547169 </v>
    <v>       0.31136669       0.18710475       0.62425321 </v>
    <v>       0.18649953       0.31203133       0.37447815 </v>
    <v>       0.68796867       0.81350047       0.37447815 </v>
    <v>       0.06317765       0.43703591       0.12615573 </v>
    <v>       0.93757045       0.56244686       0.87512532 </v>
    <v>       0.56236192       0.93749547       0.62492147 </v>
    <v>       0.43793442       0.06345183       0.37450645 </v>
    <v>       0.31355410       0.18800788       0.12547169 </v>
    <v>       0.18759315       0.31247379       0.87508851 </v>
    <v>       0.68752621       0.81240685       0.87508851 </v>
    <v>       0.56296409       0.93682235       0.12615573 </v>
    <v>       0.43755314       0.06242955       0.87512532 </v>
   </varray>
  </structure>
  <varray name="forces" >
   <v>       0.00000489      -0.00095365      -0.00094269 </v>
   <v>       0.00000196       0.00084009      -0.00271761 </v>
   <v>       0.00000005      -0.00573347      -0.00486014 </v>
   <v>       0.00000633       0.00141585       0.00239894 </v>
   <v>      -0.00000372      -0.00293626       0.00053176 </v>
   <v>      -0.00000425      -0.00625125      -0.00460354 </v>
   <v>       0.00000922       0.00271354       0.00502094 </v>
   <v>      -0.00000040      -0.00300154       0.00087816 </v>
   <v>       0.00000138      -0.00200772      -0.00265080 </v>
   <v>      -0.00000725       0.00365503       0.00199717 </v>
   <v>       0.00000434       0.00212514       0.00124156 </v>
   <v>      -0.00000561       0.00495520       0.00116128 </v>
   <v>       0.00000612      -0.00310202      -0.00529403 </v>
   <v>      -0.00000299       0.00542783      -0.00055960 </v>
   <v>      -0.00001240      -0.00002083       0.00357349 </v>
   <v>      -0.00000017      -0.00005475       0.00365871 </v>
   <v>       0.00000872      -0.00233174      -0.00594621 </v>
   <v>       0.00000018      -0.00105544      -0.00256860 </v>
   <v>       0.00000585       0.00144343       0.00159497 </v>
   <v>       0.00001056       0.00211497       0.00271509 </v>
   <v>      -0.00000883      -0.00016168       0.00181876 </v>
   <v>      -0.00000621       0.00005040       0.00692918 </v>
   <v>       0.00000770      -0.00179722      -0.00441169 </v>
   <v>      -0.00000382       0.00475227       0.00119478 </v>
   <v>       0.00000476       0.00036840      -0.00072771 </v>
   <v>      -0.00000037      -0.00436099      -0.00092731 </v>
   <v>      -0.00000311       0.00379564      -0.00413204 </v>
   <v>      -0.00001107      -0.00327188       0.00344994 </v>
   <v>      -0.00000334       0.00141051      -0.00081236 </v>
   <v>       0.00000575      -0.00100166      -0.00001080 </v>
   <v>       0.00000350       0.00023297       0.00273226 </v>
   <v>      -0.00000701      -0.00004394      -0.00098898 </v>
   <v>      -0.00104097      -0.00658138       0.00831937 </v>
   <v>      -0.00406499      -0.00399677       0.01032000 </v>
   <v>       0.00147951       0.00334330       0.00616485 </v>
   <v>      -0.00262559       0.00532431      -0.00353700 </v>
   <v>       0.00104184      -0.00658327       0.00832209 </v>
   <v>      -0.00023653      -0.00532688      -0.00312089 </v>
   <v>       0.00023606      -0.00532564      -0.00312615 </v>
   <v>      -0.00304908       0.00060142      -0.00695554 </v>
   <v>       0.00157758       0.00441164      -0.00364125 </v>
   <v>       0.00406572      -0.00400116       0.01032018 </v>
   <v>      -0.00147701       0.00334431       0.00616731 </v>
   <v>       0.00262534       0.00532195      -0.00353997 </v>
   <v>       0.00060247       0.00261434      -0.00786089 </v>
   <v>      -0.00060168       0.00261336      -0.00785952 </v>
   <v>       0.00305074       0.00060401      -0.00694703 </v>
   <v>      -0.00158108       0.00440866      -0.00363902 </v>
   <v>       0.00024284       0.01421118      -0.00215352 </v>
   <v>       0.00130727       0.00659608      -0.00683068 </v>
   <v>       0.00062312       0.00241465      -0.00133545 </v>
   <v>       0.00029189      -0.00247602       0.00390665 </v>
   <v>      -0.00024290       0.01421117      -0.00215656 </v>
   <v>      -0.00193034       0.00219899       0.00095168 </v>
   <v>       0.00192768       0.00219822       0.00095437 </v>
   <v>       0.00232241      -0.00991382       0.00027708 </v>
   <v>      -0.00142217      -0.00695985       0.00329334 </v>
   <v>      -0.00130625       0.00660335      -0.00682813 </v>
   <v>      -0.00062186       0.00241182      -0.00133706 </v>
   <v>      -0.00029129      -0.00247361       0.00390811 </v>
   <v>      -0.00202206      -0.00506415       0.00282572 </v>
   <v>       0.00202111      -0.00506797       0.00282296 </v>
   <v>      -0.00232035      -0.00991881       0.00027464 </v>
   <v>       0.00141783      -0.00695865       0.00329744 </v>
  </varray>
  <varray name="stress" >
   <v>     -23.72007285      -0.00042759       0.00006743 </v>
   <v>      -0.00042739     -24.19296469      -0.01936306 </v>
   <v>       0.00006734      -0.01936314     -23.83644493 </v>
  </varray>
  <energy>
   <i name="e_fr_energy">   -581.98547151 </i>
   <i name="e_wo_entrp">   -581.98547151 </i>
   <i name="e_0_energy">      0.00000000 </i>
  </energy>
  <time name="totalsc"> 1341.58 1341.86</time>
  <eigenvalues>
   <array>
    <dimension dim="1">band</dimension>
    <dimension dim="2">kpoint</dimension>
    <dimension dim="3">spin</dimension>
    <field>eigene</field>
    <field>occ</field>
    <set>
     <set comment="spin 1">
      <set comment="kpoint 1">
       <r>    0.3433    1.0000 </r>
       <r>    1.7352    1.0000 </r>
       <r>    1.8400    1.0000 </r>
       <r>    1.8538    1.0000 </r>
       <r>    2.0058    1.0000 </r>
       <r>    2.2797    1.0000 </r>
       <r>    2.2815    1.0000 </r>
       <r>    2.3297    1.0000 </r>
       <r>    2.3650    1.0000 </r>
       <r>    2.4834    1.0000 </r>
       <r>    2.5867    1.0000 </r>
       <r>    2.6713    1.0000 </r>
       <r>    2.7638    1.0000 </r>
       <r>    2.7669    1.0000 </r>
       <r>    2.7871    1.0000 </r>
       <r>    2.7925    1.0000 </r>
       <r>    2.8313    1.0000 </r>
       <r>    2.8336    1.0000 </r>
       <r>    2.8826    1.0000 </r>
       <r>    2.9153    1.0000 </r>
       <r>    2.9464    1.0000 </r>
       <r>    2.9576    1.0000 </r>
       <r>    3.0010    1.0000 </r>
       <r>    3.0894    1.0000 </r>
       <r>    3.1661    1.0000 </r>
       <r>    3.2084    1.0000 </r>
       <r>    3.2407    1.0000 </r>
       <r>    3.2775    1.0000 </r>
       <r>    3.2975    1.0000 </r>
       <r>    3.3104    1.0000 </r>
       <r>    3.3580    1.0000 </r>
       <r>    3.3754    1.0000 </r>
       <r>    3.3965    1.0000 </r>
       <r>    3.4193    1.0000 </r>
       <r>    3.4323    1.0000 </r>
       <r>    3.4744    1.0000 </r>
       <r>    3.4940    1.0000 </r>
       <r>    3.5104    1.0000 </r>
       <r>    3.5264    1.0000 </r>
       <r>    3.5363    1.0000 </r>
       <r>    3.5935    1.0000 </r>
       <r>    3.6079    1.0000 </r>
       <r>    3.6316    1.0000 </r>
       <r>    3.6324    1.0000 </r>
       <r>    3.6470    1.0000 </r>
       <r>    3.6598    1.0000 </r>
       <r>    3.6688    1.0000 </r>
       <r>    3.6748    1.0000 </r>
       <r>    3.6885    1.0000 </r>
       <r>    3.7231    1.0000 </r>
       <r>    3.7299    1.0000 </r>
       <r>    3.7333    1.0000 </r>
       <r>    3.7394    1.0000 </r>
       <r>    3.7640    1.0000 </r>
       <r>    3.7847    1.0000 </r>
       <r>    3.8142    1.0000 </r>
       <r>    3.8402    1.0000 </r>
       <r>    3.8812    1.0000 </r>
       <r>    3.9476    1.0000 </r>
       <r>    3.9549    1.0000 </r>
       <r>    3.9883    1.0000 </r>
       <r>    3.9910    1.0000 </r>
       <r>    3.9937    1.0000 </r>
       <r>    3.9974    1.0000 </r>
       <r>    4.0066    1.0000 </r>
       <r>    4.0177    1.0000 </r>
       <r>    4.0536    1.0000 </r>
       <r>    4.0862    1.0000 </r>
       <r>    4.0932    1.0000 </r>
       <r>    4.1022    1.0000 </r>
       <r>    4.1091    1.0000 </r>
       <r>    4.1242    1.0000 </r>
       <r>    4.1438    1.0000 </r>
       <r>    4.1449    1.0000 </r>
       <r>    4.1720    1.0000 </r>
       <r>    4.1774    1.0000 </r>
       <r>    4.2351    1.0000 </r>
       <r>    4.2527    1.0000 </r>
       <r>    4.2561    1.0000 </r>
       <r>    4.3342    1.0000 </r>
       <r>    4.4428    1.0000 </r>
       <r>    4.4508    1.0000 </r>
       <r>    4.4654    1.0000 </r>
       <r>    4.6306    1.0000 </r>
       <r>    4.6739    1.0000 </r>
       <r>    4.6777    1.0000 </r>
       <r>    4.6980    1.0000 </r>
       <r>    4.6999    1.0000 </r>
       <r>    4.7090    1.0000 </r>
       <r>    4.7513    1.0000 </r>
       <r>    4.8395    1.0000 </r>
       <r>    4.8550    1.0000 </r>
       <r>    4.8622    1.0000 </r>
       <r>    4.8684    1.0000 </r>
       <r>    4.9439    1.0000 </r>
       <r>    4.9472    1.0000 </r>
       <r>    4.9703    1.0000 </r>
       <r>    5.0411    1.0000 </r>
       <r>    5.0668    1.0000 </r>
       <r>    5.0769    1.0000 </r>
[...]
      </set>
     </set>
    </set>
   </array>
  </eigenvalues>
  <separator name="orbital magnetization" >
   <v name="MAGDIPOLOUT">      0.00000000      0.00000000      0.00000000</v>
  </separator>
  <dos>
   <i name="efermi">      8.82396329 </i>
   <total>
    <array>
     <dimension dim="1">gridpoints</dimension>
     <dimension dim="2">spin</dimension>
     <field>energy</field>
     <field>total</field>
     <field>integrated</field>
     <set>
      <set comment="spin 1">
       <r>    -0.6567     0.0000     0.0000 </r>
       <r>    -0.6165     0.0000     0.0000 </r>
       <r>    -0.5762     0.0000     0.0000 </r>
       <r>    -0.5360     0.0000     0.0000 </r>
       <r>    -0.4957     0.0000     0.0000 </r>
       <r>    -0.4555     0.0000     0.0000 </r>
       <r>    -0.4153     0.0000     0.0000 </r>
       <r>    -0.3750     0.0000     0.0000 </r>
       <r>    -0.3348     0.0000     0.0000 </r>
       <r>    -0.2945     0.0000     0.0000 </r>
       <r>    -0.2543     0.0000     0.0000 </r>
       <r>    -0.2141     0.0000     0.0000 </r>
       <r>    -0.1738     0.0000     0.0000 </r>
       <r>    -0.1336     0.0000     0.0000 </r>
       <r>    -0.0933     0.0000     0.0000 </r>
       <r>    -0.0531     0.0000     0.0000 </r>
       <r>    -0.0129     0.0000     0.0000 </r>
       <r>     0.0274     0.0000     0.0000 </r>
       <r>     0.0676     0.0000     0.0000 </r>
       <r>     0.1079     0.0000     0.0000 </r>
       <r>     0.1481     0.0000     0.0000 </r>
       <r>     0.1883     0.0000     0.0000 </r>
       <r>     0.2286     0.0000     0.0000 </r>
       <r>     0.2688     0.0000     0.0000 </r>
       <r>     0.3090     0.0000     0.0000 </r>
       <r>     0.3493     0.0042     0.0000 </r>
       <r>     0.3895     0.2491     0.0038 </r>
       <r>     0.4298     0.8090     0.0247 </r>
       <r>     0.4700     1.2759     0.0672 </r>
       <r>     0.5102     1.5927     0.1256 </r>
       <r>     0.5505     1.7974     0.1939 </r>
       <r>     0.5907     2.1594     0.2719 </r>
       <r>     0.6310     2.7533     0.3707 </r>
       <r>     0.6712     3.0298     0.4888 </r>
       <r>     0.7114     3.0237     0.6107 </r>
       <r>     0.7517     2.8551     0.7281 </r>
       <r>     0.7919     2.7893     0.8418 </r>
       <r>     0.8322     2.6888     0.9521 </r>
       <r>     0.8724     2.5966     1.0601 </r>
       <r>     0.9126     2.5211     1.1624 </r>
       <r>     0.9529     3.4053     1.2715 </r>
       <r>     0.9931     4.0927     1.4234 </r>
       <r>     1.0334     4.1408     1.5834 </r>
       <r>     1.0736     4.7024     1.7619 </r>
       <r>     1.1138     5.1046     1.9604 </r>
       <r>     1.1541     5.3674     2.1892 </r>
       <r>     1.1943     4.4848     2.3864 </r>
       <r>     1.2345     3.6300     2.5498 </r>
       <r>     1.2748     3.3730     2.6875 </r>
       <r>     1.3150     3.3727     2.8235 </r>
       <r>     1.3553     3.4363     2.9560 </r>
       <r>     1.3955     3.9328     3.1037 </r>
       <r>     1.4357     4.1451     3.2666 </r>
       <r>     1.4760     5.2277     3.4511 </r>
       <r>     1.5162     7.3327     3.7076 </r>
       <r>     1.5565     7.8507     4.0176 </r>
       <r>     1.5967     7.7332     4.3387 </r>
       <r>     1.6369     6.9346     4.6261 </r>
       <r>     1.6772     6.8426     4.9046 </r>
       <r>     1.7174     6.8582     5.1788 </r>
       <r>     1.7577     7.9187     5.4751 </r>
       <r>     1.7979     7.6076     5.7863 </r>
       <r>     1.8381     7.2501     6.0862 </r>
       <r>     1.8784     6.4789     6.3693 </r>
       <r>     1.9186     7.0960     6.6435 </r>
       <r>     1.9588     7.3294     6.9265 </r>
       <r>     1.9991     8.3863     7.2456 </r>
       <r>     2.0393     9.8573     7.6163 </r>
       <r>     2.0796    11.4427     8.0286 </r>
       <r>     2.1198    11.9995     8.5548 </r>
       <r>     2.1600    14.1667     9.0720 </r>
       <r>     2.2003    13.2349     9.6014 </r>
       <r>     2.2405    16.5394    10.2020 </r>
       <r>     2.2808    16.7562    10.8666 </r>
       <r>     2.3210    17.1233    11.5648 </r>
       <r>     2.3612    20.5110    12.2990 </r>
       <r>     2.4015    28.1030    13.3067 </r>
       <r>     2.4417    31.6496    14.4970 </r>
       <r>     2.4820    34.5701    15.9114 </r>
       <r>     2.5222    30.6358    17.1683 </r>
       <r>     2.5624    34.7505    18.4683 </r>
       <r>     2.6027    35.0614    19.7891 </r>
       <r>     2.6429    34.8689    21.2454 </r>
       <r>     2.6832    33.5316    22.5354 </r>
       <r>     2.7234    42.4397    24.0927 </r>
       <r>     2.7636    44.3365    25.8081 </r>
       <r>     2.8039    42.2005    27.7912 </r>
       <r>     2.8441    45.1072    29.5480 </r>
       <r>     2.8843    48.4734    31.4217 </r>
       <r>     2.9246    54.0182    33.4983 </r>
       <r>     2.9648    55.5181    35.6646 </r>
       <r>     3.0051    65.2221    38.0345 </r>
       <r>     3.0453    76.5320    40.7859 </r>
       <r>     3.0855    78.1198    43.8630 </r>
       <r>     3.1258    69.9592    46.8931 </r>
       <r>     3.1660    68.3416    49.7458 </r>
       <r>     3.2063    72.0301    52.6236 </r>
       <r>     3.2465    82.5167    55.8014 </r>
       <r>     3.2867    79.9626    59.0472 </r>
       <r>     3.3270    90.3590    62.4238 </r>
       <r>     3.3672   103.6642    66.2443 </r>
       <r>     3.4075   122.3639    70.8728 </r>
       <r>     3.4477   111.4204    75.6789 </r>
       <r>     3.4879   121.4317    80.5477 </r>
       <r>     3.5282   109.2983    85.1976 </r>
       <r>     3.5684   121.0034    89.6483 </r>
       <r>     3.6086   108.4016    93.8763 </r>
       <r>     3.6489   110.7430    98.0346 </r>
       <r>     3.6891    94.4875   102.2582 </r>
       <r>     3.7294    96.2717   106.0885 </r>
       <r>     3.7696    95.1120   109.9363 </r>
       <r>     3.8098   100.6103   114.1674 </r>
       <r>     3.8501    96.4780   118.1184 </r>
       <r>     3.8903    92.6465   121.8734 </r>
       <r>     3.9306    86.8447   125.5173 </r>
       <r>     3.9708    87.8988   129.0888 </r>
       <r>     4.0110    88.3898   132.5824 </r>
       <r>     4.0513    75.8535   135.8880 </r>
       <r>     4.0915    72.3582   138.9496 </r>
       <r>     4.1318    75.1555   141.9504 </r>
       <r>     4.1720    74.5459   144.9281 </r>
       <r>     4.2122    73.6958   147.9701 </r>
       <r>     4.2525    73.1817   151.0193 </r>
       <r>     4.2927    70.9971   154.0493 </r>
       <r>     4.3330    68.9060   156.7845 </r>
       <r>     4.3732    63.4792   159.5447 </r>
       <r>     4.4134    60.2993   162.0466 </r>
       <r>     4.4537    61.8788   164.4826 </r>
       <r>     4.4939    61.2976   166.9095 </r>
       <r>     4.5341    71.1805   169.5367 </r>
       <r>     4.5744    74.2581   172.3296 </r>
       <r>     4.6146    75.0822   175.2785 </r>
       <r>     4.6549    71.1234   178.1622 </r>
       <r>     4.6951    71.7174   181.1012 </r>
       <r>     4.7353    65.6950   183.7557 </r>
       <r>     4.7756    71.7991   186.6711 </r>
       <r>     4.8158    74.9765   189.7662 </r>
       <r>     4.8561    68.7899   192.4994 </r>
       <r>     4.8963    85.7953   195.5690 </r>
       <r>     4.9365    72.4150   198.8180 </r>
       <r>     4.9768    69.7603   201.9314 </r>
       <r>     5.0170    67.4218   204.6489 </r>
       <r>     5.0573    73.0918   207.4617 </r>
       <r>     5.0975    69.4683   210.3272 </r>
       <r>     5.1377    69.3757   213.0843 </r>
       <r>     5.1780    67.9011   216.1349 </r>
       <r>     5.2182    68.0972   218.9486 </r>
       <r>     5.2585    79.3101   221.6651 </r>
       <r>     5.2987    90.1386   225.1896 </r>
       <r>     5.3389    85.5916   228.7615 </r>
       <r>     5.3792    80.4199   232.3003 </r>
       <r>     5.4194    61.5649   235.0320 </r>
       <r>     5.4596    55.3513   237.4088 </r>
       <r>     5.4999    66.8163   240.0366 </r>
       <r>     5.5401    75.6212   242.7972 </r>
       <r>     5.5804    81.7721   245.9160 </r>
       <r>     5.6206    88.6486   249.1724 </r>
       <r>     5.6608    84.3919   252.8543 </r>
       <r>     5.7011    80.8172   256.1395 </r>
       <r>     5.7413    82.4371   259.4785 </r>
       <r>     5.7816    76.9479   262.6827 </r>
       <r>     5.8218    73.9017   265.6966 </r>
       <r>     5.8620    73.2647   268.6257 </r>
       <r>     5.9023    78.0137   271.6933 </r>
       <r>     5.9425    79.0245   274.8855 </r>
       <r>     5.9828    78.5786   278.0773 </r>
       <r>     6.0230    88.9676   281.4032 </r>
       <r>     6.0632    91.4696   285.0718 </r>
       <r>     6.1035    98.4272   288.8916 </r>
       <r>     6.1437   107.1575   293.0162 </r>
       <r>     6.1839   110.6183   297.4515 </r>
       <r>     6.2242   121.1867   302.1820 </r>
       <r>     6.2644   117.2886   307.0558 </r>
       <r>     6.3047   118.5916   311.8629 </r>
       <r>     6.3449   117.5726   316.6173 </r>
       <r>     6.3851   126.7522   321.5151 </r>
       <r>     6.4254   125.0566   326.7023 </r>
       <r>     6.4656   136.9950   332.1437 </r>
       <r>     6.5059   129.3960   337.6155 </r>
       <r>     6.5461   126.4034   342.8618 </r>
       <r>     6.5863   119.9842   347.7746 </r>
       <r>     6.6266   126.4531   352.5283 </r>
       <r>     6.6668   120.0532   357.7075 </r>
       <r>     6.7071   102.7653   362.1132 </r>
       <r>     6.7473    87.6618   366.0717 </r>
       <r>     6.7875    96.0871   369.8532 </r>
       <r>     6.8278    90.5989   373.7828 </r>
       <r>     6.8680    74.7479   377.0788 </r>
       <r>     6.9083    69.6754   379.9988 </r>
       <r>     6.9485    71.1922   382.8391 </r>
       <r>     6.9887    79.6762   385.8623 </r>
       <r>     7.0290    79.3161   389.0855 </r>
       <r>     7.0692    77.7993   392.3129 </r>
       <r>     7.1094    73.0666   395.4086 </r>
       <r>     7.1497    68.7726   398.3141 </r>
       <r>     7.1899    75.8229   401.3177 </r>
       <r>     7.2302    80.1972   404.5082 </r>
       <r>     7.2704    72.2226   407.5148 </r>
       <r>     7.3106    76.5338   410.4821 </r>
       <r>     7.3509    76.0014   413.7048 </r>
       <r>     7.3911    61.8481   416.4770 </r>
       <r>     7.4314    61.6106   418.9191 </r>
       <r>     7.4716    64.0404   421.4409 </r>
       <r>     7.5118    64.0734   424.0026 </r>
       <r>     7.5521    65.6452   426.6147 </r>
       <r>     7.5923    71.4205   429.3639 </r>
       <r>     7.6326    72.0711   432.2800 </r>
       <r>     7.6728    68.8993   435.1177 </r>
       <r>     7.7130    70.1634   437.9731 </r>
       <r>     7.7533    75.1652   440.8331 </r>
       <r>     7.7935    78.3969   443.9335 </r>
       <r>     7.8337    75.1894   447.0538 </r>
       <r>     7.8740    81.2910   450.1511 </r>
       <r>     7.9142    74.6665   453.3616 </r>
       <r>     7.9545    74.4083   456.3940 </r>
       <r>     7.9947    88.7481   459.6250 </r>
       <r>     8.0349    89.4602   463.2377 </r>
       <r>     8.0752    86.4050   466.9197 </r>
       <r>     8.1154    84.8905   470.2301 </r>
       <r>     8.1557    77.4926   473.5578 </r>
       <r>     8.1959    69.0611   476.5209 </r>
       <r>     8.2361    65.1529   479.2407 </r>
       <r>     8.2764    77.5236   482.0450 </r>
       <r>     8.3166    92.6688   485.5907 </r>
       <r>     8.3569    82.1306   488.9889 </r>
       <r>     8.3971    81.6798   492.3184 </r>
       <r>     8.4373    76.7000   495.5430 </r>
       <r>     8.4776    80.6219   498.8094 </r>
       <r>     8.5178    74.2840   501.9267 </r>
       <r>     8.5581    70.3943   504.9682 </r>
       <r>     8.5983    70.1123   507.8421 </r>
       <r>     8.6385    79.5297   510.7399 </r>
       <r>     8.6788    78.4647   513.8276 </r>
       <r>     8.7190    74.0088   516.9295 </r>
       <r>     8.7592    65.5046   519.7727 </r>
       <r>     8.7995    67.3461   522.3236 </r>
       <r>     8.8397    59.7655   524.9695 </r>
       <r>     8.8800    56.3081   527.2397 </r>
       <r>     8.9202    53.8605   529.4996 </r>
       <r>     8.9604    59.8578   531.8087 </r>
       <r>     9.0007    67.6513   534.3978 </r>
       <r>     9.0409    65.6458   537.0893 </r>
       <r>     9.0812    66.5917   539.6263 </r>
       <r>     9.1214    74.3166   542.5239 </r>
       <r>     9.1616    67.5085   545.4744 </r>
       <r>     9.2019    68.1572   548.2416 </r>
       <r>     9.2421    61.6246   550.8912 </r>
       <r>     9.2824    50.4549   553.0893 </r>
       <r>     9.3226    51.5119   555.1175 </r>
       <r>     9.3628    54.9769   557.2191 </r>
       <r>     9.4031    73.6015   559.7343 </r>
       <r>     9.4433    76.6354   563.0371 </r>
       <r>     9.4836    63.1500   565.7806 </r>
       <r>     9.5238    62.2902   568.2643 </r>
       <r>     9.5640    57.7320   570.6258 </r>
       <r>     9.6043    70.4321   573.2354 </r>
       <r>     9.6445    83.9492   576.4589 </r>
       <r>     9.6847    66.3959   579.2441 </r>
       <r>     9.7250    70.7744   582.2590 </r>
       <r>     9.7652    67.6464   584.9513 </r>
       <r>     9.8055    75.9943   587.8699 </r>
       <r>     9.8457    72.7587   590.8932 </r>
       <r>     9.8859    72.5066   593.7464 </r>
       <r>     9.9262    78.0062   596.8119 </r>
       <r>     9.9664    85.6933   599.9828 </r>
       <r>    10.0067    76.0206   602.9749 </r>
       <r>    10.0469    88.3574   606.3580 </r>
       <r>    10.0871   106.1692   610.4079 </r>
       <r>    10.1274   101.8875   614.5510 </r>
       <r>    10.1676    99.2982   618.7869 </r>
       <r>    10.2079    87.4006   622.6262 </r>
       <r>    10.2481    50.9656   625.4298 </r>
       <r>    10.2883    26.2480   626.8807 </r>
       <r>    10.3286    11.4811   627.6496 </r>
       <r>    10.3688     3.7245   627.9284 </r>
       <r>    10.4090     0.0787   627.9998 </r>
       <r>    10.4493     0.0000   628.0000 </r>
       <r>    10.4895     0.0000   628.0000 </r>
       <r>    10.5298     0.0000   628.0000 </r>
       <r>    10.5700     0.0000   628.0000 </r>
       <r>    10.6102     0.0000   628.0000 </r>
       <r>    10.6505     0.0000   628.0000 </r>
       <r>    10.6907     0.0000   628.0000 </r>
       <r>    10.7310     0.0000   628.0000 </r>
       <r>    10.7712     0.0000   628.0000 </r>
       <r>    10.8114     0.0000   628.0000 </r>
       <r>    10.8517     0.0000   628.0000 </r>
       <r>    10.8919     0.0000   628.0000 </r>
       <r>    10.9322     0.0000   628.0000 </r>
       <r>    10.9724     0.0000   628.0000 </r>
       <r>    11.0126     0.0000   628.0000 </r>
       <r>    11.0529     0.0000   628.0000 </r>
       <r>    11.0931     0.0000   628.0000 </r>
       <r>    11.1334     0.0000   628.0000 </r>
       <r>    11.1736     0.0000   628.0000 </r>
       <r>    11.2138     0.0000   628.0000 </r>
       <r>    11.2541     0.0000   628.0000 </r>
       <r>    11.2943     0.0000   628.0000 </r>
       <r>    11.3345     0.0000   628.0000 </r>
       <r>    11.3748     0.0000   628.0000 </r>
       <r>    11.4150     0.0000   628.0000 </r>
      </set>
     </set>
    </array>
   </total>
  </dos>
 </calculation>
 <structure name="finalpos" >
  <crystal>
   <varray name="basis" >
    <v>      -3.82474074      -7.64405614       7.64418186 </v>
    <v>      -3.82474074       7.64405614      -7.64418186 </v>
    <v>       0.00000000      -7.64700609      -7.64713183 </v>
   </varray>
   <i name="volume">    894.30248777 </i>
   <varray name="rec_basis" >
    <v>      -0.13072782      -0.03270515       0.03270461 </v>
    <v>      -0.13072782       0.03270515      -0.03270461 </v>
    <v>       0.00000000      -0.06538507      -0.06538399 </v>
   </varray>
  </crystal>
  <varray name="positions" >
   <v>       0.12492167       0.87507833       0.74983754 </v>
   <v>       0.37496488       0.62503512       0.75021428 </v>
   <v>       0.25020862       0.74979138       0.50020599 </v>
   <v>       0.12491803       0.87508197       0.25015688 </v>
   <v>       0.62508316       0.37491684       0.75020439 </v>
   <v>       0.50007706       0.49992294       0.49984832 </v>
   <v>       0.25003996       0.74996004       0.99977909 </v>
   <v>       0.87502917       0.12497083       0.74983674 </v>
   <v>       0.74979245       0.25020755       0.49988118 </v>
   <v>       0.50007742       0.49992258       0.00013175 </v>
   <v>       0.99991900       0.00008100       0.99977280 </v>
   <v>       0.74996453       0.25003547       0.00011292 </v>
   <v>       0.99991605       0.00008395       0.50030593 </v>
   <v>       0.37473754       0.62526246       0.24976714 </v>
   <v>       0.62510468       0.37489532       0.24975951 </v>
   <v>       0.87524152       0.12475848       0.25018170 </v>
   <v>       0.12454200       0.87545800       0.49986366 </v>
   <v>       0.37494206       0.62505794       0.49921160 </v>
   <v>       0.25040862       0.74959138       0.25011189 </v>
   <v>       0.12492538       0.87507462       0.00017416 </v>
   <v>       0.62512125       0.37487875       0.49902846 </v>
   <v>       0.50014678       0.49985322       0.24991257 </v>
   <v>       0.99951874       0.00048126       0.25076080 </v>
   <v>       0.37509187       0.62490813       0.00082231 </v>
   <v>       0.25000659       0.74999341       0.74988516 </v>
   <v>       0.87541260       0.12458740       0.49918458 </v>
   <v>       0.74990352       0.25009648       0.25010613 </v>
   <v>       0.62497401       0.37502599       0.00100880 </v>
   <v>       0.49996509       0.50003491       0.75002571 </v>
   <v>       0.99993286       0.00006714       0.74923058 </v>
   <v>       0.87500587       0.12499413       0.00079223 </v>
   <v>       0.75009740       0.24990260       0.74988992 </v>
   <v>       0.93775203       0.56243884       0.62470269 </v>
   <v>       0.18705201       0.31148469       0.62447409 </v>
   <v>       0.06300072       0.43708042       0.37403059 </v>
   <v>       0.93637435       0.56210333       0.12568806 </v>
   <v>       0.43756116       0.06224797       0.62470269 </v>
   <v>       0.31259957       0.18746555       0.37495286 </v>
   <v>       0.81253445       0.68740043       0.37495286 </v>
   <v>       0.18709928       0.31306254       0.12593395 </v>
   <v>       0.06266842       0.43761177       0.87490914 </v>
   <v>       0.68851531       0.81294799       0.62447409 </v>
   <v>       0.56291958       0.93699928       0.37403059 </v>
   <v>       0.43789667       0.06362565       0.12568806 </v>
   <v>       0.31233426       0.18763394       0.87530573 </v>
   <v>       0.81236606       0.68766574       0.87530573 </v>
   <v>       0.68693746       0.81290072       0.12593395 </v>
   <v>       0.56238823       0.93733158       0.87490914 </v>
   <v>       0.81289525       0.68863331       0.62425321 </v>
   <v>       0.06250453       0.43763808       0.62492147 </v>
   <v>       0.93654817       0.56206558       0.37450645 </v>
   <v>       0.81199212       0.68644590       0.12547169 </v>
   <v>       0.31136669       0.18710475       0.62425321 </v>
   <v>       0.18649953       0.31203133       0.37447815 </v>
   <v>       0.68796867       0.81350047       0.37447815 </v>
   <v>       0.06317765       0.43703591       0.12615573 </v>
   <v>       0.93757045       0.56244686       0.87512532 </v>
   <v>       0.56236192       0.93749547       0.62492147 </v>
   <v>       0.43793442       0.06345183       0.37450645 </v>
   <v>       0.31355410       0.18800788       0.12547169 </v>
   <v>       0.18759315       0.31247379       0.87508851 </v>
   <v>       0.68752621       0.81240685       0.87508851 </v>
   <v>       0.56296409       0.93682235       0.12615573 </v>
   <v>       0.43755314       0.06242955       0.87512532 </v>
  </varray>
 </structure>
</modeling>
