   1   1   0   0
  0.1452517E+02  0.2738706E-09  0.2738706E-09  0.2738706E-09  0.5000000E-15
  1.000000000000000E-004
  CAR 
 Ir_Ru                                   
    206.16056162    -10.67302949  301      9.94483606      1.00000000
    -10.673  0.0000E+00  0.0000E+00
     -9.950  0.0000E+00  0.0000E+00
     -9.227  0.0000E+00  0.0000E+00
     -8.505  0.0000E+00  0.0000E+00
     -7.782  0.0000E+00  0.0000E+00
     -7.059  0.0000E+00  0.0000E+00
     -6.336  0.0000E+00  0.0000E+00
     -5.614  0.0000E+00  0.0000E+00
     -4.891  0.0000E+00  0.0000E+00
     -4.168  0.0000E+00  0.0000E+00
     -3.445  0.0000E+00  0.0000E+00
     -2.722  0.0000E+00  0.0000E+00
     -2.000  0.0000E+00  0.0000E+00
     -1.277  0.0000E+00  0.0000E+00
     -0.554  0.2790E-01  0.4122E-02
      0.169  0.6386E-01  0.3809E-01
      0.891  0.9985E-01  0.9679E-01
      1.614  0.1557E+00  0.1868E+00
      2.337  0.5030E+00  0.3855E+00
      3.060  0.1184E+01  0.9808E+00
      3.783  0.1150E+01  0.1880E+01
      4.505  0.7247E+00  0.2570E+01
      5.228  0.1247E+01  0.3369E+01
      5.951  0.1369E+01  0.4284E+01
      6.674  0.2476E+01  0.5509E+01
      7.396  0.9766E+00  0.6421E+01
      8.119  0.1237E+01  0.7141E+01
      8.842  0.1054E+01  0.7987E+01
      9.565  0.9032E+00  0.8651E+01
     10.288  0.1173E+01  0.9355E+01
     11.010  0.9480E+00  0.1040E+02
     11.733  0.2761E+00  0.1075E+02
     12.456  0.2758E+00  0.1095E+02
     13.179  0.2753E+00  0.1115E+02
     13.901  0.2673E+00  0.1135E+02
     14.624  0.2510E+00  0.1153E+02
     15.347  0.2228E+00  0.1171E+02
     16.070  0.2026E+00  0.1186E+02
     16.793  0.4152E+00  0.1202E+02
     17.515  0.3630E+00  0.1229E+02
     18.238  0.3600E+00  0.1253E+02
     18.961  0.3070E+00  0.1277E+02
     19.684  0.2783E+00  0.1298E+02
     20.406  0.2809E+00  0.1319E+02
     21.129  0.3738E+00  0.1341E+02
     21.852  0.4180E+00  0.1370E+02
     22.575  0.3869E+00  0.1399E+02
     23.298  0.4940E+00  0.1430E+02
     24.020  0.5288E+00  0.1466E+02
     24.743  0.6758E+00  0.1509E+02
     25.466  0.7919E+00  0.1567E+02
     26.189  0.6214E+00  0.1619E+02
     26.911  0.7233E+00  0.1667E+02
     27.634  0.5637E+00  0.1718E+02
     28.357  0.2542E+00  0.1745E+02
     29.080  0.3723E+00  0.1766E+02
     29.803  0.5662E+00  0.1802E+02
     30.525  0.7793E+00  0.1854E+02
     31.248  0.7165E+00  0.1909E+02
     31.971  0.5489E+00  0.1956E+02
     32.694  0.2884E+00  0.1987E+02
     33.416  0.2473E+00  0.2005E+02
     34.139  0.4211E+00  0.2029E+02
     34.862  0.5297E+00  0.2066E+02
     35.585  0.5772E+00  0.2111E+02
     36.308  0.4731E+00  0.2148E+02
     37.030  0.5427E+00  0.2185E+02
     37.753  0.6336E+00  0.2228E+02
     38.476  0.9274E+00  0.2280E+02
     39.199  0.1491E+01  0.2374E+02
     39.921  0.7637E+00  0.2443E+02
     40.644  0.5447E+00  0.2491E+02
     41.367  0.7318E+00  0.2534E+02
     42.090  0.1752E+01  0.2605E+02
     42.813  0.2885E+01  0.3111E+02
     43.535  0.8407E+00  0.3229E+02
     44.258  0.8035E+00  0.3286E+02
     44.981  0.5221E+00  0.3336E+02
     45.704  0.5811E+00  0.3373E+02
     46.426  0.6433E+00  0.3415E+02
     47.149  0.7780E+00  0.3465E+02
     47.872  0.1154E+01  0.3539E+02
     48.595  0.6298E+00  0.3601E+02
     49.318  0.8081E+00  0.3653E+02
     50.040  0.7662E+00  0.3709E+02
     50.763  0.5501E+00  0.3756E+02
     51.486  0.4374E+00  0.3793E+02
     52.209  0.6949E+00  0.3833E+02
     52.931  0.7984E+00  0.3893E+02
     53.654  0.5081E+00  0.3945E+02
     54.377  0.2377E+00  0.3971E+02
     55.100  0.1153E+00  0.3983E+02
     55.823  0.6403E-01  0.3989E+02
     56.545  0.3771E-01  0.3993E+02
     57.268  0.2187E-01  0.3995E+02
     57.991  0.8937E-02  0.3996E+02
     58.714  0.5783E-02  0.3996E+02
     59.436  0.4210E-02  0.3997E+02
     60.159  0.3356E-02  0.3997E+02
     60.882  0.2821E-02  0.3997E+02
     61.605  0.2396E-02  0.3998E+02
     62.328  0.2012E-02  0.3998E+02
     63.050  0.1669E-02  0.3998E+02
     63.773  0.1368E-02  0.3998E+02
     64.496  0.1107E-02  0.3998E+02
     65.219  0.8870E-03  0.3998E+02
     65.942  0.7081E-03  0.3998E+02
     66.664  0.5703E-03  0.3998E+02
     67.387  0.4735E-03  0.3998E+02
     68.110  0.4176E-03  0.3998E+02
     68.833  0.4015E-03  0.3998E+02
     69.555  0.3969E-03  0.3998E+02
     70.278  0.3924E-03  0.3998E+02
     71.001  0.3879E-03  0.3998E+02
     71.724  0.3835E-03  0.3998E+02
     72.447  0.3790E-03  0.3998E+02
     73.169  0.3746E-03  0.3998E+02
     73.892  0.3702E-03  0.3998E+02
     74.615  0.3659E-03  0.3999E+02
     75.338  0.3615E-03  0.3999E+02
     76.060  0.3572E-03  0.3999E+02
     76.783  0.3530E-03  0.3999E+02
     77.506  0.3487E-03  0.3999E+02
     78.229  0.3445E-03  0.3999E+02
     78.952  0.3403E-03  0.3999E+02
     79.674  0.3361E-03  0.3999E+02
     80.397  0.3319E-03  0.3999E+02
     81.120  0.3278E-03  0.3999E+02
     81.843  0.3237E-03  0.3999E+02
     82.565  0.3196E-03  0.3999E+02
     83.288  0.3156E-03  0.3999E+02
     84.011  0.3116E-03  0.3999E+02
     84.734  0.3076E-03  0.3999E+02
     85.457  0.3036E-03  0.3999E+02
     86.179  0.2996E-03  0.3999E+02
     86.902  0.2957E-03  0.3999E+02
     87.625  0.2918E-03  0.3999E+02
     88.348  0.2880E-03  0.3999E+02
     89.070  0.2841E-03  0.3999E+02
     89.793  0.2803E-03  0.3999E+02
     90.516  0.2765E-03  0.3999E+02
     91.239  0.2727E-03  0.3999E+02
     91.962  0.2690E-03  0.3999E+02
     92.684  0.2653E-03  0.3999E+02
     93.407  0.2616E-03  0.3999E+02
     94.130  0.2579E-03  0.3999E+02
     94.853  0.2543E-03  0.3999E+02
     95.575  0.2507E-03  0.3999E+02
     96.298  0.2471E-03  0.3999E+02
     97.021  0.2435E-03  0.3999E+02
     97.744  0.2400E-03  0.3999E+02
     98.467  0.2365E-03  0.3999E+02
     99.189  0.2330E-03  0.3999E+02
     99.912  0.2296E-03  0.3999E+02
    100.635  0.2261E-03  0.3999E+02
    101.358  0.2227E-03  0.3999E+02
    102.080  0.2194E-03  0.3999E+02
    102.803  0.2160E-03  0.3999E+02
    103.526  0.2127E-03  0.3999E+02
    104.249  0.2094E-03  0.3999E+02
    104.972  0.2061E-03  0.3999E+02
    105.694  0.2029E-03  0.3999E+02
    106.417  0.1996E-03  0.3999E+02
    107.140  0.1964E-03  0.3999E+02
    107.863  0.1933E-03  0.3999E+02
    108.585  0.1901E-03  0.3999E+02
    109.308  0.1870E-03  0.3999E+02
    110.031  0.1839E-03  0.3999E+02
    110.754  0.1808E-03  0.3999E+02
    111.477  0.1778E-03  0.3999E+02
    112.199  0.1748E-03  0.4000E+02
    112.922  0.1718E-03  0.4000E+02
    113.645  0.1688E-03  0.4000E+02
    114.368  0.1659E-03  0.4000E+02
    115.090  0.1630E-03  0.4000E+02
    115.813  0.1601E-03  0.4000E+02
    116.536  0.1572E-03  0.4000E+02
    117.259  0.1544E-03  0.4000E+02
    117.982  0.1516E-03  0.4000E+02
    118.704  0.1488E-03  0.4000E+02
    119.427  0.1460E-03  0.4000E+02
    120.150  0.1433E-03  0.4000E+02
    120.873  0.1406E-03  0.4000E+02
    121.595  0.1379E-03  0.4000E+02
    122.318  0.1352E-03  0.4000E+02
    123.041  0.1326E-03  0.4000E+02
    123.764  0.1300E-03  0.4000E+02
    124.487  0.1274E-03  0.4000E+02
    125.209  0.1249E-03  0.4000E+02
    125.932  0.1224E-03  0.4000E+02
    126.655  0.1199E-03  0.4000E+02
    127.378  0.1174E-03  0.4000E+02
    128.100  0.1149E-03  0.4000E+02
    128.823  0.1125E-03  0.4000E+02
    129.546  0.1101E-03  0.4000E+02
    130.269  0.1077E-03  0.4000E+02
    130.992  0.1054E-03  0.4000E+02
    131.714  0.1031E-03  0.4000E+02
    132.437  0.1008E-03  0.4000E+02
    133.160  0.9851E-04  0.4000E+02
    133.883  0.9627E-04  0.4000E+02
    134.605  0.9406E-04  0.4000E+02
    135.328  0.9186E-04  0.4000E+02
    136.051  0.8970E-04  0.4000E+02
    136.774  0.8756E-04  0.4000E+02
    137.497  0.8545E-04  0.4000E+02
    138.219  0.8336E-04  0.4000E+02
    138.942  0.8130E-04  0.4000E+02
    139.665  0.7926E-04  0.4000E+02
    140.388  0.7725E-04  0.4000E+02
    141.110  0.7527E-04  0.4000E+02
    141.833  0.7331E-04  0.4000E+02
    142.556  0.7138E-04  0.4000E+02
    143.279  0.6947E-04  0.4000E+02
    144.002  0.6759E-04  0.4000E+02
    144.724  0.6573E-04  0.4000E+02
    145.447  0.6390E-04  0.4000E+02
    146.170  0.6210E-04  0.4000E+02
    146.893  0.6032E-04  0.4000E+02
    147.615  0.5857E-04  0.4000E+02
    148.338  0.5685E-04  0.4000E+02
    149.061  0.5515E-04  0.4000E+02
    149.784  0.5347E-04  0.4000E+02
    150.507  0.5182E-04  0.4000E+02
    151.229  0.5020E-04  0.4000E+02
    151.952  0.4860E-04  0.4000E+02
    152.675  0.4703E-04  0.4000E+02
    153.398  0.4549E-04  0.4000E+02
    154.120  0.4397E-04  0.4000E+02
    154.843  0.4247E-04  0.4000E+02
    155.566  0.4100E-04  0.4000E+02
    156.289  0.3956E-04  0.4000E+02
    157.012  0.3815E-04  0.4000E+02
    157.734  0.3676E-04  0.4000E+02
    158.457  0.3539E-04  0.4000E+02
    159.180  0.3405E-04  0.4000E+02
    159.903  0.3274E-04  0.4000E+02
    160.626  0.3145E-04  0.4000E+02
    161.348  0.3019E-04  0.4000E+02
    162.071  0.2896E-04  0.4000E+02
    162.794  0.2775E-04  0.4000E+02
    163.517  0.2656E-04  0.4000E+02
    164.239  0.2540E-04  0.4000E+02
    164.962  0.2427E-04  0.4000E+02
    165.685  0.2316E-04  0.4000E+02
    166.408  0.2208E-04  0.4000E+02
    167.131  0.2103E-04  0.4000E+02
    167.853  0.2000E-04  0.4000E+02
    168.576  0.1900E-04  0.4000E+02
    169.299  0.1802E-04  0.4000E+02
    170.022  0.1707E-04  0.4000E+02
    170.744  0.1614E-04  0.4000E+02
    171.467  0.1524E-04  0.4000E+02
    172.190  0.1437E-04  0.4000E+02
    172.913  0.1352E-04  0.4000E+02
    173.636  0.1270E-04  0.4000E+02
    174.358  0.1190E-04  0.4000E+02
    175.081  0.1113E-04  0.4000E+02
    175.804  0.1038E-04  0.4000E+02
    176.527  0.9665E-05  0.4000E+02
    177.249  0.8971E-05  0.4000E+02
    177.972  0.8303E-05  0.4000E+02
    178.695  0.7662E-05  0.4000E+02
    179.418  0.7046E-05  0.4000E+02
    180.141  0.6455E-05  0.4000E+02
    180.863  0.5891E-05  0.4000E+02
    181.586  0.5352E-05  0.4000E+02
    182.309  0.4840E-05  0.4000E+02
    183.032  0.4353E-05  0.4000E+02
    183.754  0.3892E-05  0.4000E+02
    184.477  0.3456E-05  0.4000E+02
    185.200  0.3047E-05  0.4000E+02
    185.923  0.2663E-05  0.4000E+02
    186.646  0.2305E-05  0.4000E+02
    187.368  0.1973E-05  0.4000E+02
    188.091  0.1667E-05  0.4000E+02
    188.814  0.1386E-05  0.4000E+02
    189.537  0.1132E-05  0.4000E+02
    190.259  0.9029E-06  0.4000E+02
    190.982  0.6999E-06  0.4000E+02
    191.705  0.5227E-06  0.4000E+02
    192.428  0.3713E-06  0.4000E+02
    193.151  0.2458E-06  0.4000E+02
    193.873  0.1460E-06  0.4000E+02
    194.596  0.7211E-07  0.4000E+02
    195.319  0.2400E-07  0.4000E+02
    196.042  0.1707E-08  0.4000E+02
    196.764  0.0000E+00  0.4000E+02
    197.487  0.0000E+00  0.4000E+02
    198.210  0.0000E+00  0.4000E+02
    198.933  0.0000E+00  0.4000E+02
    199.656  0.0000E+00  0.4000E+02
    200.378  0.0000E+00  0.4000E+02
    201.101  0.0000E+00  0.4000E+02
    201.824  0.0000E+00  0.4000E+02
    202.547  0.0000E+00  0.4000E+02
    203.269  0.0000E+00  0.4000E+02
    203.992  0.0000E+00  0.4000E+02
    204.715  0.0000E+00  0.4000E+02
    205.438  0.0000E+00  0.4000E+02
    206.161  0.0000E+00  0.4000E+02
