       N       E                     dE             d eps       ncg     rms          rms(c)
RMM:   1     0.154410391718E+02    0.15441E+02   -0.86497E+02  5120   0.128E+02
RMM:   2    -0.700556697559E+01   -0.22447E+02   -0.13291E+02  5120   0.481E+01
RMM:   3    -0.922301187670E+01   -0.22174E+01   -0.45459E+00  5120   0.109E+01
RMM:   4    -0.929915951848E+01   -0.76148E-01   -0.53387E-01  5120   0.336E+00
RMM:   5    -0.931125445705E+01   -0.12095E-01   -0.82606E-02  5120   0.133E+00
RMM:   6    -0.931338262196E+01   -0.21282E-02   -0.16180E-02  5120   0.543E-01
RMM:   7    -0.931382375923E+01   -0.44114E-03   -0.32964E-03  5120   0.248E-01
RMM:   8    -0.931391370786E+01   -0.89949E-04   -0.70278E-04  5120   0.108E-01
RMM:   9    -0.931393670288E+01   -0.22995E-04   -0.18655E-04 10215   0.501E-02
RMM:  10    -0.931393837692E+01   -0.16740E-05   -0.14184E-05  9961   0.108E-02
RMM:  11    -0.931393846247E+01   -0.85546E-07   -0.75575E-07  8974   0.332E-03
RMM:  12    -0.931393847372E+01   -0.11250E-07   -0.83211E-08  8059   0.104E-03    0.449E+00
RMM:  13    -0.878579470925E+01    0.52814E+00   -0.19295E-01 10240   0.242E+00    0.147E+00
RMM:  14    -0.871815102123E+01    0.67644E-01   -0.43401E-02 10240   0.108E+00    0.273E-01
RMM:  15    -0.871326624565E+01    0.48848E-02   -0.15650E-03 10240   0.203E-01    0.261E-02
RMM:  16    -0.871320584299E+01    0.60403E-04   -0.51104E-05 10238   0.293E-02
   1 F= -.87132058E+01 E0= -.87135513E+01  d E =-.871321E+01
       N       E                     dE             d eps       ncg     rms          rms(c)
RMM:   1    -0.144781300740E+02   -0.57649E+01   -0.57039E+01 10240   0.414E+01    0.162E+01
RMM:   2    -0.721054535694E+01    0.72676E+01   -0.30070E-01 10240   0.350E+00    0.686E+00
RMM:   3    -0.545060081850E+01    0.17599E+01   -0.62604E-01 10240   0.482E+00    0.114E+00
RMM:   4    -0.548283987057E+01   -0.32239E-01   -0.13395E-02 10240   0.583E-01    0.321E-01
RMM:   5    -0.549009728129E+01   -0.72574E-02   -0.19005E-03 10240   0.218E-01    0.479E-02
RMM:   6    -0.549037113596E+01   -0.27385E-03   -0.68487E-05 10240   0.398E-02    0.145E-02
RMM:   7    -0.549036876709E+01    0.23689E-05   -0.55936E-06 10201   0.128E-02
   2 F= -.54903688E+01 E0= -.54904392E+01  d E =0.322284E+01
       N       E                     dE             d eps       ncg     rms          rms(c)
RMM:   1    -0.150398521636E+02   -0.95495E+01   -0.11078E+02 10240   0.707E+01    0.133E+01
RMM:   2    -0.955509816200E+01    0.54848E+01   -0.25693E+00 10240   0.997E+00    0.366E+00
RMM:   3    -0.889699792785E+01    0.65810E+00   -0.28388E-01 10240   0.318E+00    0.530E-01
RMM:   4    -0.887483252252E+01    0.22165E-01   -0.48017E-03 10240   0.327E-01    0.220E-01
RMM:   5    -0.887354835053E+01    0.12842E-02   -0.36092E-03 10240   0.337E-01    0.328E-02
RMM:   6    -0.887385579630E+01   -0.30745E-03   -0.11145E-04 10240   0.514E-02    0.929E-03
RMM:   7    -0.887385386911E+01    0.19272E-05   -0.17656E-06  9433   0.599E-03
   3 F= -.88738539E+01 E0= -.88741355E+01  d E =-.160648E+00
       N       E                     dE             d eps       ncg     rms          rms(c)
RMM:   1    -0.887928599667E+01   -0.54302E-02   -0.35210E-02 10240   0.115E+00    0.296E-01
RMM:   2    -0.887659416443E+01    0.26918E-02   -0.55899E-04 10240   0.138E-01    0.783E-02
RMM:   3    -0.887633972924E+01    0.25444E-03   -0.12392E-04 10240   0.630E-02    0.146E-02
RMM:   4    -0.887634340929E+01   -0.36801E-05   -0.35276E-06 10047   0.794E-03    0.494E-03
RMM:   5    -0.887634347685E+01   -0.67557E-07   -0.64945E-07  8428   0.471E-03
   4 F= -.88763435E+01 E0= -.88766182E+01  d E =-.163138E+00
       N       E                     dE             d eps       ncg     rms          rms(c)
RMM:   1    -0.887879422300E+01   -0.24508E-02   -0.22097E-02 10240   0.916E-01    0.235E-01
RMM:   2    -0.887711421365E+01    0.16800E-02   -0.34134E-04 10240   0.108E-01    0.625E-02
RMM:   3    -0.887695206998E+01    0.16214E-03   -0.77773E-05 10240   0.501E-02    0.115E-02
RMM:   4    -0.887695437367E+01   -0.23037E-05   -0.22283E-06  9802   0.632E-03    0.391E-03
RMM:   5    -0.887695440839E+01   -0.34714E-07   -0.38832E-07  7582   0.361E-03
   5 F= -.88769544E+01 E0= -.88772237E+01  d E =-.163749E+00
