 vasp.5.4.1 24Jun15 (build Feb 03 2017 16:24:58) complex                        
  
 executed on           IFC91_ompi date 2018.06.22  15:37:03
 running on   20 total cores
 distrk:  each k-point on   20 cores,    1 groups
 distr:  one band on NCORES_PER_BAND=   1 cores,   20 groups


--------------------------------------------------------------------------------------------------------


 INCAR:
 POTCAR:   PAW_PBE Ir 06Sep2000                   

 ----------------------------------------------------------------------------- 
|                                                                             |
|           W    W    AA    RRRRR   N    N  II  N    N   GGGG   !!!           |
|           W    W   A  A   R    R  NN   N  II  NN   N  G    G  !!!           |
|           W    W  A    A  R    R  N N  N  II  N N  N  G       !!!           |
|           W WW W  AAAAAA  RRRRR   N  N N  II  N  N N  G  GGG   !            |
|           WW  WW  A    A  R   R   N   NN  II  N   NN  G    G                |
|           W    W  A    A  R    R  N    N  II  N    N   GGGG   !!!           |
|                                                                             |
|      For optimal performance we recommend to set                            |
|        NCORE= 4 - approx SQRT( number of cores)                             |
|      NCORE specifies how many cores store one orbital (NPAR=cpu/NCORE).     |
|      This setting can  greatly improve the performance of VASP for DFT.     |
|      The default, NPAR=number of cores might be grossly inefficient         |
|      on modern multi-core architectures or massively parallel machines.     |
|      Do your own testing !!!!                                               |
|      Unfortunately you need to use the default for GW and RPA calculations. |
|      (for HF NCORE is supported but not extensively tested yet)             |
|                                                                             |
 ----------------------------------------------------------------------------- 

 POTCAR:   PAW_PBE Ir 06Sep2000                   
   VRHFIN =Ir: s1d8                                                             
   LEXCH  = PE                                                                  
   EATOM  =   560.2052 eV,   41.1739 Ry                                         
                                                                                
   TITEL  = PAW_PBE Ir 06Sep2000                                                
   LULTRA =        F    use ultrasoft PP ?                                      
   IUNSCR =        1    unscreen: 0-lin 1-nonlin 2-no                           
   RPACOR =    2.250    partial core radius                                     
   POMASS =  192.220; ZVAL   =    9.000    mass and valenz                      
   RCORE  =    2.600    outmost cutoff radius                                   
   RWIGS  =    2.690; RWIGS  =    1.423    wigner-seitz radius (au A)           
   ENMAX  =  210.870; ENMIN  =  158.153 eV                                      
   RCLOC  =    1.857    cutoff for local pot                                    
   LCOR   =        T    correct aug charges                                     
   LPAW   =        T    paw PP                                                  
   EAUG   =  318.962                                                            
   DEXC   =    -.027                                                            
   RMAX   =    3.175    core radius for proj-oper                               
   RAUG   =    1.300    factor for augmentation sphere                          
   RDEP   =    2.748    radius for radial grids                                 
   QCUT   =   -3.937; QGAM   =    7.874    optimization parameters              
                                                                                
   Description                                                                  
     l     E      TYP  RCUT    TYP  RCUT                                        
     2   .000     23  2.600                                                     
     2   .000     23  2.600                                                     
     0   .000     23  2.600                                                     
     0   .000     23  2.600                                                     
     1  -.200     23  2.600                                                     
     1  1.500     23  2.600                                                     
     3   .000      7   .000                                                     
  local pseudopotential read in
  partial core-charges read in
  atomic valenz-charges read in
  non local Contribution for L=           2  read in
    real space projection operators read in
  non local Contribution for L=           2  read in
    real space projection operators read in
  non local Contribution for L=           0  read in
    real space projection operators read in
  non local Contribution for L=           0  read in
    real space projection operators read in
  non local Contribution for L=           1  read in
    real space projection operators read in
  non local Contribution for L=           1  read in
    real space projection operators read in
    PAW grid and wavefunctions read in
 
   number of l-projection  operators is LMAX  =           6
   number of lm-projection operators is LMMAX =          18
 
 PAW_PBE Ir 06Sep2000                   :
 energy of atom  1       EATOM= -560.2052
 kinetic energy error for atom=    0.0540 (will be added to EATOM!!)
 
 
 POSCAR: title                                   
  positions in cartesian coordinates
  No initial velocities read in
 exchange correlation table for  LEXCH =        8
   RHO(1)=    0.500       N(1)  =     2000
   RHO(2)=  100.500       N(2)  =     4000
 


--------------------------------------------------------------------------------------------------------


 ion  position               nearest neighbor table
   1  0.000  0.000  0.000-
 
  LATTYP: Found a face centered cubic cell.
 ALAT       =     4.0092950000
  
  Lattice vectors:
  
 A1 = (   0.0000000000,   2.0046475000,   2.0046475000)
 A2 = (   2.0046475000,   0.0000000000,   2.0046475000)
 A3 = (   2.0046475000,   2.0046475000,   0.0000000000)


Analysis of symmetry for initial positions (statically):
=====================================================================
 Subroutine PRICEL returns:
 Original cell was already a primitive cell.
 

 Routine SETGRP: Setting up the symmetry group for a 
 face centered cubic supercell.


 Subroutine GETGRP returns: Found 48 space group operations
 (whereof 48 operations were pure point group operations)
 out of a pool of 48 trial point group operations.


The static configuration has the point symmetry O_h .


Analysis of symmetry for dynamics (positions and initial velocities):
=====================================================================
 Subroutine PRICEL returns:
 Original cell was already a primitive cell.
 

 Routine SETGRP: Setting up the symmetry group for a 
 face centered cubic supercell.


 Subroutine GETGRP returns: Found 48 space group operations
 (whereof 48 operations were pure point group operations)
 out of a pool of 48 trial point group operations.


The dynamic configuration has the point symmetry O_h .
 
 
 KPOINTS: KPOINTS file                            

Automatic generation of k-mesh.
Space group operators:
 irot       det(A)        alpha          n_x          n_y          n_z        tau_x        tau_y        tau_z
    1     1.000000     0.000001     1.000000     0.000000     0.000000     0.000000     0.000000     0.000000
    2    -1.000000     0.000001     1.000000     0.000000     0.000000     0.000000     0.000000     0.000000
    3     1.000000   120.000000    -0.577350    -0.577350    -0.577350     0.000000     0.000000     0.000000
    4    -1.000000   120.000000    -0.577350    -0.577350    -0.577350     0.000000     0.000000     0.000000
    5     1.000000   120.000000     0.577350     0.577350     0.577350     0.000000     0.000000     0.000000
    6    -1.000000   120.000000     0.577350     0.577350     0.577350     0.000000     0.000000     0.000000
    7     1.000000    90.000000     0.000000     0.000000    -1.000000     0.000000     0.000000     0.000000
    8    -1.000000    90.000000     0.000000     0.000000    -1.000000     0.000000     0.000000     0.000000
    9     1.000000   180.000000     0.000000     0.707107     0.707107     0.000000     0.000000     0.000000
   10    -1.000000   180.000000     0.000000     0.707107     0.707107     0.000000     0.000000     0.000000
   11     1.000000    90.000000     0.000000     1.000000     0.000000     0.000000     0.000000     0.000000
   12    -1.000000    90.000000     0.000000     1.000000     0.000000     0.000000     0.000000     0.000000
   13     1.000000   180.000000     0.000000     0.000000     1.000000     0.000000     0.000000     0.000000
   14    -1.000000   180.000000     0.000000     0.000000     1.000000     0.000000     0.000000     0.000000
   15     1.000000   120.000000    -0.577350     0.577350     0.577350     0.000000     0.000000     0.000000
   16    -1.000000   120.000000    -0.577350     0.577350     0.577350     0.000000     0.000000     0.000000
   17     1.000000   120.000000    -0.577350     0.577350    -0.577350     0.000000     0.000000     0.000000
   18    -1.000000   120.000000    -0.577350     0.577350    -0.577350     0.000000     0.000000     0.000000
   19     1.000000    90.000000     0.000000     0.000000     1.000000     0.000000     0.000000     0.000000
   20    -1.000000    90.000000     0.000000     0.000000     1.000000     0.000000     0.000000     0.000000
   21     1.000000    90.000000    -1.000000     0.000000     0.000000     0.000000     0.000000     0.000000
   22    -1.000000    90.000000    -1.000000     0.000000     0.000000     0.000000     0.000000     0.000000
   23     1.000000   180.000000     0.707107     0.000000     0.707107     0.000000     0.000000     0.000000
   24    -1.000000   180.000000     0.707107     0.000000     0.707107     0.000000     0.000000     0.000000
   25     1.000000   120.000000     0.577350    -0.577350     0.577350     0.000000     0.000000     0.000000
   26    -1.000000   120.000000     0.577350    -0.577350     0.577350     0.000000     0.000000     0.000000
   27     1.000000   120.000000    -0.577350    -0.577350     0.577350     0.000000     0.000000     0.000000
   28    -1.000000   120.000000    -0.577350    -0.577350     0.577350     0.000000     0.000000     0.000000
   29     1.000000   180.000000     1.000000     0.000000     0.000000     0.000000     0.000000     0.000000
   30    -1.000000   180.000000     1.000000     0.000000     0.000000     0.000000     0.000000     0.000000
   31     1.000000    90.000000     0.000000    -1.000000     0.000000     0.000000     0.000000     0.000000
   32    -1.000000    90.000000     0.000000    -1.000000     0.000000     0.000000     0.000000     0.000000
   33     1.000000   180.000000     0.707107     0.707107     0.000000     0.000000     0.000000     0.000000
   34    -1.000000   180.000000     0.707107     0.707107     0.000000     0.000000     0.000000     0.000000
   35     1.000000    90.000000     1.000000     0.000000     0.000000     0.000000     0.000000     0.000000
   36    -1.000000    90.000000     1.000000     0.000000     0.000000     0.000000     0.000000     0.000000
   37     1.000000   120.000000     0.577350    -0.577350    -0.577350     0.000000     0.000000     0.000000
   38    -1.000000   120.000000     0.577350    -0.577350    -0.577350     0.000000     0.000000     0.000000
   39     1.000000   180.000000     0.000000     1.000000     0.000000     0.000000     0.000000     0.000000
   40    -1.000000   180.000000     0.000000     1.000000     0.000000     0.000000     0.000000     0.000000
   41     1.000000   120.000000     0.577350     0.577350    -0.577350     0.000000     0.000000     0.000000
   42    -1.000000   120.000000     0.577350     0.577350    -0.577350     0.000000     0.000000     0.000000
   43     1.000000   180.000000     0.000000    -0.707107     0.707107     0.000000     0.000000     0.000000
   44    -1.000000   180.000000     0.000000    -0.707107     0.707107     0.000000     0.000000     0.000000
   45     1.000000   180.000000     0.707107    -0.707107     0.000000     0.000000     0.000000     0.000000
   46    -1.000000   180.000000     0.707107    -0.707107     0.000000     0.000000     0.000000     0.000000
   47     1.000000   180.000000     0.707107     0.000000    -0.707107     0.000000     0.000000     0.000000
   48    -1.000000   180.000000     0.707107     0.000000    -0.707107     0.000000     0.000000     0.000000
 
 Subroutine IBZKPT returns following result:
 ===========================================
 
 Found    256 irreducible k-points:
 
 Following reciprocal coordinates:
            Coordinates               Weight
  0.000000  0.000000  0.000000      1.000000
  0.050000  0.000000  0.000000      8.000000
  0.100000  0.000000  0.000000      8.000000
  0.150000  0.000000  0.000000      8.000000
  0.200000  0.000000  0.000000      8.000000
  0.250000  0.000000  0.000000      8.000000
  0.300000  0.000000  0.000000      8.000000
  0.350000  0.000000  0.000000      8.000000
  0.400000  0.000000  0.000000      8.000000
  0.450000  0.000000  0.000000      8.000000
  0.500000  0.000000  0.000000      4.000000
  0.050000  0.050000  0.000000      6.000000
  0.100000  0.050000  0.000000     24.000000
  0.150000  0.050000  0.000000     24.000000
  0.200000  0.050000  0.000000     24.000000
  0.250000  0.050000  0.000000     24.000000
  0.300000  0.050000  0.000000     24.000000
  0.350000  0.050000  0.000000     24.000000
  0.400000  0.050000  0.000000     24.000000
  0.450000  0.050000  0.000000     24.000000
  0.500000  0.050000  0.000000     24.000000
 -0.450000  0.050000  0.000000     24.000000
 -0.400000  0.050000  0.000000     24.000000
 -0.350000  0.050000  0.000000     24.000000
 -0.300000  0.050000  0.000000     24.000000
 -0.250000  0.050000  0.000000     24.000000
 -0.200000  0.050000  0.000000     24.000000
 -0.150000  0.050000  0.000000     24.000000
 -0.100000  0.050000  0.000000     24.000000
 -0.050000  0.050000  0.000000     12.000000
  0.100000  0.100000  0.000000      6.000000
  0.150000  0.100000  0.000000     24.000000
  0.200000  0.100000  0.000000     24.000000
  0.250000  0.100000  0.000000     24.000000
  0.300000  0.100000  0.000000     24.000000
  0.350000  0.100000  0.000000     24.000000
  0.400000  0.100000  0.000000     24.000000
  0.450000  0.100000  0.000000     24.000000
  0.500000  0.100000  0.000000     24.000000
 -0.450000  0.100000  0.000000     24.000000
 -0.400000  0.100000  0.000000     24.000000
 -0.350000  0.100000  0.000000     24.000000
 -0.300000  0.100000  0.000000     24.000000
 -0.250000  0.100000  0.000000     24.000000
 -0.200000  0.100000  0.000000     24.000000
 -0.150000  0.100000  0.000000     24.000000
 -0.100000  0.100000  0.000000     12.000000
  0.150000  0.150000  0.000000      6.000000
  0.200000  0.150000  0.000000     24.000000
  0.250000  0.150000  0.000000     24.000000
  0.300000  0.150000  0.000000     24.000000
  0.350000  0.150000  0.000000     24.000000
  0.400000  0.150000  0.000000     24.000000
  0.450000  0.150000  0.000000     24.000000
  0.500000  0.150000  0.000000     24.000000
 -0.450000  0.150000  0.000000     24.000000
 -0.400000  0.150000  0.000000     24.000000
 -0.350000  0.150000  0.000000     24.000000
 -0.300000  0.150000  0.000000     24.000000
 -0.250000  0.150000  0.000000     24.000000
 -0.200000  0.150000  0.000000     24.000000
 -0.150000  0.150000  0.000000     12.000000
  0.200000  0.200000  0.000000      6.000000
  0.250000  0.200000  0.000000     24.000000
  0.300000  0.200000  0.000000     24.000000
  0.350000  0.200000  0.000000     24.000000
  0.400000  0.200000  0.000000     24.000000
  0.450000  0.200000  0.000000     24.000000
  0.500000  0.200000  0.000000     24.000000
 -0.450000  0.200000  0.000000     24.000000
 -0.400000  0.200000  0.000000     24.000000
 -0.350000  0.200000  0.000000     24.000000
 -0.300000  0.200000  0.000000     24.000000
 -0.250000  0.200000  0.000000     24.000000
 -0.200000  0.200000  0.000000     12.000000
  0.250000  0.250000  0.000000      6.000000
  0.300000  0.250000  0.000000     24.000000
  0.350000  0.250000  0.000000     24.000000
  0.400000  0.250000  0.000000     24.000000
  0.450000  0.250000  0.000000     24.000000
  0.500000  0.250000  0.000000     24.000000
 -0.450000  0.250000  0.000000     24.000000
 -0.400000  0.250000  0.000000     24.000000
 -0.350000  0.250000  0.000000     24.000000
 -0.300000  0.250000  0.000000     24.000000
 -0.250000  0.250000  0.000000     12.000000
  0.300000  0.300000  0.000000      6.000000
  0.350000  0.300000  0.000000     24.000000
  0.400000  0.300000  0.000000     24.000000
  0.450000  0.300000  0.000000     24.000000
  0.500000  0.300000  0.000000     24.000000
 -0.450000  0.300000  0.000000     24.000000
 -0.400000  0.300000  0.000000     24.000000
 -0.350000  0.300000  0.000000     24.000000
 -0.300000  0.300000  0.000000     12.000000
  0.350000  0.350000  0.000000      6.000000
  0.400000  0.350000  0.000000     24.000000
  0.450000  0.350000  0.000000     24.000000
  0.500000  0.350000  0.000000     24.000000
 -0.450000  0.350000  0.000000     24.000000
 -0.400000  0.350000  0.000000     24.000000
 -0.350000  0.350000  0.000000     12.000000
  0.400000  0.400000  0.000000      6.000000
  0.450000  0.400000  0.000000     24.000000
  0.500000  0.400000  0.000000     24.000000
 -0.450000  0.400000  0.000000     24.000000
 -0.400000  0.400000  0.000000     12.000000
  0.450000  0.450000  0.000000      6.000000
  0.500000  0.450000  0.000000     24.000000
 -0.450000  0.450000  0.000000     12.000000
  0.500000  0.500000  0.000000      3.000000
  0.150000  0.100000  0.050000     24.000000
  0.200000  0.100000  0.050000     48.000000
  0.250000  0.100000  0.050000     48.000000
  0.300000  0.100000  0.050000     48.000000
  0.350000  0.100000  0.050000     48.000000
  0.400000  0.100000  0.050000     48.000000
  0.450000  0.100000  0.050000     48.000000
  0.500000  0.100000  0.050000     48.000000
 -0.450000  0.100000  0.050000     24.000000
  0.200000  0.150000  0.050000     24.000000
  0.250000  0.150000  0.050000     48.000000
  0.300000  0.150000  0.050000     48.000000
  0.350000  0.150000  0.050000     48.000000
  0.400000  0.150000  0.050000     48.000000
  0.450000  0.150000  0.050000     48.000000
  0.500000  0.150000  0.050000     48.000000
 -0.450000  0.150000  0.050000     48.000000
 -0.400000  0.150000  0.050000     48.000000
 -0.350000  0.150000  0.050000     48.000000
 -0.300000  0.150000  0.050000     48.000000
 -0.250000  0.150000  0.050000     48.000000
 -0.200000  0.150000  0.050000     48.000000
 -0.150000  0.150000  0.050000     48.000000
 -0.100000  0.150000  0.050000     24.000000
  0.250000  0.200000  0.050000     24.000000
  0.300000  0.200000  0.050000     48.000000
  0.350000  0.200000  0.050000     48.000000
  0.400000  0.200000  0.050000     48.000000
  0.450000  0.200000  0.050000     48.000000
  0.500000  0.200000  0.050000     48.000000
 -0.450000  0.200000  0.050000     48.000000
 -0.400000  0.200000  0.050000     48.000000
 -0.350000  0.200000  0.050000     48.000000
 -0.300000  0.200000  0.050000     48.000000
 -0.250000  0.200000  0.050000     48.000000
 -0.200000  0.200000  0.050000     48.000000
 -0.150000  0.200000  0.050000     24.000000
  0.300000  0.250000  0.050000     24.000000
  0.350000  0.250000  0.050000     48.000000
  0.400000  0.250000  0.050000     48.000000
  0.450000  0.250000  0.050000     48.000000
  0.500000  0.250000  0.050000     48.000000
 -0.450000  0.250000  0.050000     48.000000
 -0.400000  0.250000  0.050000     48.000000
 -0.350000  0.250000  0.050000     48.000000
 -0.300000  0.250000  0.050000     48.000000
 -0.250000  0.250000  0.050000     48.000000
 -0.200000  0.250000  0.050000     24.000000
  0.350000  0.300000  0.050000     24.000000
  0.400000  0.300000  0.050000     48.000000
  0.450000  0.300000  0.050000     48.000000
  0.500000  0.300000  0.050000     48.000000
 -0.450000  0.300000  0.050000     48.000000
 -0.400000  0.300000  0.050000     48.000000
 -0.350000  0.300000  0.050000     48.000000
 -0.300000  0.300000  0.050000     48.000000
 -0.250000  0.300000  0.050000     24.000000
  0.400000  0.350000  0.050000     24.000000
  0.450000  0.350000  0.050000     48.000000
  0.500000  0.350000  0.050000     48.000000
 -0.450000  0.350000  0.050000     48.000000
 -0.400000  0.350000  0.050000     48.000000
 -0.350000  0.350000  0.050000     48.000000
 -0.300000  0.350000  0.050000     24.000000
  0.450000  0.400000  0.050000     24.000000
  0.500000  0.400000  0.050000     48.000000
 -0.450000  0.400000  0.050000     48.000000
 -0.400000  0.400000  0.050000     48.000000
 -0.350000  0.400000  0.050000     24.000000
  0.500000  0.450000  0.050000     24.000000
 -0.450000  0.450000  0.050000     48.000000
 -0.400000  0.450000  0.050000     24.000000
 -0.450000  0.500000  0.050000     12.000000
  0.300000  0.200000  0.100000     24.000000
  0.350000  0.200000  0.100000     48.000000
  0.400000  0.200000  0.100000     48.000000
  0.450000  0.200000  0.100000     48.000000
  0.500000  0.200000  0.100000     48.000000
 -0.450000  0.200000  0.100000     48.000000
 -0.400000  0.200000  0.100000     24.000000
  0.350000  0.250000  0.100000     24.000000
  0.400000  0.250000  0.100000     48.000000
  0.450000  0.250000  0.100000     48.000000
  0.500000  0.250000  0.100000     48.000000
 -0.450000  0.250000  0.100000     48.000000
 -0.400000  0.250000  0.100000     48.000000
 -0.350000  0.250000  0.100000     48.000000
 -0.300000  0.250000  0.100000     48.000000
 -0.250000  0.250000  0.100000     48.000000
 -0.200000  0.250000  0.100000     48.000000
 -0.150000  0.250000  0.100000     24.000000
  0.400000  0.300000  0.100000     24.000000
  0.450000  0.300000  0.100000     48.000000
  0.500000  0.300000  0.100000     48.000000
 -0.450000  0.300000  0.100000     48.000000
 -0.400000  0.300000  0.100000     48.000000
 -0.350000  0.300000  0.100000     48.000000
 -0.300000  0.300000  0.100000     48.000000
 -0.250000  0.300000  0.100000     48.000000
 -0.200000  0.300000  0.100000     24.000000
  0.450000  0.350000  0.100000     24.000000
  0.500000  0.350000  0.100000     48.000000
 -0.450000  0.350000  0.100000     48.000000
 -0.400000  0.350000  0.100000     48.000000
 -0.350000  0.350000  0.100000     48.000000
 -0.300000  0.350000  0.100000     48.000000
 -0.250000  0.350000  0.100000     24.000000
  0.500000  0.400000  0.100000     24.000000
 -0.450000  0.400000  0.100000     48.000000
 -0.400000  0.400000  0.100000     48.000000
 -0.350000  0.400000  0.100000     48.000000
 -0.300000  0.400000  0.100000     24.000000
 -0.450000  0.450000  0.100000     24.000000
 -0.400000  0.450000  0.100000     48.000000
 -0.350000  0.450000  0.100000     24.000000
 -0.400000  0.500000  0.100000     12.000000
  0.450000  0.300000  0.150000     24.000000
  0.500000  0.300000  0.150000     48.000000
 -0.450000  0.300000  0.150000     48.000000
 -0.400000  0.300000  0.150000     48.000000
 -0.350000  0.300000  0.150000     24.000000
  0.500000  0.350000  0.150000     24.000000
 -0.450000  0.350000  0.150000     48.000000
 -0.400000  0.350000  0.150000     48.000000
 -0.350000  0.350000  0.150000     48.000000
 -0.300000  0.350000  0.150000     48.000000
 -0.250000  0.350000  0.150000     48.000000
 -0.200000  0.350000  0.150000     24.000000
 -0.450000  0.400000  0.150000     24.000000
 -0.400000  0.400000  0.150000     48.000000
 -0.350000  0.400000  0.150000     48.000000
 -0.300000  0.400000  0.150000     48.000000
 -0.250000  0.400000  0.150000     24.000000
 -0.400000  0.450000  0.150000     24.000000
 -0.350000  0.450000  0.150000     48.000000
 -0.300000  0.450000  0.150000     24.000000
 -0.350000  0.500000  0.150000     12.000000
 -0.400000  0.400000  0.200000     24.000000
 -0.350000  0.400000  0.200000     48.000000
 -0.300000  0.400000  0.200000     24.000000
 -0.350000  0.450000  0.200000     24.000000
 -0.300000  0.450000  0.200000     48.000000
 -0.250000  0.450000  0.200000     24.000000
 -0.300000  0.500000  0.200000     12.000000
 -0.250000  0.500000  0.250000      6.000000
 
 Following cartesian coordinates:
            Coordinates               Weight
  0.000000  0.000000  0.000000      1.000000
 -0.012471  0.012471  0.012471      8.000000
 -0.024942  0.024942  0.024942      8.000000
 -0.037413  0.037413  0.037413      8.000000
 -0.049884  0.049884  0.049884      8.000000
 -0.062355  0.062355  0.062355      8.000000
 -0.074826  0.074826  0.074826      8.000000
 -0.087297  0.087297  0.087297      8.000000
 -0.099768  0.099768  0.099768      8.000000
 -0.112239  0.112239  0.112239      8.000000
 -0.124710  0.124710  0.124710      4.000000
  0.000000  0.000000  0.024942      6.000000
 -0.012471  0.012471  0.037413     24.000000
 -0.024942  0.024942  0.049884     24.000000
 -0.037413  0.037413  0.062355     24.000000
 -0.049884  0.049884  0.074826     24.000000
 -0.062355  0.062355  0.087297     24.000000
 -0.074826  0.074826  0.099768     24.000000
 -0.087297  0.087297  0.112239     24.000000
 -0.099768  0.099768  0.124710     24.000000
 -0.112239  0.112239  0.137181     24.000000
  0.124710 -0.124710 -0.099768     24.000000
  0.112239 -0.112239 -0.087297     24.000000
  0.099768 -0.099768 -0.074826     24.000000
  0.087297 -0.087297 -0.062355     24.000000
  0.074826 -0.074826 -0.049884     24.000000
  0.062355 -0.062355 -0.037413     24.000000
  0.049884 -0.049884 -0.024942     24.000000
  0.037413 -0.037413 -0.012471     24.000000
  0.024942 -0.024942  0.000000     12.000000
  0.000000  0.000000  0.049884      6.000000
 -0.012471  0.012471  0.062355     24.000000
 -0.024942  0.024942  0.074826     24.000000
 -0.037413  0.037413  0.087297     24.000000
 -0.049884  0.049884  0.099768     24.000000
 -0.062355  0.062355  0.112239     24.000000
 -0.074826  0.074826  0.124710     24.000000
 -0.087297  0.087297  0.137181     24.000000
 -0.099768  0.099768  0.149652     24.000000
  0.137181 -0.137181 -0.087297     24.000000
  0.124710 -0.124710 -0.074826     24.000000
  0.112239 -0.112239 -0.062355     24.000000
  0.099768 -0.099768 -0.049884     24.000000
  0.087297 -0.087297 -0.037413     24.000000
  0.074826 -0.074826 -0.024942     24.000000
  0.062355 -0.062355 -0.012471     24.000000
  0.049884 -0.049884 -0.000000     12.000000
  0.000000  0.000000  0.074826      6.000000
 -0.012471  0.012471  0.087297     24.000000
 -0.024942  0.024942  0.099768     24.000000
 -0.037413  0.037413  0.112239     24.000000
 -0.049884  0.049884  0.124710     24.000000
 -0.062355  0.062355  0.137181     24.000000
 -0.074826  0.074826  0.149652     24.000000
 -0.087297  0.087297  0.162123     24.000000
  0.149652 -0.149652 -0.074826     24.000000
  0.137181 -0.137181 -0.062355     24.000000
  0.124710 -0.124710 -0.049884     24.000000
  0.112239 -0.112239 -0.037413     24.000000
  0.099768 -0.099768 -0.024942     24.000000
  0.087297 -0.087297 -0.012471     24.000000
  0.074826 -0.074826  0.000000     12.000000
  0.000000  0.000000  0.099768      6.000000
 -0.012471  0.012471  0.112239     24.000000
 -0.024942  0.024942  0.124710     24.000000
 -0.037413  0.037413  0.137181     24.000000
 -0.049884  0.049884  0.149652     24.000000
 -0.062355  0.062355  0.162123     24.000000
 -0.074826  0.074826  0.174594     24.000000
  0.162123 -0.162123 -0.062355     24.000000
  0.149652 -0.149652 -0.049884     24.000000
  0.137181 -0.137181 -0.037413     24.000000
  0.124710 -0.124710 -0.024942     24.000000
  0.112239 -0.112239 -0.012471     24.000000
  0.099768 -0.099768  0.000000     12.000000
  0.000000  0.000000  0.124710      6.000000
 -0.012471  0.012471  0.137181     24.000000
 -0.024942  0.024942  0.149652     24.000000
 -0.037413  0.037413  0.162123     24.000000
 -0.049884  0.049884  0.174594     24.000000
 -0.062355  0.062355  0.187065     24.000000
  0.174594 -0.174594 -0.049884     24.000000
  0.162123 -0.162123 -0.037413     24.000000
  0.149652 -0.149652 -0.024942     24.000000
  0.137181 -0.137181 -0.012471     24.000000
  0.124710 -0.124710  0.000000     12.000000
  0.000000  0.000000  0.149652      6.000000
 -0.012471  0.012471  0.162123     24.000000
 -0.024942  0.024942  0.174594     24.000000
 -0.037413  0.037413  0.187065     24.000000
 -0.049884  0.049884  0.199536     24.000000
  0.187065 -0.187065 -0.037413     24.000000
  0.174594 -0.174594 -0.024942     24.000000
  0.162123 -0.162123 -0.012471     24.000000
  0.149652 -0.149652  0.000000     12.000000
  0.000000  0.000000  0.174594      6.000000
 -0.012471  0.012471  0.187065     24.000000
 -0.024942  0.024942  0.199536     24.000000
 -0.037413  0.037413  0.212007     24.000000
  0.199536 -0.199536 -0.024942     24.000000
  0.187065 -0.187065 -0.012471     24.000000
  0.174594 -0.174594  0.000000     12.000000
  0.000000  0.000000  0.199536      6.000000
 -0.012471  0.012471  0.212007     24.000000
 -0.024942  0.024942  0.224478     24.000000
  0.212007 -0.212007 -0.012471     24.000000
  0.199536 -0.199536  0.000000     12.000000
  0.000000  0.000000  0.224478      6.000000
 -0.012471  0.012471  0.236949     24.000000
  0.224478 -0.224478  0.000000     12.000000
  0.000000  0.000000  0.249420      3.000000
 -0.000000  0.024942  0.049884     24.000000
 -0.012471  0.037413  0.062355     48.000000
 -0.024942  0.049884  0.074826     48.000000
 -0.037413  0.062355  0.087297     48.000000
 -0.049884  0.074826  0.099768     48.000000
 -0.062355  0.087297  0.112239     48.000000
 -0.074826  0.099768  0.124710     48.000000
 -0.087297  0.112239  0.137181     48.000000
  0.149652 -0.124710 -0.099768     24.000000
  0.000000  0.024942  0.074826     24.000000
 -0.012471  0.037413  0.087297     48.000000
 -0.024942  0.049884  0.099768     48.000000
 -0.037413  0.062355  0.112239     48.000000
 -0.049884  0.074826  0.124710     48.000000
 -0.062355  0.087297  0.137181     48.000000
 -0.074826  0.099768  0.149652     48.000000
  0.162123 -0.137181 -0.087297     48.000000
  0.149652 -0.124710 -0.074826     48.000000
  0.137181 -0.112239 -0.062355     48.000000
  0.124710 -0.099768 -0.049884     48.000000
  0.112239 -0.087297 -0.037413     48.000000
  0.099768 -0.074826 -0.024942     48.000000
  0.087297 -0.062355 -0.012471     48.000000
  0.074826 -0.049884  0.000000     24.000000
  0.000000  0.024942  0.099768     24.000000
 -0.012471  0.037413  0.112239     48.000000
 -0.024942  0.049884  0.124710     48.000000
 -0.037413  0.062355  0.137181     48.000000
 -0.049884  0.074826  0.149652     48.000000
 -0.062355  0.087297  0.162123     48.000000
  0.174594 -0.149652 -0.074826     48.000000
  0.162123 -0.137181 -0.062355     48.000000
  0.149652 -0.124710 -0.049884     48.000000
  0.137181 -0.112239 -0.037413     48.000000
  0.124710 -0.099768 -0.024942     48.000000
  0.112239 -0.087297 -0.012471     48.000000
  0.099768 -0.074826 -0.000000     24.000000
 -0.000000  0.024942  0.124710     24.000000
 -0.012471  0.037413  0.137181     48.000000
 -0.024942  0.049884  0.149652     48.000000
 -0.037413  0.062355  0.162123     48.000000
 -0.049884  0.074826  0.174594     48.000000
  0.187065 -0.162123 -0.062355     48.000000
  0.174594 -0.149652 -0.049884     48.000000
  0.162123 -0.137181 -0.037413     48.000000
  0.149652 -0.124710 -0.024942     48.000000
  0.137181 -0.112239 -0.012471     48.000000
  0.124710 -0.099768 -0.000000     24.000000
  0.000000  0.024942  0.149652     24.000000
 -0.012471  0.037413  0.162123     48.000000
 -0.024942  0.049884  0.174594     48.000000
 -0.037413  0.062355  0.187065     48.000000
  0.199536 -0.174594 -0.049884     48.000000
  0.187065 -0.162123 -0.037413     48.000000
  0.174594 -0.149652 -0.024942     48.000000
  0.162123 -0.137181 -0.012471     48.000000
  0.149652 -0.124710  0.000000     24.000000
  0.000000  0.024942  0.174594     24.000000
 -0.012471  0.037413  0.187065     48.000000
 -0.024942  0.049884  0.199536     48.000000
  0.212007 -0.187065 -0.037413     48.000000
  0.199536 -0.174594 -0.024942     48.000000
  0.187065 -0.162123 -0.012471     48.000000
  0.174594 -0.149652 -0.000000     24.000000
  0.000000  0.024942  0.199536     24.000000
 -0.012471  0.037413  0.212007     48.000000
  0.224478 -0.199536 -0.024942     48.000000
  0.212007 -0.187065 -0.012471     48.000000
  0.199536 -0.174594  0.000000     24.000000
  0.000000  0.024942  0.224478     24.000000
  0.236949 -0.212007 -0.012471     48.000000
  0.224478 -0.199536 -0.000000     24.000000
  0.249420 -0.224478 -0.000000     12.000000
 -0.000000  0.049884  0.099768     24.000000
 -0.012471  0.062355  0.112239     48.000000
 -0.024942  0.074826  0.124710     48.000000
 -0.037413  0.087297  0.137181     48.000000
 -0.049884  0.099768  0.149652     48.000000
  0.187065 -0.137181 -0.087297     48.000000
  0.174594 -0.124710 -0.074826     24.000000
 -0.000000  0.049884  0.124710     24.000000
 -0.012471  0.062355  0.137181     48.000000
 -0.024942  0.074826  0.149652     48.000000
 -0.037413  0.087297  0.162123     48.000000
  0.199536 -0.149652 -0.074826     48.000000
  0.187065 -0.137181 -0.062355     48.000000
  0.174594 -0.124710 -0.049884     48.000000
  0.162123 -0.112239 -0.037413     48.000000
  0.149652 -0.099768 -0.024942     48.000000
  0.137181 -0.087297 -0.012471     48.000000
  0.124710 -0.074826 -0.000000     24.000000
 -0.000000  0.049884  0.149652     24.000000
 -0.012471  0.062355  0.162123     48.000000
 -0.024942  0.074826  0.174594     48.000000
  0.212007 -0.162123 -0.062355     48.000000
  0.199536 -0.149652 -0.049884     48.000000
  0.187065 -0.137181 -0.037413     48.000000
  0.174594 -0.124710 -0.024942     48.000000
  0.162123 -0.112239 -0.012471     48.000000
  0.149652 -0.099768  0.000000     24.000000
 -0.000000  0.049884  0.174594     24.000000
 -0.012471  0.062355  0.187065     48.000000
  0.224478 -0.174594 -0.049884     48.000000
  0.212007 -0.162123 -0.037413     48.000000
  0.199536 -0.149652 -0.024942     48.000000
  0.187065 -0.137181 -0.012471     48.000000
  0.174594 -0.124710  0.000000     24.000000
  0.000000  0.049884  0.199536     24.000000
  0.236949 -0.187065 -0.037413     48.000000
  0.224478 -0.174594 -0.024942     48.000000
  0.212007 -0.162123 -0.012471     48.000000
  0.199536 -0.149652  0.000000     24.000000
  0.249420 -0.199536 -0.024942     24.000000
  0.236949 -0.187065 -0.012471     48.000000
  0.224478 -0.174594  0.000000     24.000000
  0.249420 -0.199536 -0.000000     12.000000
  0.000000  0.074826  0.149652     24.000000
 -0.012471  0.087297  0.162123     48.000000
  0.224478 -0.149652 -0.074826     48.000000
  0.212007 -0.137181 -0.062355     48.000000
  0.199536 -0.124710 -0.049884     24.000000
  0.000000  0.074826  0.174594     24.000000
  0.236949 -0.162123 -0.062355     48.000000
  0.224478 -0.149652 -0.049884     48.000000
  0.212007 -0.137181 -0.037413     48.000000
  0.199536 -0.124710 -0.024942     48.000000
  0.187065 -0.112239 -0.012471     48.000000
  0.174594 -0.099768 -0.000000     24.000000
  0.249420 -0.174594 -0.049884     24.000000
  0.236949 -0.162123 -0.037413     48.000000
  0.224478 -0.149652 -0.024942     48.000000
  0.212007 -0.137181 -0.012471     48.000000
  0.199536 -0.124710  0.000000     24.000000
  0.249420 -0.174594 -0.024942     24.000000
  0.236949 -0.162123 -0.012471     48.000000
  0.224478 -0.149652 -0.000000     24.000000
  0.249420 -0.174594 -0.000000     12.000000
  0.249420 -0.149652 -0.049884     24.000000
  0.236949 -0.137181 -0.037413     48.000000
  0.224478 -0.124710 -0.024942     24.000000
  0.249420 -0.149652 -0.024942     24.000000
  0.236949 -0.137181 -0.012471     48.000000
  0.224478 -0.124710  0.000000     24.000000
  0.249420 -0.149652 -0.000000     12.000000
  0.249420 -0.124710  0.000000      6.000000
 


--------------------------------------------------------------------------------------------------------




 Dimension of arrays:
   k-points           NKPTS =    256   k-points in BZ     NKDIM =    256   number of bands    NBANDS=     20
   number of dos      NEDOS =    301   number of ions     NIONS =      1
   non local maximal  LDIM  =      6   non local SUM 2l+1 LMDIM =     18
   total plane-waves  NPLWV =   2744
   max r-space proj   IRMAX =      1   max aug-charges    IRDMAX=  12513
   dimension x,y,z NGX =    14 NGY =   14 NGZ =   14
   dimension x,y,z NGXF=    28 NGYF=   28 NGZF=   28
   support grid    NGXF=    28 NGYF=   28 NGZF=   28
   ions per type =               1
 NGX,Y,Z   is equivalent  to a cutoff of   8.21,  8.21,  8.21 a.u.
 NGXF,Y,Z  is equivalent  to a cutoff of  16.42, 16.42, 16.42 a.u.


 I would recommend the setting:
   dimension x,y,z NGX =    13 NGY =   13 NGZ =   13
 SYSTEM =  Ir_Ru                                   
 POSCAR =  title                                   

 Startparameter for this run:
   NWRITE =      2    write-flag & timer
   PREC   = accura    normal or accurate (medium, high low for compatibility)
   ISTART =      0    job   : 0-new  1-cont  2-samecut
   ICHARG =      2    charge: 1-file 2-atom 10-const
   ISPIN  =      1    spin polarized calculation?
   LNONCOLLINEAR =      F non collinear calculations
   LSORBIT =      F    spin-orbit coupling
   INIWAV =      1    electr: 0-lowe 1-rand  2-diag
   LASPH  =      F    aspherical Exc in radial PAW
   METAGGA=      F    non-selfconsistent MetaGGA calc.

 Electronic Relaxation 1
   ENCUT  =  210.9 eV  15.50 Ry    3.94 a.u.   3.36  3.36  3.36*2*pi/ulx,y,z
   ENINI  =  210.9     initial cutoff
   ENAUG  =  319.0 eV  augmentation charge cutoff
   NELM   =     60;   NELMIN=  5; NELMDL=-12     # of ELM steps 
   EDIFF  = 0.1E-03   stopping-criterion for ELM
   LREAL  =      F    real-space projection
   NLSPLINE    = F    spline interpolate recip. space projectors
   LCOMPAT=      F    compatible to vasp.4.4
   GGA_COMPAT  = T    GGA compatible to vasp.4.4-vasp.4.6
   LMAXPAW     = -100 max onsite density
   LMAXMIX     =    2 max onsite mixed and CHGCAR
   VOSKOWN=      0    Vosko Wilk Nusair interpolation
   ROPT   =    0.00000
 Ionic relaxation
   EDIFFG = 0.1E-04   stopping-criterion for IOM
   NSW    =    100    number of steps for IOM
   NBLOCK =      1;   KBLOCK =    100    inner block; outer block 
   IBRION =      2    ionic relax: 0-MD 1-quasi-New 2-CG
   NFREE  =      1    steps in history (QN), initial steepest desc. (CG)
   ISIF   =      3    stress and relaxation
   IWAVPR =     11    prediction:  0-non 1-charg 2-wave 3-comb
   ISYM   =      2    0-nonsym 1-usesym 2-fastsym
   LCORR  =      T    Harris-Foulkes like correction to forces

   POTIM  = 0.5000    time-step for ionic-motion
   TEIN   =    0.0    initial temperature
   TEBEG  =    0.0;   TEEND  =   0.0 temperature during run
   SMASS  =  -3.00    Nose mass-parameter (am)
   estimated Nose-frequenzy (Omega)   =  0.10E-29 period in steps =****** mass=  -0.184E-27a.u.
   SCALEE = 1.0000    scale energy and forces
   NPACO  =    256;   APACO  = 16.0  distance and # of slots for P.C.
   PSTRESS=    0.0 pullay stress

  Mass of Ions in am
   POMASS = 192.22
  Ionic Valenz
   ZVAL   =   9.00
  Atomic Wigner-Seitz radii
   RWIGS  =  -1.00
  virtual crystal weights 
   VCA    =   1.00
   NELECT =       9.0000    total number of electrons
   NUPDOWN=      -1.0000    fix difference up-down

 DOS related values:
   EMIN   =  10.00;   EMAX   =-10.00  energy-range for DOS
   EFERMI =   0.00
   ISMEAR =     1;   SIGMA  =   0.10  broadening in eV -4-tet -1-fermi 0-gaus

 Electronic relaxation 2 (details)
   IALGO  =     48    algorithm
   LDIAG  =      T    sub-space diagonalisation (order eigenvalues)
   LSUBROT=      F    optimize rotation matrix (better conditioning)
   TURBO    =      0    0=normal 1=particle mesh
   IRESTART =      0    0=no restart 2=restart with 2 vectors
   NREBOOT  =      0    no. of reboots
   NMIN     =      0    reboot dimension
   EREF     =   0.00    reference energy to select bands
   IMIX   =      4    mixing-type and parameters
     AMIX     =   0.40;   BMIX     =  1.00
     AMIX_MAG =   1.60;   BMIX_MAG =  1.00
     AMIN     =   0.10
     WC   =   100.;   INIMIX=   1;  MIXPRE=   1;  MAXMIX= -45

 Intra band minimization:
   WEIMIN = 0.0010     energy-eigenvalue tresh-hold
   EBREAK =  0.13E-07  absolut break condition
   DEPER  =   0.30     relativ break condition  

   TIME   =   0.40     timestep for ELM

  volume/ion in A,a.u.               =      16.11       108.73
  Fermi-wavevector in a.u.,A,eV,Ry     =   1.348262  2.547846 24.732815  1.817811
  Thomas-Fermi vector in A             =   2.475945
 
 Write flags
   LWAVE  =      T    write WAVECAR
   LCHARG =      T    write CHGCAR
   LVTOT  =      F    write LOCPOT, total local potential
   LVHAR  =      F    write LOCPOT, Hartree potential only
   LELF   =      F    write electronic localiz. function (ELF)
   LORBIT =      0    0 simple, 1 ext, 2 COOP (PROOUT)


 Dipole corrections
   LMONO  =      F    monopole corrections only (constant potential shift)
   LDIPOL =      F    correct potential (dipole corrections)
   IDIPOL =      0    1-x, 2-y, 3-z, 4-all directions 
   EPSILON=  1.0000000 bulk dielectric constant

 Exchange correlation treatment:
   GGA     =    --    GGA type
   LEXCH   =     8    internal setting for exchange type
   VOSKOWN=      0    Vosko Wilk Nusair interpolation
   LHFCALC =     F    Hartree Fock is set to
   LHFONE  =     F    Hartree Fock one center treatment
   AEXX    =    0.0000 exact exchange contribution

 Linear response parameters
   LEPSILON=     F    determine dielectric tensor
   LRPA    =     F    only Hartree local field effects (RPA)
   LNABLA  =     F    use nabla operator in PAW spheres
   LVEL    =     F    velocity operator in full k-point grid
   LINTERFAST=   F  fast interpolation
   KINTER  =     0    interpolate to denser k-point grid
   CSHIFT  =0.1000    complex shift for real part using Kramers Kronig
   OMEGAMAX=  -1.0    maximum frequency
   DEG_THRESHOLD= 0.2000000E-02 threshold for treating states as degnerate
   RTIME   =    0.100 relaxation time in fs

 Orbital magnetization related:
   ORBITALMAG=     F  switch on orbital magnetization
   LCHIMAG   =     F  perturbation theory with respect to B field
   DQ        =  0.001000  dq finite difference perturbation B field



--------------------------------------------------------------------------------------------------------


 conjugate gradient relaxation of ions
 charge density and potential will be updated during run
 non-spin polarized calculation
 RMM-DIIS sequential band-by-band
 perform sub-space diagonalisation
    before iterative eigenvector-optimisation
 modified Broyden-mixing scheme, WC =      100.0
 initial mixing is a Kerker type mixing with AMIX =  0.4000 and BMIX =      1.0000
 Hartree-type preconditioning will be used
 using additional bands           15
 reciprocal scheme for non local part
 use partial core corrections
 calculate Harris-corrections to forces 
   (improved forces if not selfconsistent)
 use gradient corrections 
 use of overlap-Matrix (Vanderbilt PP)
 Methfessel and Paxton  Order N= 1 SIGMA  =   0.10


--------------------------------------------------------------------------------------------------------


  energy-cutoff  :      210.87
  volume of cell :       16.11
      direct lattice vectors                 reciprocal lattice vectors
     0.000000000  2.004647500  2.004647500    -0.249420409  0.249420409  0.249420409
     2.004647500  0.000000000  2.004647500     0.249420409 -0.249420409  0.249420409
     2.004647500  2.004647500  0.000000000     0.249420409  0.249420409 -0.249420409

  length of vectors
     2.834999682  2.834999682  2.834999682     0.432008821  0.432008821  0.432008821


 
 k-points in units of 2pi/SCALE and weight: KPOINTS file                            
   0.00000000  0.00000000  0.00000000       0.000
  -0.01247102  0.01247102  0.01247102       0.001
  -0.02494204  0.02494204  0.02494204       0.001
  -0.03741306  0.03741306  0.03741306       0.001
  -0.04988408  0.04988408  0.04988408       0.001
  -0.06235510  0.06235510  0.06235510       0.001
  -0.07482612  0.07482612  0.07482612       0.001
  -0.08729714  0.08729714  0.08729714       0.001
  -0.09976816  0.09976816  0.09976816       0.001
  -0.11223918  0.11223918  0.11223918       0.001
  -0.12471020  0.12471020  0.12471020       0.001
   0.00000000  0.00000000  0.02494204       0.001
  -0.01247102  0.01247102  0.03741306       0.003
  -0.02494204  0.02494204  0.04988408       0.003
  -0.03741306  0.03741306  0.06235510       0.003
  -0.04988408  0.04988408  0.07482612       0.003
  -0.06235510  0.06235510  0.08729714       0.003
  -0.07482612  0.07482612  0.09976816       0.003
  -0.08729714  0.08729714  0.11223918       0.003
  -0.09976816  0.09976816  0.12471020       0.003
  -0.11223918  0.11223918  0.13718123       0.003
   0.12471020 -0.12471020 -0.09976816       0.003
   0.11223918 -0.11223918 -0.08729714       0.003
   0.09976816 -0.09976816 -0.07482612       0.003
   0.08729714 -0.08729714 -0.06235510       0.003
   0.07482612 -0.07482612 -0.04988408       0.003
   0.06235510 -0.06235510 -0.03741306       0.003
   0.04988408 -0.04988408 -0.02494204       0.003
   0.03741306 -0.03741306 -0.01247102       0.003
   0.02494204 -0.02494204  0.00000000       0.002
   0.00000000  0.00000000  0.04988408       0.001
  -0.01247102  0.01247102  0.06235510       0.003
  -0.02494204  0.02494204  0.07482612       0.003
  -0.03741306  0.03741306  0.08729714       0.003
  -0.04988408  0.04988408  0.09976816       0.003
  -0.06235510  0.06235510  0.11223918       0.003
  -0.07482612  0.07482612  0.12471020       0.003
  -0.08729714  0.08729714  0.13718123       0.003
  -0.09976816  0.09976816  0.14965225       0.003
   0.13718123 -0.13718123 -0.08729714       0.003
   0.12471020 -0.12471020 -0.07482612       0.003
   0.11223918 -0.11223918 -0.06235510       0.003
   0.09976816 -0.09976816 -0.04988408       0.003
   0.08729714 -0.08729714 -0.03741306       0.003
   0.07482612 -0.07482612 -0.02494204       0.003
   0.06235510 -0.06235510 -0.01247102       0.003
   0.04988408 -0.04988408 -0.00000000       0.002
   0.00000000  0.00000000  0.07482612       0.001
  -0.01247102  0.01247102  0.08729714       0.003
  -0.02494204  0.02494204  0.09976816       0.003
  -0.03741306  0.03741306  0.11223918       0.003
  -0.04988408  0.04988408  0.12471020       0.003
  -0.06235510  0.06235510  0.13718123       0.003
  -0.07482612  0.07482612  0.14965225       0.003
  -0.08729714  0.08729714  0.16212327       0.003
   0.14965225 -0.14965225 -0.07482612       0.003
   0.13718123 -0.13718123 -0.06235510       0.003
   0.12471020 -0.12471020 -0.04988408       0.003
   0.11223918 -0.11223918 -0.03741306       0.003
   0.09976816 -0.09976816 -0.02494204       0.003
   0.08729714 -0.08729714 -0.01247102       0.003
   0.07482612 -0.07482612  0.00000000       0.002
   0.00000000  0.00000000  0.09976816       0.001
  -0.01247102  0.01247102  0.11223918       0.003
  -0.02494204  0.02494204  0.12471020       0.003
  -0.03741306  0.03741306  0.13718123       0.003
  -0.04988408  0.04988408  0.14965225       0.003
  -0.06235510  0.06235510  0.16212327       0.003
  -0.07482612  0.07482612  0.17459429       0.003
   0.16212327 -0.16212327 -0.06235510       0.003
   0.14965225 -0.14965225 -0.04988408       0.003
   0.13718123 -0.13718123 -0.03741306       0.003
   0.12471020 -0.12471020 -0.02494204       0.003
   0.11223918 -0.11223918 -0.01247102       0.003
   0.09976816 -0.09976816  0.00000000       0.002
   0.00000000  0.00000000  0.12471020       0.001
  -0.01247102  0.01247102  0.13718123       0.003
  -0.02494204  0.02494204  0.14965225       0.003
  -0.03741306  0.03741306  0.16212327       0.003
  -0.04988408  0.04988408  0.17459429       0.003
  -0.06235510  0.06235510  0.18706531       0.003
   0.17459429 -0.17459429 -0.04988408       0.003
   0.16212327 -0.16212327 -0.03741306       0.003
   0.14965225 -0.14965225 -0.02494204       0.003
   0.13718123 -0.13718123 -0.01247102       0.003
   0.12471020 -0.12471020  0.00000000       0.002
   0.00000000  0.00000000  0.14965225       0.001
  -0.01247102  0.01247102  0.16212327       0.003
  -0.02494204  0.02494204  0.17459429       0.003
  -0.03741306  0.03741306  0.18706531       0.003
  -0.04988408  0.04988408  0.19953633       0.003
   0.18706531 -0.18706531 -0.03741306       0.003
   0.17459429 -0.17459429 -0.02494204       0.003
   0.16212327 -0.16212327 -0.01247102       0.003
   0.14965225 -0.14965225  0.00000000       0.002
   0.00000000  0.00000000  0.17459429       0.001
  -0.01247102  0.01247102  0.18706531       0.003
  -0.02494204  0.02494204  0.19953633       0.003
  -0.03741306  0.03741306  0.21200735       0.003
   0.19953633 -0.19953633 -0.02494204       0.003
   0.18706531 -0.18706531 -0.01247102       0.003
   0.17459429 -0.17459429  0.00000000       0.002
   0.00000000  0.00000000  0.19953633       0.001
  -0.01247102  0.01247102  0.21200735       0.003
  -0.02494204  0.02494204  0.22447837       0.003
   0.21200735 -0.21200735 -0.01247102       0.003
   0.19953633 -0.19953633  0.00000000       0.002
   0.00000000  0.00000000  0.22447837       0.001
  -0.01247102  0.01247102  0.23694939       0.003
   0.22447837 -0.22447837  0.00000000       0.002
   0.00000000  0.00000000  0.24942041       0.000
  -0.00000000  0.02494204  0.04988408       0.003
  -0.01247102  0.03741306  0.06235510       0.006
  -0.02494204  0.04988408  0.07482612       0.006
  -0.03741306  0.06235510  0.08729714       0.006
  -0.04988408  0.07482612  0.09976816       0.006
  -0.06235510  0.08729714  0.11223918       0.006
  -0.07482612  0.09976816  0.12471020       0.006
  -0.08729714  0.11223918  0.13718123       0.006
   0.14965225 -0.12471020 -0.09976816       0.003
   0.00000000  0.02494204  0.07482612       0.003
  -0.01247102  0.03741306  0.08729714       0.006
  -0.02494204  0.04988408  0.09976816       0.006
  -0.03741306  0.06235510  0.11223918       0.006
  -0.04988408  0.07482612  0.12471020       0.006
  -0.06235510  0.08729714  0.13718123       0.006
  -0.07482612  0.09976816  0.14965225       0.006
   0.16212327 -0.13718123 -0.08729714       0.006
   0.14965225 -0.12471020 -0.07482612       0.006
   0.13718123 -0.11223918 -0.06235510       0.006
   0.12471020 -0.09976816 -0.04988408       0.006
   0.11223918 -0.08729714 -0.03741306       0.006
   0.09976816 -0.07482612 -0.02494204       0.006
   0.08729714 -0.06235510 -0.01247102       0.006
   0.07482612 -0.04988408  0.00000000       0.003
   0.00000000  0.02494204  0.09976816       0.003
  -0.01247102  0.03741306  0.11223918       0.006
  -0.02494204  0.04988408  0.12471020       0.006
  -0.03741306  0.06235510  0.13718123       0.006
  -0.04988408  0.07482612  0.14965225       0.006
  -0.06235510  0.08729714  0.16212327       0.006
   0.17459429 -0.14965225 -0.07482612       0.006
   0.16212327 -0.13718123 -0.06235510       0.006
   0.14965225 -0.12471020 -0.04988408       0.006
   0.13718123 -0.11223918 -0.03741306       0.006
   0.12471020 -0.09976816 -0.02494204       0.006
   0.11223918 -0.08729714 -0.01247102       0.006
   0.09976816 -0.07482612 -0.00000000       0.003
  -0.00000000  0.02494204  0.12471020       0.003
  -0.01247102  0.03741306  0.13718123       0.006
  -0.02494204  0.04988408  0.14965225       0.006
  -0.03741306  0.06235510  0.16212327       0.006
  -0.04988408  0.07482612  0.17459429       0.006
   0.18706531 -0.16212327 -0.06235510       0.006
   0.17459429 -0.14965225 -0.04988408       0.006
   0.16212327 -0.13718123 -0.03741306       0.006
   0.14965225 -0.12471020 -0.02494204       0.006
   0.13718123 -0.11223918 -0.01247102       0.006
   0.12471020 -0.09976816 -0.00000000       0.003
   0.00000000  0.02494204  0.14965225       0.003
  -0.01247102  0.03741306  0.16212327       0.006
  -0.02494204  0.04988408  0.17459429       0.006
  -0.03741306  0.06235510  0.18706531       0.006
   0.19953633 -0.17459429 -0.04988408       0.006
   0.18706531 -0.16212327 -0.03741306       0.006
   0.17459429 -0.14965225 -0.02494204       0.006
   0.16212327 -0.13718123 -0.01247102       0.006
   0.14965225 -0.12471020  0.00000000       0.003
   0.00000000  0.02494204  0.17459429       0.003
  -0.01247102  0.03741306  0.18706531       0.006
  -0.02494204  0.04988408  0.19953633       0.006
   0.21200735 -0.18706531 -0.03741306       0.006
   0.19953633 -0.17459429 -0.02494204       0.006
   0.18706531 -0.16212327 -0.01247102       0.006
   0.17459429 -0.14965225 -0.00000000       0.003
   0.00000000  0.02494204  0.19953633       0.003
  -0.01247102  0.03741306  0.21200735       0.006
   0.22447837 -0.19953633 -0.02494204       0.006
   0.21200735 -0.18706531 -0.01247102       0.006
   0.19953633 -0.17459429  0.00000000       0.003
   0.00000000  0.02494204  0.22447837       0.003
   0.23694939 -0.21200735 -0.01247102       0.006
   0.22447837 -0.19953633 -0.00000000       0.003
   0.24942041 -0.22447837 -0.00000000       0.002
  -0.00000000  0.04988408  0.09976816       0.003
  -0.01247102  0.06235510  0.11223918       0.006
  -0.02494204  0.07482612  0.12471020       0.006
  -0.03741306  0.08729714  0.13718123       0.006
  -0.04988408  0.09976816  0.14965225       0.006
   0.18706531 -0.13718123 -0.08729714       0.006
   0.17459429 -0.12471020 -0.07482612       0.003
  -0.00000000  0.04988408  0.12471020       0.003
  -0.01247102  0.06235510  0.13718123       0.006
  -0.02494204  0.07482612  0.14965225       0.006
  -0.03741306  0.08729714  0.16212327       0.006
   0.19953633 -0.14965225 -0.07482612       0.006
   0.18706531 -0.13718123 -0.06235510       0.006
   0.17459429 -0.12471020 -0.04988408       0.006
   0.16212327 -0.11223918 -0.03741306       0.006
   0.14965225 -0.09976816 -0.02494204       0.006
   0.13718123 -0.08729714 -0.01247102       0.006
   0.12471020 -0.07482612 -0.00000000       0.003
  -0.00000000  0.04988408  0.14965225       0.003
  -0.01247102  0.06235510  0.16212327       0.006
  -0.02494204  0.07482612  0.17459429       0.006
   0.21200735 -0.16212327 -0.06235510       0.006
   0.19953633 -0.14965225 -0.04988408       0.006
   0.18706531 -0.13718123 -0.03741306       0.006
   0.17459429 -0.12471020 -0.02494204       0.006
   0.16212327 -0.11223918 -0.01247102       0.006
   0.14965225 -0.09976816  0.00000000       0.003
  -0.00000000  0.04988408  0.17459429       0.003
  -0.01247102  0.06235510  0.18706531       0.006
   0.22447837 -0.17459429 -0.04988408       0.006
   0.21200735 -0.16212327 -0.03741306       0.006
   0.19953633 -0.14965225 -0.02494204       0.006
   0.18706531 -0.13718123 -0.01247102       0.006
   0.17459429 -0.12471020  0.00000000       0.003
   0.00000000  0.04988408  0.19953633       0.003
   0.23694939 -0.18706531 -0.03741306       0.006
   0.22447837 -0.17459429 -0.02494204       0.006
   0.21200735 -0.16212327 -0.01247102       0.006
   0.19953633 -0.14965225  0.00000000       0.003
   0.24942041 -0.19953633 -0.02494204       0.003
   0.23694939 -0.18706531 -0.01247102       0.006
   0.22447837 -0.17459429  0.00000000       0.003
   0.24942041 -0.19953633 -0.00000000       0.002
   0.00000000  0.07482612  0.14965225       0.003
  -0.01247102  0.08729714  0.16212327       0.006
   0.22447837 -0.14965225 -0.07482612       0.006
   0.21200735 -0.13718123 -0.06235510       0.006
   0.19953633 -0.12471020 -0.04988408       0.003
   0.00000000  0.07482612  0.17459429       0.003
   0.23694939 -0.16212327 -0.06235510       0.006
   0.22447837 -0.14965225 -0.04988408       0.006
   0.21200735 -0.13718123 -0.03741306       0.006
   0.19953633 -0.12471020 -0.02494204       0.006
   0.18706531 -0.11223918 -0.01247102       0.006
   0.17459429 -0.09976816 -0.00000000       0.003
   0.24942041 -0.17459429 -0.04988408       0.003
   0.23694939 -0.16212327 -0.03741306       0.006
   0.22447837 -0.14965225 -0.02494204       0.006
   0.21200735 -0.13718123 -0.01247102       0.006
   0.19953633 -0.12471020  0.00000000       0.003
   0.24942041 -0.17459429 -0.02494204       0.003
   0.23694939 -0.16212327 -0.01247102       0.006
   0.22447837 -0.14965225 -0.00000000       0.003
   0.24942041 -0.17459429 -0.00000000       0.002
   0.24942041 -0.14965225 -0.04988408       0.003
   0.23694939 -0.13718123 -0.03741306       0.006
   0.22447837 -0.12471020 -0.02494204       0.003
   0.24942041 -0.14965225 -0.02494204       0.003
   0.23694939 -0.13718123 -0.01247102       0.006
   0.22447837 -0.12471020  0.00000000       0.003
   0.24942041 -0.14965225 -0.00000000       0.002
   0.24942041 -0.12471020  0.00000000       0.001
 
 k-points in reciprocal lattice and weights: KPOINTS file                            
   0.00000000  0.00000000  0.00000000       0.000
   0.05000000  0.00000000  0.00000000       0.001
   0.10000000  0.00000000  0.00000000       0.001
   0.15000000  0.00000000  0.00000000       0.001
   0.20000000  0.00000000  0.00000000       0.001
   0.25000000  0.00000000  0.00000000       0.001
   0.30000000  0.00000000  0.00000000       0.001
   0.35000000  0.00000000  0.00000000       0.001
   0.40000000  0.00000000  0.00000000       0.001
   0.45000000  0.00000000  0.00000000       0.001
   0.50000000  0.00000000  0.00000000       0.001
   0.05000000  0.05000000  0.00000000       0.001
   0.10000000  0.05000000  0.00000000       0.003
   0.15000000  0.05000000  0.00000000       0.003
   0.20000000  0.05000000  0.00000000       0.003
   0.25000000  0.05000000  0.00000000       0.003
   0.30000000  0.05000000  0.00000000       0.003
   0.35000000  0.05000000  0.00000000       0.003
   0.40000000  0.05000000  0.00000000       0.003
   0.45000000  0.05000000  0.00000000       0.003
   0.50000000  0.05000000  0.00000000       0.003
  -0.45000000  0.05000000  0.00000000       0.003
  -0.40000000  0.05000000  0.00000000       0.003
  -0.35000000  0.05000000  0.00000000       0.003
  -0.30000000  0.05000000  0.00000000       0.003
  -0.25000000  0.05000000  0.00000000       0.003
  -0.20000000  0.05000000  0.00000000       0.003
  -0.15000000  0.05000000  0.00000000       0.003
  -0.10000000  0.05000000  0.00000000       0.003
  -0.05000000  0.05000000  0.00000000       0.002
   0.10000000  0.10000000  0.00000000       0.001
   0.15000000  0.10000000  0.00000000       0.003
   0.20000000  0.10000000  0.00000000       0.003
   0.25000000  0.10000000  0.00000000       0.003
   0.30000000  0.10000000  0.00000000       0.003
   0.35000000  0.10000000  0.00000000       0.003
   0.40000000  0.10000000  0.00000000       0.003
   0.45000000  0.10000000  0.00000000       0.003
   0.50000000  0.10000000  0.00000000       0.003
  -0.45000000  0.10000000  0.00000000       0.003
  -0.40000000  0.10000000  0.00000000       0.003
  -0.35000000  0.10000000  0.00000000       0.003
  -0.30000000  0.10000000  0.00000000       0.003
  -0.25000000  0.10000000  0.00000000       0.003
  -0.20000000  0.10000000  0.00000000       0.003
  -0.15000000  0.10000000  0.00000000       0.003
  -0.10000000  0.10000000  0.00000000       0.002
   0.15000000  0.15000000  0.00000000       0.001
   0.20000000  0.15000000  0.00000000       0.003
   0.25000000  0.15000000  0.00000000       0.003
   0.30000000  0.15000000  0.00000000       0.003
   0.35000000  0.15000000  0.00000000       0.003
   0.40000000  0.15000000  0.00000000       0.003
   0.45000000  0.15000000  0.00000000       0.003
   0.50000000  0.15000000  0.00000000       0.003
  -0.45000000  0.15000000  0.00000000       0.003
  -0.40000000  0.15000000  0.00000000       0.003
  -0.35000000  0.15000000  0.00000000       0.003
  -0.30000000  0.15000000  0.00000000       0.003
  -0.25000000  0.15000000  0.00000000       0.003
  -0.20000000  0.15000000  0.00000000       0.003
  -0.15000000  0.15000000  0.00000000       0.002
   0.20000000  0.20000000  0.00000000       0.001
   0.25000000  0.20000000  0.00000000       0.003
   0.30000000  0.20000000  0.00000000       0.003
   0.35000000  0.20000000  0.00000000       0.003
   0.40000000  0.20000000  0.00000000       0.003
   0.45000000  0.20000000  0.00000000       0.003
   0.50000000  0.20000000  0.00000000       0.003
  -0.45000000  0.20000000  0.00000000       0.003
  -0.40000000  0.20000000  0.00000000       0.003
  -0.35000000  0.20000000  0.00000000       0.003
  -0.30000000  0.20000000  0.00000000       0.003
  -0.25000000  0.20000000  0.00000000       0.003
  -0.20000000  0.20000000  0.00000000       0.002
   0.25000000  0.25000000  0.00000000       0.001
   0.30000000  0.25000000  0.00000000       0.003
   0.35000000  0.25000000  0.00000000       0.003
   0.40000000  0.25000000  0.00000000       0.003
   0.45000000  0.25000000  0.00000000       0.003
   0.50000000  0.25000000  0.00000000       0.003
  -0.45000000  0.25000000  0.00000000       0.003
  -0.40000000  0.25000000  0.00000000       0.003
  -0.35000000  0.25000000  0.00000000       0.003
  -0.30000000  0.25000000  0.00000000       0.003
  -0.25000000  0.25000000  0.00000000       0.002
   0.30000000  0.30000000  0.00000000       0.001
   0.35000000  0.30000000  0.00000000       0.003
   0.40000000  0.30000000  0.00000000       0.003
   0.45000000  0.30000000  0.00000000       0.003
   0.50000000  0.30000000  0.00000000       0.003
  -0.45000000  0.30000000  0.00000000       0.003
  -0.40000000  0.30000000  0.00000000       0.003
  -0.35000000  0.30000000  0.00000000       0.003
  -0.30000000  0.30000000  0.00000000       0.002
   0.35000000  0.35000000  0.00000000       0.001
   0.40000000  0.35000000  0.00000000       0.003
   0.45000000  0.35000000  0.00000000       0.003
   0.50000000  0.35000000  0.00000000       0.003
  -0.45000000  0.35000000  0.00000000       0.003
  -0.40000000  0.35000000  0.00000000       0.003
  -0.35000000  0.35000000  0.00000000       0.002
   0.40000000  0.40000000  0.00000000       0.001
   0.45000000  0.40000000  0.00000000       0.003
   0.50000000  0.40000000  0.00000000       0.003
  -0.45000000  0.40000000  0.00000000       0.003
  -0.40000000  0.40000000  0.00000000       0.002
   0.45000000  0.45000000  0.00000000       0.001
   0.50000000  0.45000000  0.00000000       0.003
  -0.45000000  0.45000000  0.00000000       0.002
   0.50000000  0.50000000  0.00000000       0.000
   0.15000000  0.10000000  0.05000000       0.003
   0.20000000  0.10000000  0.05000000       0.006
   0.25000000  0.10000000  0.05000000       0.006
   0.30000000  0.10000000  0.05000000       0.006
   0.35000000  0.10000000  0.05000000       0.006
   0.40000000  0.10000000  0.05000000       0.006
   0.45000000  0.10000000  0.05000000       0.006
   0.50000000  0.10000000  0.05000000       0.006
  -0.45000000  0.10000000  0.05000000       0.003
   0.20000000  0.15000000  0.05000000       0.003
   0.25000000  0.15000000  0.05000000       0.006
   0.30000000  0.15000000  0.05000000       0.006
   0.35000000  0.15000000  0.05000000       0.006
   0.40000000  0.15000000  0.05000000       0.006
   0.45000000  0.15000000  0.05000000       0.006
   0.50000000  0.15000000  0.05000000       0.006
  -0.45000000  0.15000000  0.05000000       0.006
  -0.40000000  0.15000000  0.05000000       0.006
  -0.35000000  0.15000000  0.05000000       0.006
  -0.30000000  0.15000000  0.05000000       0.006
  -0.25000000  0.15000000  0.05000000       0.006
  -0.20000000  0.15000000  0.05000000       0.006
  -0.15000000  0.15000000  0.05000000       0.006
  -0.10000000  0.15000000  0.05000000       0.003
   0.25000000  0.20000000  0.05000000       0.003
   0.30000000  0.20000000  0.05000000       0.006
   0.35000000  0.20000000  0.05000000       0.006
   0.40000000  0.20000000  0.05000000       0.006
   0.45000000  0.20000000  0.05000000       0.006
   0.50000000  0.20000000  0.05000000       0.006
  -0.45000000  0.20000000  0.05000000       0.006
  -0.40000000  0.20000000  0.05000000       0.006
  -0.35000000  0.20000000  0.05000000       0.006
  -0.30000000  0.20000000  0.05000000       0.006
  -0.25000000  0.20000000  0.05000000       0.006
  -0.20000000  0.20000000  0.05000000       0.006
  -0.15000000  0.20000000  0.05000000       0.003
   0.30000000  0.25000000  0.05000000       0.003
   0.35000000  0.25000000  0.05000000       0.006
   0.40000000  0.25000000  0.05000000       0.006
   0.45000000  0.25000000  0.05000000       0.006
   0.50000000  0.25000000  0.05000000       0.006
  -0.45000000  0.25000000  0.05000000       0.006
  -0.40000000  0.25000000  0.05000000       0.006
  -0.35000000  0.25000000  0.05000000       0.006
  -0.30000000  0.25000000  0.05000000       0.006
  -0.25000000  0.25000000  0.05000000       0.006
  -0.20000000  0.25000000  0.05000000       0.003
   0.35000000  0.30000000  0.05000000       0.003
   0.40000000  0.30000000  0.05000000       0.006
   0.45000000  0.30000000  0.05000000       0.006
   0.50000000  0.30000000  0.05000000       0.006
  -0.45000000  0.30000000  0.05000000       0.006
  -0.40000000  0.30000000  0.05000000       0.006
  -0.35000000  0.30000000  0.05000000       0.006
  -0.30000000  0.30000000  0.05000000       0.006
  -0.25000000  0.30000000  0.05000000       0.003
   0.40000000  0.35000000  0.05000000       0.003
   0.45000000  0.35000000  0.05000000       0.006
   0.50000000  0.35000000  0.05000000       0.006
  -0.45000000  0.35000000  0.05000000       0.006
  -0.40000000  0.35000000  0.05000000       0.006
  -0.35000000  0.35000000  0.05000000       0.006
  -0.30000000  0.35000000  0.05000000       0.003
   0.45000000  0.40000000  0.05000000       0.003
   0.50000000  0.40000000  0.05000000       0.006
  -0.45000000  0.40000000  0.05000000       0.006
  -0.40000000  0.40000000  0.05000000       0.006
  -0.35000000  0.40000000  0.05000000       0.003
   0.50000000  0.45000000  0.05000000       0.003
  -0.45000000  0.45000000  0.05000000       0.006
  -0.40000000  0.45000000  0.05000000       0.003
  -0.45000000  0.50000000  0.05000000       0.002
   0.30000000  0.20000000  0.10000000       0.003
   0.35000000  0.20000000  0.10000000       0.006
   0.40000000  0.20000000  0.10000000       0.006
   0.45000000  0.20000000  0.10000000       0.006
   0.50000000  0.20000000  0.10000000       0.006
  -0.45000000  0.20000000  0.10000000       0.006
  -0.40000000  0.20000000  0.10000000       0.003
   0.35000000  0.25000000  0.10000000       0.003
   0.40000000  0.25000000  0.10000000       0.006
   0.45000000  0.25000000  0.10000000       0.006
   0.50000000  0.25000000  0.10000000       0.006
  -0.45000000  0.25000000  0.10000000       0.006
  -0.40000000  0.25000000  0.10000000       0.006
  -0.35000000  0.25000000  0.10000000       0.006
  -0.30000000  0.25000000  0.10000000       0.006
  -0.25000000  0.25000000  0.10000000       0.006
  -0.20000000  0.25000000  0.10000000       0.006
  -0.15000000  0.25000000  0.10000000       0.003
   0.40000000  0.30000000  0.10000000       0.003
   0.45000000  0.30000000  0.10000000       0.006
   0.50000000  0.30000000  0.10000000       0.006
  -0.45000000  0.30000000  0.10000000       0.006
  -0.40000000  0.30000000  0.10000000       0.006
  -0.35000000  0.30000000  0.10000000       0.006
  -0.30000000  0.30000000  0.10000000       0.006
  -0.25000000  0.30000000  0.10000000       0.006
  -0.20000000  0.30000000  0.10000000       0.003
   0.45000000  0.35000000  0.10000000       0.003
   0.50000000  0.35000000  0.10000000       0.006
  -0.45000000  0.35000000  0.10000000       0.006
  -0.40000000  0.35000000  0.10000000       0.006
  -0.35000000  0.35000000  0.10000000       0.006
  -0.30000000  0.35000000  0.10000000       0.006
  -0.25000000  0.35000000  0.10000000       0.003
   0.50000000  0.40000000  0.10000000       0.003
  -0.45000000  0.40000000  0.10000000       0.006
  -0.40000000  0.40000000  0.10000000       0.006
  -0.35000000  0.40000000  0.10000000       0.006
  -0.30000000  0.40000000  0.10000000       0.003
  -0.45000000  0.45000000  0.10000000       0.003
  -0.40000000  0.45000000  0.10000000       0.006
  -0.35000000  0.45000000  0.10000000       0.003
  -0.40000000  0.50000000  0.10000000       0.002
   0.45000000  0.30000000  0.15000000       0.003
   0.50000000  0.30000000  0.15000000       0.006
  -0.45000000  0.30000000  0.15000000       0.006
  -0.40000000  0.30000000  0.15000000       0.006
  -0.35000000  0.30000000  0.15000000       0.003
   0.50000000  0.35000000  0.15000000       0.003
  -0.45000000  0.35000000  0.15000000       0.006
  -0.40000000  0.35000000  0.15000000       0.006
  -0.35000000  0.35000000  0.15000000       0.006
  -0.30000000  0.35000000  0.15000000       0.006
  -0.25000000  0.35000000  0.15000000       0.006
  -0.20000000  0.35000000  0.15000000       0.003
  -0.45000000  0.40000000  0.15000000       0.003
  -0.40000000  0.40000000  0.15000000       0.006
  -0.35000000  0.40000000  0.15000000       0.006
  -0.30000000  0.40000000  0.15000000       0.006
  -0.25000000  0.40000000  0.15000000       0.003
  -0.40000000  0.45000000  0.15000000       0.003
  -0.35000000  0.45000000  0.15000000       0.006
  -0.30000000  0.45000000  0.15000000       0.003
  -0.35000000  0.50000000  0.15000000       0.002
  -0.40000000  0.40000000  0.20000000       0.003
  -0.35000000  0.40000000  0.20000000       0.006
  -0.30000000  0.40000000  0.20000000       0.003
  -0.35000000  0.45000000  0.20000000       0.003
  -0.30000000  0.45000000  0.20000000       0.006
  -0.25000000  0.45000000  0.20000000       0.003
  -0.30000000  0.50000000  0.20000000       0.002
  -0.25000000  0.50000000  0.25000000       0.001
 
 position of ions in fractional coordinates (direct lattice) 
   0.00000000  0.00000000  0.00000000
 
 position of ions in cartesian coordinates  (Angst):
   0.00000000  0.00000000  0.00000000
 


--------------------------------------------------------------------------------------------------------


 k-point  1 :   0.0000 0.0000 0.0000  plane waves:     113
 k-point  2 :   0.0500 0.0000 0.0000  plane waves:     113
 k-point  3 :   0.1000 0.0000 0.0000  plane waves:     116
 k-point  4 :   0.1500 0.0000 0.0000  plane waves:     116
 k-point  5 :   0.2000 0.0000 0.0000  plane waves:     122
 k-point  6 :   0.2500 0.0000 0.0000  plane waves:     113
 k-point  7 :   0.3000 0.0000 0.0000  plane waves:     114
 k-point  8 :   0.3500 0.0000 0.0000  plane waves:     114
 k-point  9 :   0.4000 0.0000 0.0000  plane waves:     114
 k-point 10 :   0.4500 0.0000 0.0000  plane waves:     114
 k-point 11 :   0.5000 0.0000 0.0000  plane waves:     108
 k-point 12 :   0.0500 0.0500 0.0000  plane waves:     113
 k-point 13 :   0.1000 0.0500 0.0000  plane waves:     114
 k-point 14 :   0.1500 0.0500 0.0000  plane waves:     118
 k-point 15 :   0.2000 0.0500 0.0000  plane waves:     118
 k-point 16 :   0.2500 0.0500 0.0000  plane waves:     112
 k-point 17 :   0.3000 0.0500 0.0000  plane waves:     112
 k-point 18 :   0.3500 0.0500 0.0000  plane waves:     113
 k-point 19 :   0.4000 0.0500 0.0000  plane waves:     112
 k-point 20 :   0.4500 0.0500 0.0000  plane waves:     112
 k-point 21 :   0.5000 0.0500 0.0000  plane waves:     114
 k-point 22 :  -0.4500 0.0500 0.0000  plane waves:     112
 k-point 23 :  -0.4000 0.0500 0.0000  plane waves:     112
 k-point 24 :  -0.3500 0.0500 0.0000  plane waves:     113
 k-point 25 :  -0.3000 0.0500 0.0000  plane waves:     113
 k-point 26 :  -0.2500 0.0500 0.0000  plane waves:     112
 k-point 27 :  -0.2000 0.0500 0.0000  plane waves:     114
 k-point 28 :  -0.1500 0.0500 0.0000  plane waves:     118
 k-point 29 :  -0.1000 0.0500 0.0000  plane waves:     118
 k-point 30 :  -0.0500 0.0500 0.0000  plane waves:     113
 k-point 31 :   0.1000 0.1000 0.0000  plane waves:     117
 k-point 32 :   0.1500 0.1000 0.0000  plane waves:     119
 k-point 33 :   0.2000 0.1000 0.0000  plane waves:     119
 k-point 34 :   0.2500 0.1000 0.0000  plane waves:     116
 k-point 35 :   0.3000 0.1000 0.0000  plane waves:     112
 k-point 36 :   0.3500 0.1000 0.0000  plane waves:     109
 k-point 37 :   0.4000 0.1000 0.0000  plane waves:     111
 k-point 38 :   0.4500 0.1000 0.0000  plane waves:     112
 k-point 39 :   0.5000 0.1000 0.0000  plane waves:     114
 k-point 40 :  -0.4500 0.1000 0.0000  plane waves:     112
 k-point 41 :  -0.4000 0.1000 0.0000  plane waves:     111
 k-point 42 :  -0.3500 0.1000 0.0000  plane waves:     111
 k-point 43 :  -0.3000 0.1000 0.0000  plane waves:     111
 k-point 44 :  -0.2500 0.1000 0.0000  plane waves:     111
 k-point 45 :  -0.2000 0.1000 0.0000  plane waves:     112
 k-point 46 :  -0.1500 0.1000 0.0000  plane waves:     117
 k-point 47 :  -0.1000 0.1000 0.0000  plane waves:     119
 k-point 48 :   0.1500 0.1500 0.0000  plane waves:     117
 k-point 49 :   0.2000 0.1500 0.0000  plane waves:     117
 k-point 50 :   0.2500 0.1500 0.0000  plane waves:     115
 k-point 51 :   0.3000 0.1500 0.0000  plane waves:     112
 k-point 52 :   0.3500 0.1500 0.0000  plane waves:     112
 k-point 53 :   0.4000 0.1500 0.0000  plane waves:     112
 k-point 54 :   0.4500 0.1500 0.0000  plane waves:     112
 k-point 55 :   0.5000 0.1500 0.0000  plane waves:     113
 k-point 56 :  -0.4500 0.1500 0.0000  plane waves:     114
 k-point 57 :  -0.4000 0.1500 0.0000  plane waves:     108
 k-point 58 :  -0.3500 0.1500 0.0000  plane waves:     110
 k-point 59 :  -0.3000 0.1500 0.0000  plane waves:     114
 k-point 60 :  -0.2500 0.1500 0.0000  plane waves:     112
 k-point 61 :  -0.2000 0.1500 0.0000  plane waves:     111
 k-point 62 :  -0.1500 0.1500 0.0000  plane waves:     111
 k-point 63 :   0.2000 0.2000 0.0000  plane waves:     113
 k-point 64 :   0.2500 0.2000 0.0000  plane waves:     118
 k-point 65 :   0.3000 0.2000 0.0000  plane waves:     114
 k-point 66 :   0.3500 0.2000 0.0000  plane waves:     116
 k-point 67 :   0.4000 0.2000 0.0000  plane waves:     113
 k-point 68 :   0.4500 0.2000 0.0000  plane waves:     113
 k-point 69 :   0.5000 0.2000 0.0000  plane waves:     111
 k-point 70 :  -0.4500 0.2000 0.0000  plane waves:     112
 k-point 71 :  -0.4000 0.2000 0.0000  plane waves:     109
 k-point 72 :  -0.3500 0.2000 0.0000  plane waves:     109
 k-point 73 :  -0.3000 0.2000 0.0000  plane waves:     113
 k-point 74 :  -0.2500 0.2000 0.0000  plane waves:     113
 k-point 75 :  -0.2000 0.2000 0.0000  plane waves:     117
 k-point 76 :   0.2500 0.2500 0.0000  plane waves:     125
 k-point 77 :   0.3000 0.2500 0.0000  plane waves:     117
 k-point 78 :   0.3500 0.2500 0.0000  plane waves:     115
 k-point 79 :   0.4000 0.2500 0.0000  plane waves:     115
 k-point 80 :   0.4500 0.2500 0.0000  plane waves:     111
 k-point 81 :   0.5000 0.2500 0.0000  plane waves:     110
 k-point 82 :  -0.4500 0.2500 0.0000  plane waves:     110
 k-point 83 :  -0.4000 0.2500 0.0000  plane waves:     112
 k-point 84 :  -0.3500 0.2500 0.0000  plane waves:     109
 k-point 85 :  -0.3000 0.2500 0.0000  plane waves:     111
 k-point 86 :  -0.2500 0.2500 0.0000  plane waves:     117
 k-point 87 :   0.3000 0.3000 0.0000  plane waves:     113
 k-point 88 :   0.3500 0.3000 0.0000  plane waves:     113
 k-point 89 :   0.4000 0.3000 0.0000  plane waves:     114
 k-point 90 :   0.4500 0.3000 0.0000  plane waves:     112
 k-point 91 :   0.5000 0.3000 0.0000  plane waves:     110
 k-point 92 :  -0.4500 0.3000 0.0000  plane waves:     110
 k-point 93 :  -0.4000 0.3000 0.0000  plane waves:     108
 k-point 94 :  -0.3500 0.3000 0.0000  plane waves:     110
 k-point 95 :  -0.3000 0.3000 0.0000  plane waves:     111
 k-point 96 :   0.3500 0.3500 0.0000  plane waves:     113
 k-point 97 :   0.4000 0.3500 0.0000  plane waves:     113
 k-point 98 :   0.4500 0.3500 0.0000  plane waves:     111
 k-point 99 :   0.5000 0.3500 0.0000  plane waves:     108
 k-point ** :  -0.4500 0.3500 0.0000  plane waves:     110
 k-point ** :  -0.4000 0.3500 0.0000  plane waves:     110
 k-point ** :  -0.3500 0.3500 0.0000  plane waves:     110
 k-point ** :   0.4000 0.4000 0.0000  plane waves:     112
 k-point ** :   0.4500 0.4000 0.0000  plane waves:     113
 k-point ** :   0.5000 0.4000 0.0000  plane waves:     114
 k-point ** :  -0.4500 0.4000 0.0000  plane waves:     110
 k-point ** :  -0.4000 0.4000 0.0000  plane waves:     110
 k-point ** :   0.4500 0.4500 0.0000  plane waves:     116
 k-point ** :   0.5000 0.4500 0.0000  plane waves:     115
 k-point ** :  -0.4500 0.4500 0.0000  plane waves:     114
 k-point ** :   0.5000 0.5000 0.0000  plane waves:     116
 k-point ** :   0.1500 0.1000 0.0500  plane waves:     117
 k-point ** :   0.2000 0.1000 0.0500  plane waves:     118
 k-point ** :   0.2500 0.1000 0.0500  plane waves:     116
 k-point ** :   0.3000 0.1000 0.0500  plane waves:     112
 k-point ** :   0.3500 0.1000 0.0500  plane waves:     111
 k-point ** :   0.4000 0.1000 0.0500  plane waves:     111
 k-point ** :   0.4500 0.1000 0.0500  plane waves:     112
 k-point ** :   0.5000 0.1000 0.0500  plane waves:     113
 k-point ** :  -0.4500 0.1000 0.0500  plane waves:     114
 k-point ** :   0.2000 0.1500 0.0500  plane waves:     120
 k-point ** :   0.2500 0.1500 0.0500  plane waves:     116
 k-point ** :   0.3000 0.1500 0.0500  plane waves:     111
 k-point ** :   0.3500 0.1500 0.0500  plane waves:     112
 k-point ** :   0.4000 0.1500 0.0500  plane waves:     111
 k-point ** :   0.4500 0.1500 0.0500  plane waves:     113
 k-point ** :   0.5000 0.1500 0.0500  plane waves:     110
 k-point ** :  -0.4500 0.1500 0.0500  plane waves:     112
 k-point ** :  -0.4000 0.1500 0.0500  plane waves:     113
 k-point ** :  -0.3500 0.1500 0.0500  plane waves:     112
 k-point ** :  -0.3000 0.1500 0.0500  plane waves:     112
 k-point ** :  -0.2500 0.1500 0.0500  plane waves:     110
 k-point ** :  -0.2000 0.1500 0.0500  plane waves:     113
 k-point ** :  -0.1500 0.1500 0.0500  plane waves:     114
 k-point ** :  -0.1000 0.1500 0.0500  plane waves:     119
 k-point ** :   0.2500 0.2000 0.0500  plane waves:     116
 k-point ** :   0.3000 0.2000 0.0500  plane waves:     116
 k-point ** :   0.3500 0.2000 0.0500  plane waves:     117
 k-point ** :   0.4000 0.2000 0.0500  plane waves:     113
 k-point ** :   0.4500 0.2000 0.0500  plane waves:     114
 k-point ** :   0.5000 0.2000 0.0500  plane waves:     113
 k-point ** :  -0.4500 0.2000 0.0500  plane waves:     111
 k-point ** :  -0.4000 0.2000 0.0500  plane waves:     111
 k-point ** :  -0.3500 0.2000 0.0500  plane waves:     111
 k-point ** :  -0.3000 0.2000 0.0500  plane waves:     113
 k-point ** :  -0.2500 0.2000 0.0500  plane waves:     111
 k-point ** :  -0.2000 0.2000 0.0500  plane waves:     114
 k-point ** :  -0.1500 0.2000 0.0500  plane waves:     113
 k-point ** :   0.3000 0.2500 0.0500  plane waves:     118
 k-point ** :   0.3500 0.2500 0.0500  plane waves:     115
 k-point ** :   0.4000 0.2500 0.0500  plane waves:     116
 k-point ** :   0.4500 0.2500 0.0500  plane waves:     113
 k-point ** :   0.5000 0.2500 0.0500  plane waves:     113
 k-point ** :  -0.4500 0.2500 0.0500  plane waves:     111
 k-point ** :  -0.4000 0.2500 0.0500  plane waves:     113
 k-point ** :  -0.3500 0.2500 0.0500  plane waves:     111
 k-point ** :  -0.3000 0.2500 0.0500  plane waves:     112
 k-point ** :  -0.2500 0.2500 0.0500  plane waves:     112
 k-point ** :  -0.2000 0.2500 0.0500  plane waves:     114
 k-point ** :   0.3500 0.3000 0.0500  plane waves:     114
 k-point ** :   0.4000 0.3000 0.0500  plane waves:     113
 k-point ** :   0.4500 0.3000 0.0500  plane waves:     111
 k-point ** :   0.5000 0.3000 0.0500  plane waves:     110
 k-point ** :  -0.4500 0.3000 0.0500  plane waves:     111
 k-point ** :  -0.4000 0.3000 0.0500  plane waves:     111
[...]
      6      16.3906      0.00000
      7      18.4500      0.00000
      8      20.8451      0.00000
      9      24.2897      0.00000
     10      32.6549      0.00000
     11      35.7544      0.00000
     12      39.6923      0.00000
     13      41.7496      0.00000
     14      42.1430      0.00000
     15      42.3052      0.00000
     16      42.3652      0.00000
     17      43.7458      0.00000
     18      46.5213      0.00000
     19      50.4893      0.00000
     20      52.4584      0.00000

 k-point   244 :      -0.2500    0.4000    0.1500
  band No.  band energies     occupation 
      1       4.2819      2.00000
      2       4.9074      2.00000
      3       5.3018      2.00000
      4       8.3754      2.00000
      5      10.5232     -0.00000
      6      15.4471      0.00000
      7      20.1467      0.00000
      8      20.1604      0.00000
      9      24.9945      0.00000
     10      32.4611      0.00000
     11      35.0509      0.00000
     12      40.8738      0.00000
     13      41.1631      0.00000
     14      42.1270      0.00000
     15      42.2857      0.00000
     16      42.6823      0.00000
     17      43.1185      0.00000
     18      46.8746      0.00000
     19      51.9584      0.00000
     20      52.7334      0.00000

 k-point   245 :      -0.4000    0.4500    0.1500
  band No.  band energies     occupation 
      1       3.3303      2.00000
      2       3.8151      2.00000
      3       7.1237      2.00000
      4       9.3617      2.00000
      5      11.1247     -0.00000
      6      15.3175      0.00000
      7      19.1023      0.00000
      8      21.0920      0.00000
      9      23.3231      0.00000
     10      34.0659      0.00000
     11      34.1100      0.00000
     12      38.0114      0.00000
     13      42.1332      0.00000
     14      42.1852      0.00000
     15      42.2979      0.00000
     16      44.1230      0.00000
     17      44.8264      0.00000
     18      46.7132      0.00000
     19      49.9965      0.00000
     20      51.6293      0.00000

 k-point   246 :      -0.3500    0.4500    0.1500
  band No.  band energies     occupation 
      1       3.5272      2.00000
      2       4.1157      2.00000
      3       6.7422      2.00000
      4       8.9162      2.00000
      5      11.2404     -0.00000
      6      16.6189      0.00000
      7      18.2350      0.00000
      8      20.6751      0.00000
      9      23.1839      0.00000
     10      33.7733      0.00000
     11      35.7664      0.00000
     12      37.3207      0.00000
     13      42.1758      0.00000
     14      42.1929      0.00000
     15      42.2931      0.00000
     16      43.6580      0.00000
     17      45.3935      0.00000
     18      46.2455      0.00000
     19      48.5981      0.00000
     20      52.0288      0.00000

 k-point   247 :      -0.3000    0.4500    0.1500
  band No.  band energies     occupation 
      1       3.7616      2.00000
      2       4.4808      2.00000
      3       6.2417      2.00000
      4       8.5666      2.00000
      5      11.1179     -0.00000
      6      17.2035      0.00000
      7      17.9513      0.00000
      8      20.4066      0.00000
      9      23.5762      0.00000
     10      33.3254      0.00000
     11      36.3159      0.00000
     12      37.8398      0.00000
     13      42.1256      0.00000
     14      42.1503      0.00000
     15      42.2483      0.00000
     16      42.8429      0.00000
     17      44.4939      0.00000
     18      46.9078      0.00000
     19      48.5860      0.00000
     20      52.1304      0.00000

 k-point   248 :      -0.3500    0.5000    0.1500
  band No.  band energies     occupation 
      1       3.2545      2.00000
      2       3.7684      2.00000
      3       7.4097      2.00000
      4       9.2820      2.00000
      5      11.3606     -0.00000
      6      16.1420      0.00000
      7      18.4188      0.00000
      8      20.7331      0.00000
      9      22.8504      0.00000
     10      34.2704      0.00000
     11      34.5240      0.00000
     12      37.5951      0.00000
     13      42.1279      0.00000
     14      42.1810      0.00000
     15      42.3360      0.00000
     16      44.0800      0.00000
     17      46.2854      0.00000
     18      46.9605      0.00000
     19      47.6820      0.00000
     20      52.0271      0.00000

 k-point   249 :      -0.4000    0.4000    0.2000
  band No.  band energies     occupation 
      1       4.0699      2.00000
      2       4.5566      2.00000
      3       5.5533      2.00000
      4       8.7521      2.00000
      5      10.5168     -0.00000
      6      14.8800      0.00000
      7      19.9358      0.00000
      8      21.2264      0.00000
      9      24.7429      0.00000
     10      33.3188      0.00000
     11      34.1351      0.00000
     12      39.7719      0.00000
     13      41.9405      0.00000
     14      42.1600      0.00000
     15      42.2498      0.00000
     16      42.2769      0.00000
     17      43.9462      0.00000
     18      46.8486      0.00000
     19      50.8818      0.00000
     20      52.4288      0.00000

 k-point   250 :      -0.3500    0.4000    0.2000
  band No.  band energies     occupation 
      1       4.1151      2.00000
      2       4.8110      2.00000
      3       5.4631      2.00000
      4       8.4624      2.00000
      5      10.8237     -0.00000
      6      15.9580      0.00000
      7      18.9350      0.00000
      8      20.9797      0.00000
      9      24.1510      0.00000
     10      33.2270      0.00000
     11      35.0356      0.00000
     12      39.8506      0.00000
     13      42.1167      0.00000
     14      42.1489      0.00000
     15      42.3510      0.00000
     16      42.5129      0.00000
     17      43.3462      0.00000
     18      45.9807      0.00000
     19      50.8123      0.00000
     20      52.4057      0.00000

 k-point   251 :      -0.3000    0.4000    0.2000
  band No.  band energies     occupation 
      1       4.1269      2.00000
      2       4.8931      2.00000
      3       5.4712      2.00000
      4       8.3203      2.00000
      5      10.9376     -0.00000
      6      16.8487      0.00000
      7      17.9034      0.00000
      8      21.1478      0.00000
      9      23.8696      0.00000
     10      33.1356      0.00000
     11      35.5127      0.00000
     12      39.8158      0.00000
     13      42.1610      0.00000
     14      42.1610      0.00000
     15      42.5159      0.00000
     16      42.7049      0.00000
     17      42.8912      0.00000
     18      45.7711      0.00000
     19      50.2008      0.00000
     20      52.1911      0.00000

 k-point   252 :      -0.3500    0.4500    0.2000
  band No.  band energies     occupation 
      1       3.8205      2.00000
      2       4.4653      2.00000
      3       6.0467      2.00000
      4       8.6621      2.00000
      5      11.1229     -0.00000
      6      16.3159      0.00000
      7      19.1193      0.00000
      8      20.2978      0.00000
      9      23.4712      0.00000
     10      34.4618      0.00000
     11      34.7259      0.00000
     12      38.2490      0.00000
     13      42.2148      0.00000
     14      42.2700      0.00000
     15      42.2978      0.00000
     16      43.9984      0.00000
     17      44.0991      0.00000
     18      45.3636      0.00000
     19      49.3903      0.00000
     20      52.1515      0.00000

 k-point   253 :      -0.3000    0.4500    0.2000
  band No.  band energies     occupation 
      1       3.9319      2.00000
      2       4.8228      2.00000
      3       5.7095      2.00000
      4       8.3654      2.00000
      5      11.2398     -0.00000
      6      17.3660      0.00000
      7      18.4437      0.00000
      8      19.9473      0.00000
      9      23.2550      0.00000
     10      34.3253      0.00000
     11      35.5202      0.00000
     12      38.2233      0.00000
     13      42.1795      0.00000
     14      42.2089      0.00000
     15      42.3307      0.00000
     16      43.3226      0.00000
     17      44.0883      0.00000
     18      45.7150      0.00000
     19      48.1108      0.00000
     20      55.0872      0.00000

 k-point   254 :      -0.2500    0.4500    0.2000
  band No.  band energies     occupation 
      1       4.0393      2.00000
      2       5.1600      2.00000
      3       5.2800      2.00000
      4       8.3125      2.00000
      5      11.1198     -0.00000
      6      16.8667      0.00000
      7      19.2299      0.00000
      8      19.6582      0.00000
      9      23.5510      0.00000
     10      34.0868      0.00000
     11      35.2022      0.00000
     12      39.0831      0.00000
     13      42.1418      0.00000
     14      42.2048      0.00000
     15      42.4782      0.00000
     16      42.8415      0.00000
     17      43.3918      0.00000
     18      45.8930      0.00000
     19      48.8285      0.00000
     20      52.2157      0.00000

 k-point   255 :      -0.3000    0.5000    0.2000
  band No.  band energies     occupation 
      1       3.7305      2.00000
      2       4.4333      2.00000
      3       6.2673      2.00000
      4       8.5652      2.00000
      5      11.3621     -0.00000
      6      17.5855      0.00000
      7      18.1201      0.00000
      8      19.9469      0.00000
      9      22.9770      0.00000
     10      34.5631      0.00000
     11      36.2949      0.00000
     12      36.6260      0.00000
     13      42.1835      0.00000
     14      42.2368      0.00000
     15      42.2675      0.00000
     16      44.2456      0.00000
     17      44.6402      0.00000
     18      46.5420      0.00000
     19      46.6629      0.00000
     20      52.2191      0.00000

 k-point   256 :      -0.2500    0.5000    0.2500
  band No.  band energies     occupation 
      1       3.9513      2.00000
      2       5.2705      2.00000
      3       5.2705      2.00000
      4       8.2526      2.00000
      5      11.3625     -0.00000
      6      18.0270      0.00000
      7      18.8791      0.00000
      8      18.8791      0.00000
      9      23.0058      0.00000
     10      35.2423      0.00000
     11      35.2423      0.00000
     12      37.8195      0.00000
     13      42.2208      0.00000
     14      42.2208      0.00000
     15      42.4618      0.00000
     16      42.7934      0.00000
     17      45.5613      0.00000
     18      45.5613      0.00000
     19      46.3997      0.00000
     20      52.3078      0.00000


--------------------------------------------------------------------------------------------------------


 soft charge-density along one line, spin component           1
         0         1         2         3         4         5         6         7         8         9
 total charge-density along one line
 
 pseudopotential strength for first ion, spin component:           1
 -4.563   0.000   0.000   0.000   0.000  -0.408  -0.000  -0.000
  0.000  -4.563  -0.000   0.000   0.000  -0.000  -0.408   0.000
  0.000  -0.000  -4.518  -0.000   0.000  -0.000   0.000  -0.414
  0.000   0.000  -0.000  -4.563  -0.000  -0.000  -0.000   0.000
  0.000   0.000   0.000  -0.000  -4.518  -0.000  -0.000  -0.000
 -0.408  -0.000  -0.000  -0.000  -0.000   0.273  -0.000   0.000
 -0.000  -0.408   0.000  -0.000  -0.000  -0.000   0.273  -0.000
 -0.000   0.000  -0.414   0.000  -0.000   0.000  -0.000   0.274
 -0.000  -0.000   0.000  -0.408   0.000  -0.000  -0.000  -0.000
 -0.000  -0.000  -0.000   0.000  -0.414   0.000   0.000   0.000
  0.000   0.000  -0.000   0.000   0.000  -0.000  -0.000  -0.000
 -0.000  -0.000   0.000  -0.000  -0.000   0.000   0.000   0.000
  0.000   0.000  -0.000  -0.000  -0.000  -0.000   0.000   0.000
  0.000   0.000  -0.000   0.000   0.000   0.000  -0.000   0.000
  0.000  -0.000  -0.000   0.000   0.000  -0.000   0.000   0.000
  0.000   0.000   0.000   0.000   0.000   0.000   0.000  -0.000
  0.000  -0.000  -0.000  -0.000  -0.000   0.000   0.000   0.000
 -0.000   0.000   0.000   0.000  -0.000   0.000  -0.000  -0.000
 total augmentation occupancy for first ion, spin component:           1
  1.483   0.000   0.000   0.000  -0.000   0.352   0.000   0.000   0.000  -0.000   0.000   0.000   0.000   0.000   0.000   0.000
  0.000   1.483  -0.000   0.000   0.000   0.000   0.352   0.000   0.000   0.000   0.000   0.000   0.000   0.000   0.000   0.000
  0.000  -0.000   1.664   0.000   0.000   0.000   0.000   0.126  -0.000   0.000   0.000  -0.000   0.000   0.000   0.000   0.000
 -0.000   0.000   0.000   1.483  -0.000   0.000   0.000  -0.000   0.352  -0.000   0.000  -0.000   0.000   0.000   0.000   0.000
  0.000   0.000   0.000   0.000   1.664  -0.000   0.000  -0.000  -0.000   0.126  -0.000   0.000   0.000   0.000   0.000   0.000
  0.352   0.000   0.000   0.000  -0.000   0.358   0.000   0.000   0.000  -0.000   0.000   0.000   0.000   0.000   0.000   0.000
  0.000   0.352   0.000   0.000   0.000   0.000   0.358  -0.000   0.000  -0.000   0.000  -0.000   0.000   0.000   0.000   0.000
  0.000   0.000   0.126  -0.000   0.000   0.000  -0.000   0.357  -0.000   0.000   0.000  -0.000   0.000   0.000   0.000   0.000
  0.000   0.000  -0.000   0.352  -0.000   0.000   0.000  -0.000   0.358   0.000   0.000  -0.000   0.000   0.000   0.000   0.000
  0.000   0.000   0.000  -0.000   0.126  -0.000   0.000   0.000   0.000   0.357   0.000  -0.000   0.000   0.000   0.000   0.000
  0.000   0.000   0.000   0.000  -0.000   0.000  -0.000   0.000   0.000   0.000   1.260  -0.352   0.000   0.000   0.000   0.000
  0.000   0.000  -0.000  -0.000   0.000   0.000   0.000  -0.000  -0.000  -0.000  -0.352   0.139   0.000   0.000   0.000   0.000
  0.000   0.000   0.000   0.000   0.000   0.000   0.000   0.000   0.000   0.000   0.000   0.000   0.304   0.000   0.000  -0.014
  0.000   0.000   0.000   0.000   0.000   0.000   0.000   0.000   0.000   0.000   0.000   0.000   0.000   0.304  -0.000   0.000
  0.000   0.000   0.000   0.000   0.000   0.000   0.000   0.000   0.000   0.000   0.000   0.000   0.000   0.000   0.304  -0.000
  0.000   0.000   0.000   0.000   0.000   0.000   0.000   0.000   0.000   0.000   0.000   0.000  -0.014   0.000  -0.000   0.001
  0.000   0.000   0.000   0.000   0.000   0.000   0.000   0.000   0.000   0.000   0.000   0.000  -0.000  -0.014   0.000  -0.000
  0.000   0.000   0.000   0.000   0.000   0.000   0.000   0.000   0.000   0.000   0.000   0.000  -0.000  -0.000  -0.014   0.000


------------------------ aborting loop because EDIFF is reached ----------------------------------------


    CHARGE:  cpu time    0.0070: real time    0.0076
    FORLOC:  cpu time    0.0000: real time    0.0000
    FORNL :  cpu time    0.0100: real time    0.0096
    STRESS:  cpu time    0.1270: real time    0.1282
    FORCOR:  cpu time    0.0020: real time    0.0014
    FORHAR:  cpu time    0.0000: real time    0.0003
    MIXING:  cpu time    0.0000: real time    0.0002
    OFIELD:  cpu time    0.0000: real time    0.0000

  FORCE on cell =-STRESS in cart. coord.  units (eV):
  Direction    XX          YY          ZZ          XY          YZ          ZX
  --------------------------------------------------------------------------------------
  Alpha Z    78.45227    78.45227    78.45227
  Ewald    -230.12074  -230.12074  -230.12074     0.00000     0.00000    -0.00000
  Hartree    10.41352    10.41352    10.41352     0.00000     0.00000     0.00000
  E(xc)     -41.30262   -41.30262   -41.30262     0.00000     0.00000     0.00000
  Local      34.34115    34.34115    34.34115     0.00000     0.00000     0.00000
  n-local    -7.58708    -5.46249   -10.18854     4.41534    -5.47004     2.06378
  augment    39.19189    39.19189    39.19189    -0.00000    -0.00000    -0.00000
  Kinetic   114.46946   120.17284   115.67146     1.66926    -4.01741     4.15742
  Fock        0.00000     0.00000     0.00000     0.00000     0.00000     0.00000
  -------------------------------------------------------------------------------------
  Total       0.00068     0.00068     0.00068     0.00000     0.00000    -0.00000
  in kB       0.07540     0.07540     0.07540     0.00000     0.00000    -0.00000
  external pressure =        0.08 kB  Pullay stress =        0.00 kB


 VOLUME and BASIS-vectors are now :
 -----------------------------------------------------------------------------
  energy-cutoff  :      210.87
  volume of cell :       14.53
      direct lattice vectors                 reciprocal lattice vectors
    -0.000000000  1.936557423  1.936557423    -0.258190123  0.258190123  0.258190123
     1.936557423 -0.000000000  1.936557423     0.258190123 -0.258190123  0.258190123
     1.936557423  1.936557423 -0.000000000     0.258190123  0.258190123 -0.258190123

  length of vectors
     2.738705772  2.738705772  2.738705772     0.447198412  0.447198412  0.447198412


 FORCES acting on ions
    electron-ion (+dipol)            ewald-force                    non-local-force                 convergence-correction
 -----------------------------------------------------------------------------------------------
   -.737E-14 -.466E-14 0.178E-14   0.145E-15 0.934E-15 -.657E-16   -.724E-24 0.103E-24 0.170E-27   -.224E-14 -.196E-14 -.602E-16
 -----------------------------------------------------------------------------------------------
   -.737E-14 -.466E-14 0.178E-14   0.145E-15 0.934E-15 -.657E-16   -.724E-24 0.103E-24 0.170E-27   -.224E-14 -.196E-14 -.602E-16
 
 
 POSITION                                       TOTAL-FORCE (eV/Angst)
 -----------------------------------------------------------------------------------
      0.00000     -0.00000      0.00000         0.000000      0.000000     -0.000000
 -----------------------------------------------------------------------------------
    total drift:                               -0.000000     -0.000000      0.000000


--------------------------------------------------------------------------------------------------------



  FREE ENERGIE OF THE ION-ELECTRON SYSTEM (eV)
  ---------------------------------------------------
  free  energy   TOTEN  =        -8.87695441 eV

  energy  without entropy=       -8.87776219  energy(sigma->0) =       -8.87722367
 
 d Force = 0.0000000E+00[ 0.000E+00, 0.000E+00]  d Energy = 0.6109315E-03-0.611E-03
 d Force = 0.0000000E+00[ 0.000E+00, 0.000E+00]  d Ewald  = 0.1404744E+01-0.140E+01


--------------------------------------------------------------------------------------------------------


    POTLOK:  cpu time    0.0040: real time    0.0039


--------------------------------------------------------------------------------------------------------




--------------------------------------------------------------------------------------------------------


  
 reached required accuracy - stopping structural energy minimisation
 writing wavefunctions
     LOOP+:  cpu time    3.4215: real time    3.4881
    4ORBIT:  cpu time    0.0000: real time    0.0000

 total amount of memory used by VASP on root node    36092. kBytes
========================================================================

   base      :      30000. kBytes
   nonl-proj :       5163. kBytes
   fftplans  :         68. kBytes
   grid      :        191. kBytes
   one-center:         15. kBytes
   wavefun   :        655. kBytes
 
  
  
 General timing and accounting informations for this job:
 ========================================================
  
                  Total CPU time used (sec):       27.911
                            User time (sec):       27.454
                          System time (sec):        0.457
                         Elapsed time (sec):       29.072
  
                   Maximum memory used (kb):      114436.
                   Average memory used (kb):           0.
  
                          Minor page faults:        16167
                          Major page faults:            0
                 Voluntary context switches:         1640
