<?xml version="1.0" encoding="ISO-8859-1"?>
<modeling>
 <generator>
  <i name="program" type="string">vasp </i>
  <i name="version" type="string">5.4.1  </i>
  <i name="subversion" type="string">24Jun15 (build Feb 03 2017 16:24:58) complex                          parallel </i>
  <i name="platform" type="string">IFC91_ompi </i>
  <i name="date" type="string">2018 06 22 </i>
  <i name="time" type="string">15:37:32 </i>
 </generator>
 <incar>
  <i type="string" name="SYSTEM"> Ir_Ru</i>
  <i type="int" name="ISTART">     0</i>
  <i type="string" name="PREC">accurate</i>
  <i type="string" name="ALGO"> Very_Fast</i>
  <i type="int" name="ICHARG">     2</i>
  <i type="int" name="NELMIN">     5</i>
  <i type="int" name="IBRION">    -1</i>
  <i name="EDIFFG">      0.00001000</i>
  <i type="int" name="ISIF">     2</i>
  <i type="int" name="ISMEAR">    -5</i>
  <i name="SIGMA">      0.10000000</i>
  <v type="int" name="KPOINT_BSE">    -1     0     0     0</v>
 </incar>
 <kpoints>
  <generation param="Gamma">
   <v type="int" name="divisions">      20       20       20 </v>
   <v name="usershift">      0.00000000       0.00000000       0.00000000 </v>
   <v name="genvec1">      0.05000000       0.00000000       0.00000000 </v>
   <v name="genvec2">      0.00000000       0.05000000       0.00000000 </v>
   <v name="genvec3">      0.00000000       0.00000000       0.05000000 </v>
   <v name="shift">      0.00000000       0.00000000       0.00000000 </v>
  </generation>
  <varray name="kpointlist" >
   <v>       0.00000000       0.00000000       0.00000000 </v>
   <v>       0.05000000       0.00000000       0.00000000 </v>
   <v>       0.10000000       0.00000000       0.00000000 </v>
   <v>       0.15000000       0.00000000       0.00000000 </v>
   <v>       0.20000000       0.00000000       0.00000000 </v>
   <v>       0.25000000       0.00000000       0.00000000 </v>
   <v>       0.30000000       0.00000000       0.00000000 </v>
   <v>       0.35000000       0.00000000       0.00000000 </v>
   <v>       0.40000000       0.00000000       0.00000000 </v>
   <v>       0.45000000       0.00000000       0.00000000 </v>
   <v>       0.50000000       0.00000000       0.00000000 </v>
   <v>       0.05000000       0.05000000       0.00000000 </v>
   <v>       0.10000000       0.05000000       0.00000000 </v>
   <v>       0.15000000       0.05000000       0.00000000 </v>
   <v>       0.20000000       0.05000000       0.00000000 </v>
   <v>       0.25000000       0.05000000       0.00000000 </v>
   <v>       0.30000000       0.05000000       0.00000000 </v>
   <v>       0.35000000       0.05000000       0.00000000 </v>
   <v>       0.40000000       0.05000000       0.00000000 </v>
   <v>       0.45000000       0.05000000       0.00000000 </v>
   <v>       0.50000000       0.05000000       0.00000000 </v>
   <v>      -0.45000000       0.05000000       0.00000000 </v>
   <v>      -0.40000000       0.05000000       0.00000000 </v>
   <v>      -0.35000000       0.05000000       0.00000000 </v>
   <v>      -0.30000000       0.05000000       0.00000000 </v>
   <v>      -0.25000000       0.05000000       0.00000000 </v>
   <v>      -0.20000000       0.05000000       0.00000000 </v>
   <v>      -0.15000000       0.05000000       0.00000000 </v>
   <v>      -0.10000000       0.05000000       0.00000000 </v>
   <v>      -0.05000000       0.05000000       0.00000000 </v>
   <v>       0.10000000       0.10000000       0.00000000 </v>
   <v>       0.15000000       0.10000000       0.00000000 </v>
   <v>       0.20000000       0.10000000       0.00000000 </v>
   <v>       0.25000000       0.10000000       0.00000000 </v>
   <v>       0.30000000       0.10000000       0.00000000 </v>
   <v>       0.35000000       0.10000000       0.00000000 </v>
   <v>       0.40000000       0.10000000       0.00000000 </v>
   <v>       0.45000000       0.10000000       0.00000000 </v>
   <v>       0.50000000       0.10000000       0.00000000 </v>
   <v>      -0.45000000       0.10000000       0.00000000 </v>
   <v>      -0.40000000       0.10000000       0.00000000 </v>
   <v>      -0.35000000       0.10000000       0.00000000 </v>
   <v>      -0.30000000       0.10000000       0.00000000 </v>
   <v>      -0.25000000       0.10000000       0.00000000 </v>
   <v>      -0.20000000       0.10000000       0.00000000 </v>
   <v>      -0.15000000       0.10000000       0.00000000 </v>
   <v>      -0.10000000       0.10000000       0.00000000 </v>
   <v>       0.15000000       0.15000000       0.00000000 </v>
   <v>       0.20000000       0.15000000       0.00000000 </v>
   <v>       0.25000000       0.15000000       0.00000000 </v>
   <v>       0.30000000       0.15000000       0.00000000 </v>
   <v>       0.35000000       0.15000000       0.00000000 </v>
   <v>       0.40000000       0.15000000       0.00000000 </v>
   <v>       0.45000000       0.15000000       0.00000000 </v>
   <v>       0.50000000       0.15000000       0.00000000 </v>
   <v>      -0.45000000       0.15000000       0.00000000 </v>
   <v>      -0.40000000       0.15000000       0.00000000 </v>
   <v>      -0.35000000       0.15000000       0.00000000 </v>
   <v>      -0.30000000       0.15000000       0.00000000 </v>
   <v>      -0.25000000       0.15000000       0.00000000 </v>
   <v>      -0.20000000       0.15000000       0.00000000 </v>
   <v>      -0.15000000       0.15000000       0.00000000 </v>
   <v>       0.20000000       0.20000000       0.00000000 </v>
   <v>       0.25000000       0.20000000       0.00000000 </v>
   <v>       0.30000000       0.20000000       0.00000000 </v>
   <v>       0.35000000       0.20000000       0.00000000 </v>
   <v>       0.40000000       0.20000000       0.00000000 </v>
   <v>       0.45000000       0.20000000       0.00000000 </v>
   <v>       0.50000000       0.20000000       0.00000000 </v>
   <v>      -0.45000000       0.20000000       0.00000000 </v>
   <v>      -0.40000000       0.20000000       0.00000000 </v>
   <v>      -0.35000000       0.20000000       0.00000000 </v>
   <v>      -0.30000000       0.20000000       0.00000000 </v>
   <v>      -0.25000000       0.20000000       0.00000000 </v>
   <v>      -0.20000000       0.20000000       0.00000000 </v>
   <v>       0.25000000       0.25000000       0.00000000 </v>
   <v>       0.30000000       0.25000000       0.00000000 </v>
   <v>       0.35000000       0.25000000       0.00000000 </v>
   <v>       0.40000000       0.25000000       0.00000000 </v>
   <v>       0.45000000       0.25000000       0.00000000 </v>
   <v>       0.50000000       0.25000000       0.00000000 </v>
   <v>      -0.45000000       0.25000000       0.00000000 </v>
   <v>      -0.40000000       0.25000000       0.00000000 </v>
   <v>      -0.35000000       0.25000000       0.00000000 </v>
   <v>      -0.30000000       0.25000000       0.00000000 </v>
   <v>      -0.25000000       0.25000000       0.00000000 </v>
   <v>       0.30000000       0.30000000       0.00000000 </v>
   <v>       0.35000000       0.30000000       0.00000000 </v>
   <v>       0.40000000       0.30000000       0.00000000 </v>
   <v>       0.45000000       0.30000000       0.00000000 </v>
   <v>       0.50000000       0.30000000       0.00000000 </v>
   <v>      -0.45000000       0.30000000       0.00000000 </v>
   <v>      -0.40000000       0.30000000       0.00000000 </v>
   <v>      -0.35000000       0.30000000       0.00000000 </v>
   <v>      -0.30000000       0.30000000       0.00000000 </v>
   <v>       0.35000000       0.35000000       0.00000000 </v>
   <v>       0.40000000       0.35000000       0.00000000 </v>
   <v>       0.45000000       0.35000000       0.00000000 </v>
   <v>       0.50000000       0.35000000       0.00000000 </v>
   <v>      -0.45000000       0.35000000       0.00000000 </v>
   <v>      -0.40000000       0.35000000       0.00000000 </v>
   <v>      -0.35000000       0.35000000       0.00000000 </v>
   <v>       0.40000000       0.40000000       0.00000000 </v>
   <v>       0.45000000       0.40000000       0.00000000 </v>
   <v>       0.50000000       0.40000000       0.00000000 </v>
   <v>      -0.45000000       0.40000000       0.00000000 </v>
   <v>      -0.40000000       0.40000000       0.00000000 </v>
   <v>       0.45000000       0.45000000       0.00000000 </v>
   <v>       0.50000000       0.45000000       0.00000000 </v>
   <v>      -0.45000000       0.45000000       0.00000000 </v>
   <v>       0.50000000       0.50000000       0.00000000 </v>
   <v>       0.15000000       0.10000000       0.05000000 </v>
   <v>       0.20000000       0.10000000       0.05000000 </v>
   <v>       0.25000000       0.10000000       0.05000000 </v>
   <v>       0.30000000       0.10000000       0.05000000 </v>
   <v>       0.35000000       0.10000000       0.05000000 </v>
   <v>       0.40000000       0.10000000       0.05000000 </v>
   <v>       0.45000000       0.10000000       0.05000000 </v>
   <v>       0.50000000       0.10000000       0.05000000 </v>
   <v>      -0.45000000       0.10000000       0.05000000 </v>
   <v>       0.20000000       0.15000000       0.05000000 </v>
   <v>       0.25000000       0.15000000       0.05000000 </v>
   <v>       0.30000000       0.15000000       0.05000000 </v>
   <v>       0.35000000       0.15000000       0.05000000 </v>
   <v>       0.40000000       0.15000000       0.05000000 </v>
   <v>       0.45000000       0.15000000       0.05000000 </v>
   <v>       0.50000000       0.15000000       0.05000000 </v>
   <v>      -0.45000000       0.15000000       0.05000000 </v>
   <v>      -0.40000000       0.15000000       0.05000000 </v>
   <v>      -0.35000000       0.15000000       0.05000000 </v>
   <v>      -0.30000000       0.15000000       0.05000000 </v>
   <v>      -0.25000000       0.15000000       0.05000000 </v>
   <v>      -0.20000000       0.15000000       0.05000000 </v>
   <v>      -0.15000000       0.15000000       0.05000000 </v>
   <v>      -0.10000000       0.15000000       0.05000000 </v>
   <v>       0.25000000       0.20000000       0.05000000 </v>
   <v>       0.30000000       0.20000000       0.05000000 </v>
   <v>       0.35000000       0.20000000       0.05000000 </v>
   <v>       0.40000000       0.20000000       0.05000000 </v>
   <v>       0.45000000       0.20000000       0.05000000 </v>
   <v>       0.50000000       0.20000000       0.05000000 </v>
   <v>      -0.45000000       0.20000000       0.05000000 </v>
   <v>      -0.40000000       0.20000000       0.05000000 </v>
   <v>      -0.35000000       0.20000000       0.05000000 </v>
   <v>      -0.30000000       0.20000000       0.05000000 </v>
   <v>      -0.25000000       0.20000000       0.05000000 </v>
   <v>      -0.20000000       0.20000000       0.05000000 </v>
   <v>      -0.15000000       0.20000000       0.05000000 </v>
   <v>       0.30000000       0.25000000       0.05000000 </v>
   <v>       0.35000000       0.25000000       0.05000000 </v>
   <v>       0.40000000       0.25000000       0.05000000 </v>
   <v>       0.45000000       0.25000000       0.05000000 </v>
   <v>       0.50000000       0.25000000       0.05000000 </v>
   <v>      -0.45000000       0.25000000       0.05000000 </v>
   <v>      -0.40000000       0.25000000       0.05000000 </v>
   <v>      -0.35000000       0.25000000       0.05000000 </v>
   <v>      -0.30000000       0.25000000       0.05000000 </v>
   <v>      -0.25000000       0.25000000       0.05000000 </v>
   <v>      -0.20000000       0.25000000       0.05000000 </v>
   <v>       0.35000000       0.30000000       0.05000000 </v>
   <v>       0.40000000       0.30000000       0.05000000 </v>
   <v>       0.45000000       0.30000000       0.05000000 </v>
   <v>       0.50000000       0.30000000       0.05000000 </v>
   <v>      -0.45000000       0.30000000       0.05000000 </v>
   <v>      -0.40000000       0.30000000       0.05000000 </v>
   <v>      -0.35000000       0.30000000       0.05000000 </v>
   <v>      -0.30000000       0.30000000       0.05000000 </v>
   <v>      -0.25000000       0.30000000       0.05000000 </v>
   <v>       0.40000000       0.35000000       0.05000000 </v>
   <v>       0.45000000       0.35000000       0.05000000 </v>
   <v>       0.50000000       0.35000000       0.05000000 </v>
   <v>      -0.45000000       0.35000000       0.05000000 </v>
   <v>      -0.40000000       0.35000000       0.05000000 </v>
   <v>      -0.35000000       0.35000000       0.05000000 </v>
   <v>      -0.30000000       0.35000000       0.05000000 </v>
   <v>       0.45000000       0.40000000       0.05000000 </v>
   <v>       0.50000000       0.40000000       0.05000000 </v>
   <v>      -0.45000000       0.40000000       0.05000000 </v>
   <v>      -0.40000000       0.40000000       0.05000000 </v>
   <v>      -0.35000000       0.40000000       0.05000000 </v>
   <v>       0.50000000       0.45000000       0.05000000 </v>
   <v>      -0.45000000       0.45000000       0.05000000 </v>
   <v>      -0.40000000       0.45000000       0.05000000 </v>
   <v>      -0.45000000       0.50000000       0.05000000 </v>
   <v>       0.30000000       0.20000000       0.10000000 </v>
   <v>       0.35000000       0.20000000       0.10000000 </v>
   <v>       0.40000000       0.20000000       0.10000000 </v>
   <v>       0.45000000       0.20000000       0.10000000 </v>
   <v>       0.50000000       0.20000000       0.10000000 </v>
   <v>      -0.45000000       0.20000000       0.10000000 </v>
   <v>      -0.40000000       0.20000000       0.10000000 </v>
   <v>       0.35000000       0.25000000       0.10000000 </v>
   <v>       0.40000000       0.25000000       0.10000000 </v>
   <v>       0.45000000       0.25000000       0.10000000 </v>
   <v>       0.50000000       0.25000000       0.10000000 </v>
   <v>      -0.45000000       0.25000000       0.10000000 </v>
   <v>      -0.40000000       0.25000000       0.10000000 </v>
   <v>      -0.35000000       0.25000000       0.10000000 </v>
   <v>      -0.30000000       0.25000000       0.10000000 </v>
   <v>      -0.25000000       0.25000000       0.10000000 </v>
   <v>      -0.20000000       0.25000000       0.10000000 </v>
   <v>      -0.15000000       0.25000000       0.10000000 </v>
   <v>       0.40000000       0.30000000       0.10000000 </v>
   <v>       0.45000000       0.30000000       0.10000000 </v>
   <v>       0.50000000       0.30000000       0.10000000 </v>
   <v>      -0.45000000       0.30000000       0.10000000 </v>
   <v>      -0.40000000       0.30000000       0.10000000 </v>
   <v>      -0.35000000       0.30000000       0.10000000 </v>
   <v>      -0.30000000       0.30000000       0.10000000 </v>
   <v>      -0.25000000       0.30000000       0.10000000 </v>
   <v>      -0.20000000       0.30000000       0.10000000 </v>
   <v>       0.45000000       0.35000000       0.10000000 </v>
   <v>       0.50000000       0.35000000       0.10000000 </v>
   <v>      -0.45000000       0.35000000       0.10000000 </v>
   <v>      -0.40000000       0.35000000       0.10000000 </v>
   <v>      -0.35000000       0.35000000       0.10000000 </v>
   <v>      -0.30000000       0.35000000       0.10000000 </v>
   <v>      -0.25000000       0.35000000       0.10000000 </v>
   <v>       0.50000000       0.40000000       0.10000000 </v>
   <v>      -0.45000000       0.40000000       0.10000000 </v>
   <v>      -0.40000000       0.40000000       0.10000000 </v>
   <v>      -0.35000000       0.40000000       0.10000000 </v>
   <v>      -0.30000000       0.40000000       0.10000000 </v>
   <v>      -0.45000000       0.45000000       0.10000000 </v>
   <v>      -0.40000000       0.45000000       0.10000000 </v>
   <v>      -0.35000000       0.45000000       0.10000000 </v>
   <v>      -0.40000000       0.50000000       0.10000000 </v>
   <v>       0.45000000       0.30000000       0.15000000 </v>
   <v>       0.50000000       0.30000000       0.15000000 </v>
   <v>      -0.45000000       0.30000000       0.15000000 </v>
   <v>      -0.40000000       0.30000000       0.15000000 </v>
   <v>      -0.35000000       0.30000000       0.15000000 </v>
   <v>       0.50000000       0.35000000       0.15000000 </v>
   <v>      -0.45000000       0.35000000       0.15000000 </v>
   <v>      -0.40000000       0.35000000       0.15000000 </v>
   <v>      -0.35000000       0.35000000       0.15000000 </v>
   <v>      -0.30000000       0.35000000       0.15000000 </v>
   <v>      -0.25000000       0.35000000       0.15000000 </v>
   <v>      -0.20000000       0.35000000       0.15000000 </v>
   <v>      -0.45000000       0.40000000       0.15000000 </v>
   <v>      -0.40000000       0.40000000       0.15000000 </v>
   <v>      -0.35000000       0.40000000       0.15000000 </v>
   <v>      -0.30000000       0.40000000       0.15000000 </v>
   <v>      -0.25000000       0.40000000       0.15000000 </v>
   <v>      -0.40000000       0.45000000       0.15000000 </v>
   <v>      -0.35000000       0.45000000       0.15000000 </v>
   <v>      -0.30000000       0.45000000       0.15000000 </v>
   <v>      -0.35000000       0.50000000       0.15000000 </v>
   <v>      -0.40000000       0.40000000       0.20000000 </v>
   <v>      -0.35000000       0.40000000       0.20000000 </v>
   <v>      -0.30000000       0.40000000       0.20000000 </v>
   <v>      -0.35000000       0.45000000       0.20000000 </v>
   <v>      -0.30000000       0.45000000       0.20000000 </v>
   <v>      -0.25000000       0.45000000       0.20000000 </v>
   <v>      -0.30000000       0.50000000       0.20000000 </v>
   <v>      -0.25000000       0.50000000       0.25000000 </v>
  </varray>
  <varray name="weights" >
   <v>       0.00012500 </v>
   <v>       0.00100000 </v>
   <v>       0.00100000 </v>
   <v>       0.00100000 </v>
   <v>       0.00100000 </v>
   <v>       0.00100000 </v>
   <v>       0.00100000 </v>
   <v>       0.00100000 </v>
   <v>       0.00100000 </v>
   <v>       0.00100000 </v>
   <v>       0.00050000 </v>
   <v>       0.00075000 </v>
   <v>       0.00300000 </v>
   <v>       0.00300000 </v>
   <v>       0.00300000 </v>
   <v>       0.00300000 </v>
   <v>       0.00300000 </v>
   <v>       0.00300000 </v>
   <v>       0.00300000 </v>
   <v>       0.00300000 </v>
   <v>       0.00300000 </v>
   <v>       0.00300000 </v>
   <v>       0.00300000 </v>
   <v>       0.00300000 </v>
   <v>       0.00300000 </v>
   <v>       0.00300000 </v>
   <v>       0.00300000 </v>
   <v>       0.00300000 </v>
   <v>       0.00300000 </v>
   <v>       0.00150000 </v>
   <v>       0.00075000 </v>
   <v>       0.00300000 </v>
   <v>       0.00300000 </v>
   <v>       0.00300000 </v>
   <v>       0.00300000 </v>
   <v>       0.00300000 </v>
   <v>       0.00300000 </v>
   <v>       0.00300000 </v>
   <v>       0.00300000 </v>
   <v>       0.00300000 </v>
   <v>       0.00300000 </v>
   <v>       0.00300000 </v>
   <v>       0.00300000 </v>
   <v>       0.00300000 </v>
   <v>       0.00300000 </v>
   <v>       0.00300000 </v>
   <v>       0.00150000 </v>
   <v>       0.00075000 </v>
   <v>       0.00300000 </v>
   <v>       0.00300000 </v>
   <v>       0.00300000 </v>
   <v>       0.00300000 </v>
   <v>       0.00300000 </v>
   <v>       0.00300000 </v>
   <v>       0.00300000 </v>
   <v>       0.00300000 </v>
   <v>       0.00300000 </v>
   <v>       0.00300000 </v>
   <v>       0.00300000 </v>
   <v>       0.00300000 </v>
   <v>       0.00300000 </v>
   <v>       0.00150000 </v>
   <v>       0.00075000 </v>
   <v>       0.00300000 </v>
   <v>       0.00300000 </v>
   <v>       0.00300000 </v>
   <v>       0.00300000 </v>
   <v>       0.00300000 </v>
   <v>       0.00300000 </v>
   <v>       0.00300000 </v>
   <v>       0.00300000 </v>
   <v>       0.00300000 </v>
   <v>       0.00300000 </v>
   <v>       0.00300000 </v>
   <v>       0.00150000 </v>
   <v>       0.00075000 </v>
   <v>       0.00300000 </v>
   <v>       0.00300000 </v>
   <v>       0.00300000 </v>
   <v>       0.00300000 </v>
   <v>       0.00300000 </v>
   <v>       0.00300000 </v>
   <v>       0.00300000 </v>
   <v>       0.00300000 </v>
   <v>       0.00300000 </v>
   <v>       0.00150000 </v>
   <v>       0.00075000 </v>
   <v>       0.00300000 </v>
   <v>       0.00300000 </v>
   <v>       0.00300000 </v>
   <v>       0.00300000 </v>
   <v>       0.00300000 </v>
   <v>       0.00300000 </v>
   <v>       0.00300000 </v>
   <v>       0.00150000 </v>
   <v>       0.00075000 </v>
   <v>       0.00300000 </v>
   <v>       0.00300000 </v>
   <v>       0.00300000 </v>
   <v>       0.00300000 </v>
   <v>       0.00300000 </v>
   <v>       0.00150000 </v>
   <v>       0.00075000 </v>
   <v>       0.00300000 </v>
   <v>       0.00300000 </v>
   <v>       0.00300000 </v>
   <v>       0.00150000 </v>
   <v>       0.00075000 </v>
   <v>       0.00300000 </v>
   <v>       0.00150000 </v>
   <v>       0.00037500 </v>
   <v>       0.00300000 </v>
   <v>       0.00600000 </v>
   <v>       0.00600000 </v>
   <v>       0.00600000 </v>
   <v>       0.00600000 </v>
   <v>       0.00600000 </v>
   <v>       0.00600000 </v>
   <v>       0.00600000 </v>
   <v>       0.00300000 </v>
   <v>       0.00300000 </v>
   <v>       0.00600000 </v>
   <v>       0.00600000 </v>
   <v>       0.00600000 </v>
   <v>       0.00600000 </v>
   <v>       0.00600000 </v>
   <v>       0.00600000 </v>
   <v>       0.00600000 </v>
   <v>       0.00600000 </v>
   <v>       0.00600000 </v>
   <v>       0.00600000 </v>
   <v>       0.00600000 </v>
   <v>       0.00600000 </v>
   <v>       0.00600000 </v>
   <v>       0.00300000 </v>
   <v>       0.00300000 </v>
   <v>       0.00600000 </v>
   <v>       0.00600000 </v>
   <v>       0.00600000 </v>
   <v>       0.00600000 </v>
   <v>       0.00600000 </v>
   <v>       0.00600000 </v>
   <v>       0.00600000 </v>
   <v>       0.00600000 </v>
   <v>       0.00600000 </v>
   <v>       0.00600000 </v>
   <v>       0.00600000 </v>
   <v>       0.00300000 </v>
   <v>       0.00300000 </v>
   <v>       0.00600000 </v>
   <v>       0.00600000 </v>
   <v>       0.00600000 </v>
   <v>       0.00600000 </v>
   <v>       0.00600000 </v>
   <v>       0.00600000 </v>
   <v>       0.00600000 </v>
   <v>       0.00600000 </v>
   <v>       0.00600000 </v>
   <v>       0.00300000 </v>
   <v>       0.00300000 </v>
   <v>       0.00600000 </v>
   <v>       0.00600000 </v>
   <v>       0.00600000 </v>
   <v>       0.00600000 </v>
   <v>       0.00600000 </v>
   <v>       0.00600000 </v>
   <v>       0.00600000 </v>
   <v>       0.00300000 </v>
   <v>       0.00300000 </v>
   <v>       0.00600000 </v>
   <v>       0.00600000 </v>
   <v>       0.00600000 </v>
   <v>       0.00600000 </v>
   <v>       0.00600000 </v>
   <v>       0.00300000 </v>
   <v>       0.00300000 </v>
   <v>       0.00600000 </v>
   <v>       0.00600000 </v>
   <v>       0.00600000 </v>
   <v>       0.00300000 </v>
   <v>       0.00300000 </v>
   <v>       0.00600000 </v>
   <v>       0.00300000 </v>
   <v>       0.00150000 </v>
   <v>       0.00300000 </v>
   <v>       0.00600000 </v>
   <v>       0.00600000 </v>
   <v>       0.00600000 </v>
   <v>       0.00600000 </v>
   <v>       0.00600000 </v>
   <v>       0.00300000 </v>
   <v>       0.00300000 </v>
   <v>       0.00600000 </v>
   <v>       0.00600000 </v>
   <v>       0.00600000 </v>
   <v>       0.00600000 </v>
   <v>       0.00600000 </v>
   <v>       0.00600000 </v>
   <v>       0.00600000 </v>
   <v>       0.00600000 </v>
   <v>       0.00600000 </v>
   <v>       0.00300000 </v>
   <v>       0.00300000 </v>
   <v>       0.00600000 </v>
   <v>       0.00600000 </v>
   <v>       0.00600000 </v>
   <v>       0.00600000 </v>
   <v>       0.00600000 </v>
   <v>       0.00600000 </v>
   <v>       0.00600000 </v>
   <v>       0.00300000 </v>
   <v>       0.00300000 </v>
   <v>       0.00600000 </v>
   <v>       0.00600000 </v>
   <v>       0.00600000 </v>
   <v>       0.00600000 </v>
   <v>       0.00600000 </v>
   <v>       0.00300000 </v>
   <v>       0.00300000 </v>
   <v>       0.00600000 </v>
   <v>       0.00600000 </v>
   <v>       0.00600000 </v>
   <v>       0.00300000 </v>
   <v>       0.00300000 </v>
   <v>       0.00600000 </v>
   <v>       0.00300000 </v>
   <v>       0.00150000 </v>
   <v>       0.00300000 </v>
   <v>       0.00600000 </v>
   <v>       0.00600000 </v>
   <v>       0.00600000 </v>
   <v>       0.00300000 </v>
   <v>       0.00300000 </v>
   <v>       0.00600000 </v>
   <v>       0.00600000 </v>
   <v>       0.00600000 </v>
   <v>       0.00600000 </v>
   <v>       0.00600000 </v>
   <v>       0.00300000 </v>
   <v>       0.00300000 </v>
   <v>       0.00600000 </v>
   <v>       0.00600000 </v>
   <v>       0.00600000 </v>
   <v>       0.00300000 </v>
   <v>       0.00300000 </v>
   <v>       0.00600000 </v>
   <v>       0.00300000 </v>
   <v>       0.00150000 </v>
   <v>       0.00300000 </v>
   <v>       0.00600000 </v>
   <v>       0.00300000 </v>
   <v>       0.00300000 </v>
   <v>       0.00600000 </v>
   <v>       0.00300000 </v>
   <v>       0.00150000 </v>
   <v>       0.00075000 </v>
  </varray>
  <varray name="tetrahedronlist"  type="int" >
   <v type="int" >       24        1        2        2       12 </v>
   <v type="int" >       48        2       12       13       30 </v>
   <v type="int" >       48        2        3       13       30 </v>
   <v type="int" >       24        2        2       12       30 </v>
   <v type="int" >       48        3       13       14       29 </v>
   <v type="int" >       48        3        4       14       29 </v>
   <v type="int" >       48        3       13       29       30 </v>
   <v type="int" >       48        4       14       15       28 </v>
   <v type="int" >       48        4        5       15       28 </v>
   <v type="int" >       48        4       14       28       29 </v>
   <v type="int" >       48        5       15       16       27 </v>
   <v type="int" >       48        5        6       16       27 </v>
   <v type="int" >       48        5       15       27       28 </v>
   <v type="int" >       48        6       16       17       26 </v>
   <v type="int" >       48        6        7       17       26 </v>
   <v type="int" >       48        6       16       26       27 </v>
   <v type="int" >       48        7       17       18       25 </v>
   <v type="int" >       48        7        8       18       25 </v>
   <v type="int" >       48        7       17       25       26 </v>
   <v type="int" >       48        8       18       19       24 </v>
   <v type="int" >       48        8        9       19       24 </v>
   <v type="int" >       48        8       18       24       25 </v>
   <v type="int" >       48        9       19       20       23 </v>
   <v type="int" >       48        9       10       20       23 </v>
   <v type="int" >       48        9       19       23       24 </v>
   <v type="int" >       48       10       20       21       22 </v>
   <v type="int" >       48       10       11       21       22 </v>
   <v type="int" >       48       10       20       22       23 </v>
   <v type="int" >       48       11       21       21       22 </v>
   <v type="int" >       24       12       13       13       31 </v>
   <v type="int" >       24       12       13       13       30 </v>
   <v type="int" >       48       13       31       32      112 </v>
   <v type="int" >       48       13       14       32      112 </v>
   <v type="int" >       48       13       14       29      112 </v>
   <v type="int" >       24       13       13       31      112 </v>
   <v type="int" >       24       13       13       30      112 </v>
   <v type="int" >       48       13       29       30      112 </v>
   <v type="int" >       48       14       32       33      113 </v>
   <v type="int" >       48       14       15       33      113 </v>
   <v type="int" >       48       14       15       28      113 </v>
   <v type="int" >       48       14       32      112      113 </v>
   <v type="int" >       48       14       29      112      113 </v>
   <v type="int" >       48       14       28       29      113 </v>
   <v type="int" >       48       15       33       34      114 </v>
   <v type="int" >       48       15       16       34      114 </v>
   <v type="int" >       48       15       16       27      114 </v>
   <v type="int" >       48       15       33      113      114 </v>
   <v type="int" >       48       15       28      113      114 </v>
   <v type="int" >       48       15       27       28      114 </v>
   <v type="int" >       48       16       34       35      115 </v>
   <v type="int" >       48       16       17       35      115 </v>
   <v type="int" >       48       16       17       26      115 </v>
   <v type="int" >       48       16       34      114      115 </v>
   <v type="int" >       48       16       27      114      115 </v>
   <v type="int" >       48       16       26       27      115 </v>
   <v type="int" >       48       17       35       36      116 </v>
   <v type="int" >       48       17       18       36      116 </v>
   <v type="int" >       48       17       18       25      116 </v>
   <v type="int" >       48       17       35      115      116 </v>
   <v type="int" >       48       17       26      115      116 </v>
   <v type="int" >       48       17       25       26      116 </v>
   <v type="int" >       48       18       36       37      117 </v>
   <v type="int" >       48       18       19       37      117 </v>
   <v type="int" >       48       18       19       24      117 </v>
   <v type="int" >       48       18       36      116      117 </v>
   <v type="int" >       48       18       25      116      117 </v>
   <v type="int" >       48       18       24       25      117 </v>
   <v type="int" >       48       19       37       38      118 </v>
   <v type="int" >       48       19       20       38      118 </v>
   <v type="int" >       48       19       20       23      118 </v>
   <v type="int" >       48       19       37      117      118 </v>
   <v type="int" >       48       19       24      117      118 </v>
   <v type="int" >       48       19       23       24      118 </v>
   <v type="int" >       48       20       38       39      119 </v>
   <v type="int" >       48       20       21       39      119 </v>
   <v type="int" >       48       20       21       22      119 </v>
   <v type="int" >       48       20       38      118      119 </v>
   <v type="int" >       48       20       23      118      119 </v>
   <v type="int" >       48       20       22       23      119 </v>
   <v type="int" >       48       21       39       40      120 </v>
   <v type="int" >       48       21       22       40      120 </v>
   <v type="int" >       48       21       21       22      120 </v>
   <v type="int" >       48       21       39      119      120 </v>
   <v type="int" >       48       21       22      119      120 </v>
   <v type="int" >       48       22       40       41      119 </v>
   <v type="int" >       48       22       23       41      119 </v>
   <v type="int" >       48       22       40      119      120 </v>
   <v type="int" >       48       23       41       42      118 </v>
   <v type="int" >       48       23       24       42      118 </v>
   <v type="int" >       48       23       41      118      119 </v>
   <v type="int" >       48       24       42       43      117 </v>
   <v type="int" >       48       24       25       43      117 </v>
   <v type="int" >       48       24       42      117      118 </v>
   <v type="int" >       48       25       43       44      116 </v>
   <v type="int" >       48       25       26       44      116 </v>
   <v type="int" >       48       25       43      116      117 </v>
   <v type="int" >       48       26       44       45      115 </v>
   <v type="int" >       48       26       27       45      115 </v>
   <v type="int" >       48       26       44      115      116 </v>
   <v type="int" >       48       27       45       46      114 </v>
   <v type="int" >       48       27       28       46      114 </v>
   <v type="int" >       48       27       45      114      115 </v>
   <v type="int" >       48       28       46       47      113 </v>
   <v type="int" >       48       28       29       47      113 </v>
   <v type="int" >       48       28       46      113      114 </v>
   <v type="int" >       24       29       29       47      112 </v>
   <v type="int" >       24       29       29       30      112 </v>
   <v type="int" >       48       29       47      112      113 </v>
   <v type="int" >       24       31       32       32       48 </v>
   <v type="int" >       24       31       32       32      112 </v>
   <v type="int" >       48       32       48       49      121 </v>
   <v type="int" >       48       32       33       49      121 </v>
   <v type="int" >       48       32       33      113      121 </v>
   <v type="int" >       24       32       32       48      121 </v>
   <v type="int" >       24       32       32      112      121 </v>
   <v type="int" >       48       32      112      113      121 </v>
   <v type="int" >       48       33       49       50      122 </v>
   <v type="int" >       48       33       34       50      122 </v>
   <v type="int" >       48       33       34      114      122 </v>
   <v type="int" >       48       33       49      121      122 </v>
   <v type="int" >       48       33      113      121      122 </v>
   <v type="int" >       48       33      113      114      122 </v>
   <v type="int" >       48       34       50       51      123 </v>
   <v type="int" >       48       34       35       51      123 </v>
   <v type="int" >       48       34       35      115      123 </v>
   <v type="int" >       48       34       50      122      123 </v>
   <v type="int" >       48       34      114      122      123 </v>
   <v type="int" >       48       34      114      115      123 </v>
   <v type="int" >       48       35       51       52      124 </v>
   <v type="int" >       48       35       36       52      124 </v>
   <v type="int" >       48       35       36      116      124 </v>
   <v type="int" >       48       35       51      123      124 </v>
   <v type="int" >       48       35      115      123      124 </v>
   <v type="int" >       48       35      115      116      124 </v>
   <v type="int" >       48       36       52       53      125 </v>
   <v type="int" >       48       36       37       53      125 </v>
   <v type="int" >       48       36       37      117      125 </v>
   <v type="int" >       48       36       52      124      125 </v>
   <v type="int" >       48       36      116      124      125 </v>
   <v type="int" >       48       36      116      117      125 </v>
   <v type="int" >       48       37       53       54      126 </v>
   <v type="int" >       48       37       38       54      126 </v>
   <v type="int" >       48       37       38      118      126 </v>
   <v type="int" >       48       37       53      125      126 </v>
   <v type="int" >       48       37      117      125      126 </v>
   <v type="int" >       48       37      117      118      126 </v>
   <v type="int" >       48       38       54       55      127 </v>
   <v type="int" >       48       38       39       55      127 </v>
   <v type="int" >       48       38       39      119      127 </v>
   <v type="int" >       48       38       54      126      127 </v>
   <v type="int" >       48       38      118      126      127 </v>
   <v type="int" >       48       38      118      119      127 </v>
   <v type="int" >       48       39       55       56      128 </v>
   <v type="int" >       48       39       40       56      128 </v>
   <v type="int" >       48       39       40      120      128 </v>
   <v type="int" >       48       39       55      127      128 </v>
   <v type="int" >       48       39      119      127      128 </v>
   <v type="int" >       48       39      119      120      128 </v>
   <v type="int" >       48       40       56       57      129 </v>
   <v type="int" >       48       40       41       57      129 </v>
   <v type="int" >       48       40       41      119      129 </v>
   <v type="int" >       48       40       56      128      129 </v>
   <v type="int" >       48       40      120      128      129 </v>
   <v type="int" >       48       40      119      120      129 </v>
   <v type="int" >       48       41       57       58      130 </v>
   <v type="int" >       48       41       42       58      130 </v>
   <v type="int" >       48       41       42      118      130 </v>
   <v type="int" >       48       41       57      129      130 </v>
   <v type="int" >       48       41      119      129      130 </v>
   <v type="int" >       48       41      118      119      130 </v>
   <v type="int" >       48       42       58       59      131 </v>
   <v type="int" >       48       42       43       59      131 </v>
   <v type="int" >       48       42       43      117      131 </v>
   <v type="int" >       48       42       58      130      131 </v>
   <v type="int" >       48       42      118      130      131 </v>
   <v type="int" >       48       42      117      118      131 </v>
   <v type="int" >       48       43       59       60      132 </v>
   <v type="int" >       48       43       44       60      132 </v>
   <v type="int" >       48       43       44      116      132 </v>
   <v type="int" >       48       43       59      131      132 </v>
   <v type="int" >       48       43      117      131      132 </v>
   <v type="int" >       48       43      116      117      132 </v>
   <v type="int" >       48       44       60       61      133 </v>
   <v type="int" >       48       44       45       61      133 </v>
   <v type="int" >       48       44       45      115      133 </v>
   <v type="int" >       48       44       60      132      133 </v>
   <v type="int" >       48       44      116      132      133 </v>
   <v type="int" >       48       44      115      116      133 </v>
   <v type="int" >       48       45       61       62      134 </v>
   <v type="int" >       48       45       46       62      134 </v>
   <v type="int" >       48       45       46      114      134 </v>
   <v type="int" >       48       45       61      133      134 </v>
   <v type="int" >       48       45      115      133      134 </v>
   <v type="int" >       48       45      114      115      134 </v>
   <v type="int" >       24       46       46       62      135 </v>
   <v type="int" >       24       46       46       47      135 </v>
   <v type="int" >       48       46       47      113      135 </v>
   <v type="int" >       48       46       62      134      135 </v>
   <v type="int" >       48       46      114      134      135 </v>
   <v type="int" >       48       46      113      114      135 </v>
   <v type="int" >       24       47      113      113      135 </v>
   <v type="int" >       24       47      112      113      113 </v>
   <v type="int" >       24       48       49       49       63 </v>
   <v type="int" >       24       48       49       49      121 </v>
   <v type="int" >       48       49       63       64      136 </v>
   <v type="int" >       48       49       50       64      136 </v>
   <v type="int" >       48       49       50      122      136 </v>
   <v type="int" >       24       49       49       63      136 </v>
   <v type="int" >       24       49       49      121      136 </v>
   <v type="int" >       48       49      121      122      136 </v>
   <v type="int" >       48       50       64       65      137 </v>
   <v type="int" >       48       50       51       65      137 </v>
   <v type="int" >       48       50       51      123      137 </v>
   <v type="int" >       48       50       64      136      137 </v>
   <v type="int" >       48       50      122      136      137 </v>
   <v type="int" >       48       50      122      123      137 </v>
   <v type="int" >       48       51       65       66      138 </v>
   <v type="int" >       48       51       52       66      138 </v>
   <v type="int" >       48       51       52      124      138 </v>
   <v type="int" >       48       51       65      137      138 </v>
   <v type="int" >       48       51      123      137      138 </v>
   <v type="int" >       48       51      123      124      138 </v>
   <v type="int" >       48       52       66       67      139 </v>
   <v type="int" >       48       52       53       67      139 </v>
   <v type="int" >       48       52       53      125      139 </v>
   <v type="int" >       48       52       66      138      139 </v>
   <v type="int" >       48       52      124      138      139 </v>
   <v type="int" >       48       52      124      125      139 </v>
   <v type="int" >       48       53       67       68      140 </v>
   <v type="int" >       48       53       54       68      140 </v>
   <v type="int" >       48       53       54      126      140 </v>
   <v type="int" >       48       53       67      139      140 </v>
   <v type="int" >       48       53      125      139      140 </v>
   <v type="int" >       48       53      125      126      140 </v>
   <v type="int" >       48       54       68       69      141 </v>
   <v type="int" >       48       54       55       69      141 </v>
   <v type="int" >       48       54       55      127      141 </v>
   <v type="int" >       48       54       68      140      141 </v>
   <v type="int" >       48       54      126      140      141 </v>
   <v type="int" >       48       54      126      127      141 </v>
   <v type="int" >       48       55       69       70      142 </v>
   <v type="int" >       48       55       56       70      142 </v>
   <v type="int" >       48       55       56      128      142 </v>
   <v type="int" >       48       55       69      141      142 </v>
   <v type="int" >       48       55      127      141      142 </v>
   <v type="int" >       48       55      127      128      142 </v>
   <v type="int" >       48       56       70       71      143 </v>
   <v type="int" >       48       56       57       71      143 </v>
   <v type="int" >       48       56       57      129      143 </v>
   <v type="int" >       48       56       70      142      143 </v>
   <v type="int" >       48       56      128      142      143 </v>
   <v type="int" >       48       56      128      129      143 </v>
   <v type="int" >       48       57       71       72      144 </v>
   <v type="int" >       48       57       58       72      144 </v>
   <v type="int" >       48       57       58      130      144 </v>
   <v type="int" >       48       57       71      143      144 </v>
   <v type="int" >       48       57      129      143      144 </v>
   <v type="int" >       48       57      129      130      144 </v>
   <v type="int" >       48       58       72       73      145 </v>
   <v type="int" >       48       58       59       73      145 </v>
   <v type="int" >       48       58       59      131      145 </v>
   <v type="int" >       48       58       72      144      145 </v>
   <v type="int" >       48       58      130      144      145 </v>
   <v type="int" >       48       58      130      131      145 </v>
   <v type="int" >       48       59       73       74      146 </v>
   <v type="int" >       48       59       60       74      146 </v>
   <v type="int" >       48       59       60      132      146 </v>
   <v type="int" >       48       59       73      145      146 </v>
   <v type="int" >       48       59      131      145      146 </v>
   <v type="int" >       48       59      131      132      146 </v>
   <v type="int" >       48       60       74       75      147 </v>
   <v type="int" >       48       60       61       75      147 </v>
   <v type="int" >       48       60       61      133      147 </v>
   <v type="int" >       48       60       74      146      147 </v>
   <v type="int" >       48       60      132      146      147 </v>
   <v type="int" >       48       60      132      133      147 </v>
   <v type="int" >       24       61       61       75      148 </v>
   <v type="int" >       24       61       61       62      148 </v>
   <v type="int" >       48       61       62      134      148 </v>
   <v type="int" >       48       61       75      147      148 </v>
   <v type="int" >       48       61      133      147      148 </v>
   <v type="int" >       48       61      133      134      148 </v>
   <v type="int" >       24       62      134      134      148 </v>
   <v type="int" >       24       62      134      134      135 </v>
   <v type="int" >       24       63       64       64       76 </v>
   <v type="int" >       24       63       64       64      136 </v>
   <v type="int" >       48       64       76       77      149 </v>
   <v type="int" >       48       64       65       77      149 </v>
   <v type="int" >       48       64       65      137      149 </v>
   <v type="int" >       24       64       64       76      149 </v>
   <v type="int" >       24       64       64      136      149 </v>
   <v type="int" >       48       64      136      137      149 </v>
   <v type="int" >       48       65       77       78      150 </v>
   <v type="int" >       48       65       66       78      150 </v>
   <v type="int" >       48       65       66      138      150 </v>
   <v type="int" >       48       65       77      149      150 </v>
   <v type="int" >       48       65      137      149      150 </v>
   <v type="int" >       48       65      137      138      150 </v>
   <v type="int" >       48       66       78       79      151 </v>
   <v type="int" >       48       66       67       79      151 </v>
   <v type="int" >       48       66       67      139      151 </v>
   <v type="int" >       48       66       78      150      151 </v>
   <v type="int" >       48       66      138      150      151 </v>
   <v type="int" >       48       66      138      139      151 </v>
   <v type="int" >       48       67       79       80      152 </v>
   <v type="int" >       48       67       68       80      152 </v>
   <v type="int" >       48       67       68      140      152 </v>
   <v type="int" >       48       67       79      151      152 </v>
   <v type="int" >       48       67      139      151      152 </v>
   <v type="int" >       48       67      139      140      152 </v>
   <v type="int" >       48       68       80       81      153 </v>
   <v type="int" >       48       68       69       81      153 </v>
   <v type="int" >       48       68       69      141      153 </v>
   <v type="int" >       48       68       80      152      153 </v>
   <v type="int" >       48       68      140      152      153 </v>
   <v type="int" >       48       68      140      141      153 </v>
   <v type="int" >       48       69       81       82      154 </v>
   <v type="int" >       48       69       70       82      154 </v>
   <v type="int" >       48       69       70      142      154 </v>
   <v type="int" >       48       69       81      153      154 </v>
   <v type="int" >       48       69      141      153      154 </v>
   <v type="int" >       48       69      141      142      154 </v>
   <v type="int" >       48       70       82       83      155 </v>
   <v type="int" >       48       70       71       83      155 </v>
   <v type="int" >       48       70       71      143      155 </v>
   <v type="int" >       48       70       82      154      155 </v>
   <v type="int" >       48       70      142      154      155 </v>
   <v type="int" >       48       70      142      143      155 </v>
   <v type="int" >       48       71       83       84      156 </v>
   <v type="int" >       48       71       72       84      156 </v>
   <v type="int" >       48       71       72      144      156 </v>
   <v type="int" >       48       71       83      155      156 </v>
   <v type="int" >       48       71      143      155      156 </v>
   <v type="int" >       48       71      143      144      156 </v>
   <v type="int" >       48       72       84       85      157 </v>
   <v type="int" >       48       72       73       85      157 </v>
   <v type="int" >       48       72       73      145      157 </v>
   <v type="int" >       48       72       84      156      157 </v>
   <v type="int" >       48       72      144      156      157 </v>
   <v type="int" >       48       72      144      145      157 </v>
   <v type="int" >       48       73       85       86      158 </v>
   <v type="int" >       48       73       74       86      158 </v>
   <v type="int" >       48       73       74      146      158 </v>
   <v type="int" >       48       73       85      157      158 </v>
   <v type="int" >       48       73      145      157      158 </v>
   <v type="int" >       48       73      145      146      158 </v>
   <v type="int" >       24       74       74       86      159 </v>
   <v type="int" >       24       74       74       75      159 </v>
   <v type="int" >       48       74       75      147      159 </v>
   <v type="int" >       48       74       86      158      159 </v>
   <v type="int" >       48       74      146      158      159 </v>
   <v type="int" >       48       74      146      147      159 </v>
   <v type="int" >       24       75      147      147      159 </v>
   <v type="int" >       24       75      147      147      148 </v>
   <v type="int" >       24       76       77       77       87 </v>
   <v type="int" >       24       76       77       77      149 </v>
   <v type="int" >       48       77       87       88      160 </v>
   <v type="int" >       48       77       78       88      160 </v>
   <v type="int" >       48       77       78      150      160 </v>
   <v type="int" >       24       77       77       87      160 </v>
   <v type="int" >       24       77       77      149      160 </v>
   <v type="int" >       48       77      149      150      160 </v>
   <v type="int" >       48       78       88       89      161 </v>
   <v type="int" >       48       78       79       89      161 </v>
   <v type="int" >       48       78       79      151      161 </v>
   <v type="int" >       48       78       88      160      161 </v>
   <v type="int" >       48       78      150      160      161 </v>
   <v type="int" >       48       78      150      151      161 </v>
   <v type="int" >       48       79       89       90      162 </v>
   <v type="int" >       48       79       80       90      162 </v>
   <v type="int" >       48       79       80      152      162 </v>
   <v type="int" >       48       79       89      161      162 </v>
   <v type="int" >       48       79      151      161      162 </v>
   <v type="int" >       48       79      151      152      162 </v>
   <v type="int" >       48       80       90       91      163 </v>
   <v type="int" >       48       80       81       91      163 </v>
   <v type="int" >       48       80       81      153      163 </v>
   <v type="int" >       48       80       90      162      163 </v>
   <v type="int" >       48       80      152      162      163 </v>
   <v type="int" >       48       80      152      153      163 </v>
   <v type="int" >       48       81       91       92      164 </v>
   <v type="int" >       48       81       82       92      164 </v>
   <v type="int" >       48       81       82      154      164 </v>
   <v type="int" >       48       81       91      163      164 </v>
   <v type="int" >       48       81      153      163      164 </v>
   <v type="int" >       48       81      153      154      164 </v>
   <v type="int" >       48       82       92       93      165 </v>
   <v type="int" >       48       82       83       93      165 </v>
   <v type="int" >       48       82       83      155      165 </v>
   <v type="int" >       48       82       92      164      165 </v>
   <v type="int" >       48       82      154      164      165 </v>
   <v type="int" >       48       82      154      155      165 </v>
   <v type="int" >       48       83       93       94      166 </v>
   <v type="int" >       48       83       84       94      166 </v>
   <v type="int" >       48       83       84      156      166 </v>
   <v type="int" >       48       83       93      165      166 </v>
   <v type="int" >       48       83      155      165      166 </v>
   <v type="int" >       48       83      155      156      166 </v>
   <v type="int" >       48       84       94       95      167 </v>
   <v type="int" >       48       84       85       95      167 </v>
   <v type="int" >       48       84       85      157      167 </v>
   <v type="int" >       48       84       94      166      167 </v>
   <v type="int" >       48       84      156      166      167 </v>
   <v type="int" >       48       84      156      157      167 </v>
   <v type="int" >       24       85       85       95      168 </v>
   <v type="int" >       24       85       85       86      168 </v>
   <v type="int" >       48       85       86      158      168 </v>
   <v type="int" >       48       85       95      167      168 </v>
   <v type="int" >       48       85      157      167      168 </v>
   <v type="int" >       48       85      157      158      168 </v>
   <v type="int" >       24       86      158      158      168 </v>
   <v type="int" >       24       86      158      158      159 </v>
   <v type="int" >       24       87       88       88       96 </v>
   <v type="int" >       24       87       88       88      160 </v>
   <v type="int" >       48       88       96       97      169 </v>
   <v type="int" >       48       88       89       97      169 </v>
   <v type="int" >       48       88       89      161      169 </v>
   <v type="int" >       24       88       88       96      169 </v>
   <v type="int" >       24       88       88      160      169 </v>
   <v type="int" >       48       88      160      161      169 </v>
   <v type="int" >       48       89       97       98      170 </v>
   <v type="int" >       48       89       90       98      170 </v>
   <v type="int" >       48       89       90      162      170 </v>
   <v type="int" >       48       89       97      169      170 </v>
   <v type="int" >       48       89      161      169      170 </v>
   <v type="int" >       48       89      161      162      170 </v>
   <v type="int" >       48       90       98       99      171 </v>
   <v type="int" >       48       90       91       99      171 </v>
   <v type="int" >       48       90       91      163      171 </v>
   <v type="int" >       48       90       98      170      171 </v>
   <v type="int" >       48       90      162      170      171 </v>
   <v type="int" >       48       90      162      163      171 </v>
   <v type="int" >       48       91       99      100      172 </v>
   <v type="int" >       48       91       92      100      172 </v>
   <v type="int" >       48       91       92      164      172 </v>
   <v type="int" >       48       91       99      171      172 </v>
   <v type="int" >       48       91      163      171      172 </v>
   <v type="int" >       48       91      163      164      172 </v>
   <v type="int" >       48       92      100      101      173 </v>
   <v type="int" >       48       92       93      101      173 </v>
   <v type="int" >       48       92       93      165      173 </v>
   <v type="int" >       48       92      100      172      173 </v>
   <v type="int" >       48       92      164      172      173 </v>
   <v type="int" >       48       92      164      165      173 </v>
   <v type="int" >       48       93      101      102      174 </v>
   <v type="int" >       48       93       94      102      174 </v>
   <v type="int" >       48       93       94      166      174 </v>
   <v type="int" >       48       93      101      173      174 </v>
   <v type="int" >       48       93      165      173      174 </v>
   <v type="int" >       48       93      165      166      174 </v>
   <v type="int" >       24       94       94      102      175 </v>
   <v type="int" >       24       94       94       95      175 </v>
   <v type="int" >       48       94       95      167      175 </v>
   <v type="int" >       48       94      102      174      175 </v>
   <v type="int" >       48       94      166      174      175 </v>
   <v type="int" >       48       94      166      167      175 </v>
   <v type="int" >       24       95      167      167      175 </v>
   <v type="int" >       24       95      167      167      168 </v>
   <v type="int" >       24       96       97       97      103 </v>
   <v type="int" >       24       96       97       97      169 </v>
   <v type="int" >       48       97      103      104      176 </v>
   <v type="int" >       48       97       98      104      176 </v>
   <v type="int" >       48       97       98      170      176 </v>
   <v type="int" >       24       97       97      103      176 </v>
   <v type="int" >       24       97       97      169      176 </v>
   <v type="int" >       48       97      169      170      176 </v>
   <v type="int" >       48       98      104      105      177 </v>
   <v type="int" >       48       98       99      105      177 </v>
   <v type="int" >       48       98       99      171      177 </v>
   <v type="int" >       48       98      104      176      177 </v>
   <v type="int" >       48       98      170      176      177 </v>
   <v type="int" >       48       98      170      171      177 </v>
   <v type="int" >       48       99      105      106      178 </v>
   <v type="int" >       48       99      100      106      178 </v>
   <v type="int" >       48       99      100      172      178 </v>
   <v type="int" >       48       99      105      177      178 </v>
   <v type="int" >       48       99      171      177      178 </v>
   <v type="int" >       48       99      171      172      178 </v>
   <v type="int" >       48      100      106      107      179 </v>
   <v type="int" >       48      100      101      107      179 </v>
   <v type="int" >       48      100      101      173      179 </v>
   <v type="int" >       48      100      106      178      179 </v>
   <v type="int" >       48      100      172      178      179 </v>
   <v type="int" >       48      100      172      173      179 </v>
   <v type="int" >       24      101      101      107      180 </v>
   <v type="int" >       24      101      101      102      180 </v>
   <v type="int" >       48      101      102      174      180 </v>
   <v type="int" >       48      101      107      179      180 </v>
   <v type="int" >       48      101      173      179      180 </v>
   <v type="int" >       48      101      173      174      180 </v>
   <v type="int" >       24      102      174      174      180 </v>
   <v type="int" >       24      102      174      174      175 </v>
   <v type="int" >       24      103      104      104      108 </v>
   <v type="int" >       24      103      104      104      176 </v>
   <v type="int" >       48      104      108      109      181 </v>
   <v type="int" >       48      104      105      109      181 </v>
   <v type="int" >       48      104      105      177      181 </v>
   <v type="int" >       24      104      104      108      181 </v>
   <v type="int" >       24      104      104      176      181 </v>
   <v type="int" >       48      104      176      177      181 </v>
   <v type="int" >       48      105      109      110      182 </v>
   <v type="int" >       48      105      106      110      182 </v>
   <v type="int" >       48      105      106      178      182 </v>
   <v type="int" >       48      105      109      181      182 </v>
   <v type="int" >       48      105      177      181      182 </v>
   <v type="int" >       48      105      177      178      182 </v>
   <v type="int" >       24      106      106      110      183 </v>
   <v type="int" >       24      106      106      107      183 </v>
   <v type="int" >       48      106      107      179      183 </v>
   <v type="int" >       48      106      110      182      183 </v>
   <v type="int" >       48      106      178      182      183 </v>
   <v type="int" >       48      106      178      179      183 </v>
   <v type="int" >       24      107      179      179      183 </v>
   <v type="int" >       24      107      179      179      180 </v>
   <v type="int" >       24      108      109      109      111 </v>
   <v type="int" >       24      108      109      109      181 </v>
   <v type="int" >       48      109      109      111      184 </v>
   <v type="int" >       24      109      109      110      184 </v>
   <v type="int" >       48      109      110      182      184 </v>
   <v type="int" >       24      109      109      181      184 </v>
   <v type="int" >       48      109      181      182      184 </v>
   <v type="int" >       24      110      182      182      184 </v>
   <v type="int" >       24      110      182      182      183 </v>
   <v type="int" >       24      112      113      113      121 </v>
   <v type="int" >       48      113      121      122      135 </v>
   <v type="int" >       48      113      114      122      135 </v>
   <v type="int" >       24      113      113      121      135 </v>
   <v type="int" >       48      114      122      123      134 </v>
   <v type="int" >       48      114      115      123      134 </v>
   <v type="int" >       48      114      122      134      135 </v>
   <v type="int" >       48      115      123      124      133 </v>
   <v type="int" >       48      115      116      124      133 </v>
   <v type="int" >       48      115      123      133      134 </v>
   <v type="int" >       48      116      124      125      132 </v>
   <v type="int" >       48      116      117      125      132 </v>
   <v type="int" >       48      116      124      132      133 </v>
   <v type="int" >       48      117      125      126      131 </v>
   <v type="int" >       48      117      118      126      131 </v>
   <v type="int" >       48      117      125      131      132 </v>
   <v type="int" >       48      118      126      127      130 </v>
   <v type="int" >       48      118      119      127      130 </v>
   <v type="int" >       48      118      126      130      131 </v>
   <v type="int" >       48      119      127      128      129 </v>
   <v type="int" >       48      119      120      128      129 </v>
   <v type="int" >       48      119      127      129      130 </v>
   <v type="int" >       48      120      128      128      129 </v>
   <v type="int" >       24      121      122      122      136 </v>
   <v type="int" >       24      121      122      122      135 </v>
   <v type="int" >       48      122      136      137      185 </v>
   <v type="int" >       48      122      123      137      185 </v>
   <v type="int" >       48      122      123      134      185 </v>
   <v type="int" >       24      122      122      136      185 </v>
   <v type="int" >       24      122      122      135      185 </v>
   <v type="int" >       48      122      134      135      185 </v>
   <v type="int" >       48      123      137      138      186 </v>
   <v type="int" >       48      123      124      138      186 </v>
   <v type="int" >       48      123      124      133      186 </v>
   <v type="int" >       48      123      137      185      186 </v>
   <v type="int" >       48      123      134      185      186 </v>
   <v type="int" >       48      123      133      134      186 </v>
   <v type="int" >       48      124      138      139      187 </v>
   <v type="int" >       48      124      125      139      187 </v>
   <v type="int" >       48      124      125      132      187 </v>
   <v type="int" >       48      124      138      186      187 </v>
   <v type="int" >       48      124      133      186      187 </v>
   <v type="int" >       48      124      132      133      187 </v>
   <v type="int" >       48      125      139      140      188 </v>
   <v type="int" >       48      125      126      140      188 </v>
   <v type="int" >       48      125      126      131      188 </v>
   <v type="int" >       48      125      139      187      188 </v>
   <v type="int" >       48      125      132      187      188 </v>
   <v type="int" >       48      125      131      132      188 </v>
   <v type="int" >       48      126      140      141      189 </v>
   <v type="int" >       48      126      127      141      189 </v>
   <v type="int" >       48      126      127      130      189 </v>
   <v type="int" >       48      126      140      188      189 </v>
   <v type="int" >       48      126      131      188      189 </v>
   <v type="int" >       48      126      130      131      189 </v>
   <v type="int" >       48      127      141      142      190 </v>
   <v type="int" >       48      127      128      142      190 </v>
   <v type="int" >       48      127      128      129      190 </v>
   <v type="int" >       48      127      141      189      190 </v>
   <v type="int" >       48      127      130      189      190 </v>
   <v type="int" >       48      127      129      130      190 </v>
   <v type="int" >       48      128      142      143      191 </v>
   <v type="int" >       48      128      129      143      191 </v>
   <v type="int" >       48      128      128      129      191 </v>
   <v type="int" >       48      128      142      190      191 </v>
   <v type="int" >       48      128      129      190      191 </v>
   <v type="int" >       48      129      143      144      190 </v>
   <v type="int" >       48      129      130      144      190 </v>
   <v type="int" >       48      129      143      190      191 </v>
   <v type="int" >       48      130      144      145      189 </v>
   <v type="int" >       48      130      131      145      189 </v>
   <v type="int" >       48      130      144      189      190 </v>
   <v type="int" >       48      131      145      146      188 </v>
   <v type="int" >       48      131      132      146      188 </v>
   <v type="int" >       48      131      145      188      189 </v>
   <v type="int" >       48      132      146      147      187 </v>
   <v type="int" >       48      132      133      147      187 </v>
   <v type="int" >       48      132      146      187      188 </v>
   <v type="int" >       48      133      147      148      186 </v>
   <v type="int" >       48      133      134      148      186 </v>
   <v type="int" >       48      133      147      186      187 </v>
   <v type="int" >       24      134      134      148      185 </v>
   <v type="int" >       24      134      134      135      185 </v>
   <v type="int" >       48      134      148      185      186 </v>
   <v type="int" >       24      136      137      137      149 </v>
   <v type="int" >       24      136      137      137      185 </v>
   <v type="int" >       48      137      149      150      192 </v>
   <v type="int" >       48      137      138      150      192 </v>
   <v type="int" >       48      137      138      186      192 </v>
   <v type="int" >       24      137      137      149      192 </v>
   <v type="int" >       24      137      137      185      192 </v>
   <v type="int" >       48      137      185      186      192 </v>
   <v type="int" >       48      138      150      151      193 </v>
   <v type="int" >       48      138      139      151      193 </v>
   <v type="int" >       48      138      139      187      193 </v>
   <v type="int" >       48      138      150      192      193 </v>
   <v type="int" >       48      138      186      192      193 </v>
   <v type="int" >       48      138      186      187      193 </v>
   <v type="int" >       48      139      151      152      194 </v>
   <v type="int" >       48      139      140      152      194 </v>
   <v type="int" >       48      139      140      188      194 </v>
   <v type="int" >       48      139      151      193      194 </v>
   <v type="int" >       48      139      187      193      194 </v>
   <v type="int" >       48      139      187      188      194 </v>
   <v type="int" >       48      140      152      153      195 </v>
   <v type="int" >       48      140      141      153      195 </v>
   <v type="int" >       48      140      141      189      195 </v>
   <v type="int" >       48      140      152      194      195 </v>
   <v type="int" >       48      140      188      194      195 </v>
   <v type="int" >       48      140      188      189      195 </v>
   <v type="int" >       48      141      153      154      196 </v>
   <v type="int" >       48      141      142      154      196 </v>
   <v type="int" >       48      141      142      190      196 </v>
   <v type="int" >       48      141      153      195      196 </v>
   <v type="int" >       48      141      189      195      196 </v>
   <v type="int" >       48      141      189      190      196 </v>
   <v type="int" >       48      142      154      155      197 </v>
   <v type="int" >       48      142      143      155      197 </v>
   <v type="int" >       48      142      143      191      197 </v>
   <v type="int" >       48      142      154      196      197 </v>
   <v type="int" >       48      142      190      196      197 </v>
   <v type="int" >       48      142      190      191      197 </v>
   <v type="int" >       48      143      155      156      198 </v>
   <v type="int" >       48      143      144      156      198 </v>
   <v type="int" >       48      143      144      190      198 </v>
   <v type="int" >       48      143      155      197      198 </v>
   <v type="int" >       48      143      191      197      198 </v>
   <v type="int" >       48      143      190      191      198 </v>
   <v type="int" >       48      144      156      157      199 </v>
   <v type="int" >       48      144      145      157      199 </v>
   <v type="int" >       48      144      145      189      199 </v>
   <v type="int" >       48      144      156      198      199 </v>
   <v type="int" >       48      144      190      198      199 </v>
   <v type="int" >       48      144      189      190      199 </v>
   <v type="int" >       48      145      157      158      200 </v>
   <v type="int" >       48      145      146      158      200 </v>
   <v type="int" >       48      145      146      188      200 </v>
   <v type="int" >       48      145      157      199      200 </v>
   <v type="int" >       48      145      189      199      200 </v>
   <v type="int" >       48      145      188      189      200 </v>
   <v type="int" >       48      146      158      159      201 </v>
   <v type="int" >       48      146      147      159      201 </v>
   <v type="int" >       48      146      147      187      201 </v>
   <v type="int" >       48      146      158      200      201 </v>
   <v type="int" >       48      146      188      200      201 </v>
   <v type="int" >       48      146      187      188      201 </v>
   <v type="int" >       24      147      147      159      202 </v>
   <v type="int" >       24      147      147      148      202 </v>
   <v type="int" >       48      147      148      186      202 </v>
   <v type="int" >       48      147      159      201      202 </v>
   <v type="int" >       48      147      187      201      202 </v>
   <v type="int" >       48      147      186      187      202 </v>
   <v type="int" >       24      148      186      186      202 </v>
   <v type="int" >       24      148      185      186      186 </v>
   <v type="int" >       24      149      150      150      160 </v>
   <v type="int" >       24      149      150      150      192 </v>
   <v type="int" >       48      150      160      161      203 </v>
   <v type="int" >       48      150      151      161      203 </v>
   <v type="int" >       48      150      151      193      203 </v>
   <v type="int" >       24      150      150      160      203 </v>
   <v type="int" >       24      150      150      192      203 </v>
   <v type="int" >       48      150      192      193      203 </v>
   <v type="int" >       48      151      161      162      204 </v>
   <v type="int" >       48      151      152      162      204 </v>
   <v type="int" >       48      151      152      194      204 </v>
   <v type="int" >       48      151      161      203      204 </v>
   <v type="int" >       48      151      193      203      204 </v>
   <v type="int" >       48      151      193      194      204 </v>
   <v type="int" >       48      152      162      163      205 </v>
   <v type="int" >       48      152      153      163      205 </v>
   <v type="int" >       48      152      153      195      205 </v>
   <v type="int" >       48      152      162      204      205 </v>
   <v type="int" >       48      152      194      204      205 </v>
   <v type="int" >       48      152      194      195      205 </v>
   <v type="int" >       48      153      163      164      206 </v>
   <v type="int" >       48      153      154      164      206 </v>
   <v type="int" >       48      153      154      196      206 </v>
   <v type="int" >       48      153      163      205      206 </v>
   <v type="int" >       48      153      195      205      206 </v>
   <v type="int" >       48      153      195      196      206 </v>
   <v type="int" >       48      154      164      165      207 </v>
   <v type="int" >       48      154      155      165      207 </v>
   <v type="int" >       48      154      155      197      207 </v>
   <v type="int" >       48      154      164      206      207 </v>
   <v type="int" >       48      154      196      206      207 </v>
   <v type="int" >       48      154      196      197      207 </v>
   <v type="int" >       48      155      165      166      208 </v>
   <v type="int" >       48      155      156      166      208 </v>
   <v type="int" >       48      155      156      198      208 </v>
   <v type="int" >       48      155      165      207      208 </v>
   <v type="int" >       48      155      197      207      208 </v>
   <v type="int" >       48      155      197      198      208 </v>
   <v type="int" >       48      156      166      167      209 </v>
   <v type="int" >       48      156      157      167      209 </v>
   <v type="int" >       48      156      157      199      209 </v>
   <v type="int" >       48      156      166      208      209 </v>
   <v type="int" >       48      156      198      208      209 </v>
   <v type="int" >       48      156      198      199      209 </v>
   <v type="int" >       48      157      167      168      210 </v>
   <v type="int" >       48      157      158      168      210 </v>
   <v type="int" >       48      157      158      200      210 </v>
   <v type="int" >       48      157      167      209      210 </v>
   <v type="int" >       48      157      199      209      210 </v>
   <v type="int" >       48      157      199      200      210 </v>
   <v type="int" >       24      158      158      168      211 </v>
   <v type="int" >       24      158      158      159      211 </v>
   <v type="int" >       48      158      159      201      211 </v>
   <v type="int" >       48      158      168      210      211 </v>
   <v type="int" >       48      158      200      210      211 </v>
   <v type="int" >       48      158      200      201      211 </v>
   <v type="int" >       24      159      201      201      211 </v>
   <v type="int" >       24      159      201      201      202 </v>
   <v type="int" >       24      160      161      161      169 </v>
   <v type="int" >       24      160      161      161      203 </v>
   <v type="int" >       48      161      169      170      212 </v>
   <v type="int" >       48      161      162      170      212 </v>
   <v type="int" >       48      161      162      204      212 </v>
   <v type="int" >       24      161      161      169      212 </v>
   <v type="int" >       24      161      161      203      212 </v>
   <v type="int" >       48      161      203      204      212 </v>
   <v type="int" >       48      162      170      171      213 </v>
   <v type="int" >       48      162      163      171      213 </v>
   <v type="int" >       48      162      163      205      213 </v>
   <v type="int" >       48      162      170      212      213 </v>
   <v type="int" >       48      162      204      212      213 </v>
   <v type="int" >       48      162      204      205      213 </v>
   <v type="int" >       48      163      171      172      214 </v>
   <v type="int" >       48      163      164      172      214 </v>
   <v type="int" >       48      163      164      206      214 </v>
   <v type="int" >       48      163      171      213      214 </v>
   <v type="int" >       48      163      205      213      214 </v>
   <v type="int" >       48      163      205      206      214 </v>
   <v type="int" >       48      164      172      173      215 </v>
   <v type="int" >       48      164      165      173      215 </v>
   <v type="int" >       48      164      165      207      215 </v>
   <v type="int" >       48      164      172      214      215 </v>
   <v type="int" >       48      164      206      214      215 </v>
   <v type="int" >       48      164      206      207      215 </v>
   <v type="int" >       48      165      173      174      216 </v>
   <v type="int" >       48      165      166      174      216 </v>
   <v type="int" >       48      165      166      208      216 </v>
   <v type="int" >       48      165      173      215      216 </v>
   <v type="int" >       48      165      207      215      216 </v>
   <v type="int" >       48      165      207      208      216 </v>
   <v type="int" >       48      166      174      175      217 </v>
   <v type="int" >       48      166      167      175      217 </v>
   <v type="int" >       48      166      167      209      217 </v>
   <v type="int" >       48      166      174      216      217 </v>
   <v type="int" >       48      166      208      216      217 </v>
   <v type="int" >       48      166      208      209      217 </v>
   <v type="int" >       24      167      167      175      218 </v>
   <v type="int" >       24      167      167      168      218 </v>
   <v type="int" >       48      167      168      210      218 </v>
   <v type="int" >       48      167      175      217      218 </v>
   <v type="int" >       48      167      209      217      218 </v>
   <v type="int" >       48      167      209      210      218 </v>
   <v type="int" >       24      168      210      210      218 </v>
   <v type="int" >       24      168      210      210      211 </v>
   <v type="int" >       24      169      170      170      176 </v>
   <v type="int" >       24      169      170      170      212 </v>
   <v type="int" >       48      170      176      177      219 </v>
   <v type="int" >       48      170      171      177      219 </v>
   <v type="int" >       48      170      171      213      219 </v>
   <v type="int" >       24      170      170      176      219 </v>
   <v type="int" >       24      170      170      212      219 </v>
   <v type="int" >       48      170      212      213      219 </v>
   <v type="int" >       48      171      177      178      220 </v>
   <v type="int" >       48      171      172      178      220 </v>
   <v type="int" >       48      171      172      214      220 </v>
   <v type="int" >       48      171      177      219      220 </v>
   <v type="int" >       48      171      213      219      220 </v>
[...]
       <r>   43.0281    0.0000 </r>
       <r>   45.7799    0.0000 </r>
       <r>   52.8261    0.0000 </r>
       <r>   55.5604    0.0000 </r>
      </set>
      <set comment="kpoint 252">
       <r>    3.8186    1.0000 </r>
       <r>    4.4623    1.0000 </r>
       <r>    6.0443    1.0000 </r>
       <r>    8.6585    1.0000 </r>
       <r>   11.1151    0.0000 </r>
       <r>   16.3145    0.0000 </r>
       <r>   19.1180    0.0000 </r>
       <r>   20.2965    0.0000 </r>
       <r>   23.4696    0.0000 </r>
       <r>   34.4670    0.0000 </r>
       <r>   34.7293    0.0000 </r>
       <r>   38.2558    0.0000 </r>
       <r>   42.2276    0.0000 </r>
       <r>   42.2628    0.0000 </r>
       <r>   42.4715    0.0000 </r>
       <r>   44.0123    0.0000 </r>
       <r>   44.1045    0.0000 </r>
       <r>   45.3689    0.0000 </r>
       <r>   49.3936    0.0000 </r>
       <r>   52.3646    0.0000 </r>
      </set>
      <set comment="kpoint 253">
       <r>    3.9299    1.0000 </r>
       <r>    4.8205    1.0000 </r>
       <r>    5.7073    1.0000 </r>
       <r>    8.3637    1.0000 </r>
       <r>   11.2321    0.0000 </r>
       <r>   17.3662    0.0000 </r>
       <r>   18.4455    0.0000 </r>
       <r>   19.9502    0.0000 </r>
       <r>   23.2557    0.0000 </r>
       <r>   34.3337    0.0000 </r>
       <r>   35.5235    0.0000 </r>
       <r>   38.2392    0.0000 </r>
       <r>   42.2544    0.0000 </r>
       <r>   42.2797    0.0000 </r>
       <r>   42.5816    0.0000 </r>
       <r>   43.4029    0.0000 </r>
       <r>   44.0953    0.0000 </r>
       <r>   45.7207    0.0000 </r>
       <r>   48.1145    0.0000 </r>
       <r>   52.6001    0.0000 </r>
      </set>
      <set comment="kpoint 254">
       <r>    4.0373    1.0000 </r>
       <r>    5.1575    1.0000 </r>
       <r>    5.2782    1.0000 </r>
       <r>    8.3151    1.0000 </r>
       <r>   11.1127    0.0000 </r>
       <r>   16.8678    0.0000 </r>
       <r>   19.2347    0.0000 </r>
       <r>   19.6625    0.0000 </r>
       <r>   23.5552    0.0000 </r>
       <r>   34.0979    0.0000 </r>
       <r>   35.2114    0.0000 </r>
       <r>   39.1159    0.0000 </r>
       <r>   42.2541    0.0000 </r>
       <r>   42.2885    0.0000 </r>
       <r>   42.8753    0.0000 </r>
       <r>   43.0268    0.0000 </r>
       <r>   43.4034    0.0000 </r>
       <r>   45.9025    0.0000 </r>
       <r>   48.8325    0.0000 </r>
       <r>   53.8187    0.0000 </r>
      </set>
      <set comment="kpoint 255">
       <r>    3.7286    1.0000 </r>
       <r>    4.4304    1.0000 </r>
       <r>    6.2647    1.0000 </r>
       <r>    8.5621    1.0000 </r>
       <r>   11.3541    0.0000 </r>
       <r>   17.5868    0.0000 </r>
       <r>   18.1185    0.0000 </r>
       <r>   19.9459    0.0000 </r>
       <r>   22.9742    0.0000 </r>
       <r>   34.5686    0.0000 </r>
       <r>   36.2982    0.0000 </r>
       <r>   36.6322    0.0000 </r>
       <r>   42.2349    0.0000 </r>
       <r>   42.4297    0.0000 </r>
       <r>   44.2117    0.0000 </r>
       <r>   44.4893    0.0000 </r>
       <r>   46.4050    0.0000 </r>
       <r>   46.6289    0.0000 </r>
       <r>   52.5110    0.0000 </r>
       <r>   57.0882    0.0000 </r>
      </set>
      <set comment="kpoint 256">
       <r>    3.9494    1.0000 </r>
       <r>    5.2688    1.0000 </r>
       <r>    5.2688    1.0000 </r>
       <r>    8.2558    1.0000 </r>
       <r>   11.3545    0.0000 </r>
       <r>   18.0309    0.0000 </r>
       <r>   18.8844    0.0000 </r>
       <r>   18.8844    0.0000 </r>
       <r>   23.0060    0.0000 </r>
       <r>   35.2510    0.0000 </r>
       <r>   35.2510    0.0000 </r>
       <r>   37.8430    0.0000 </r>
       <r>   42.3005    0.0000 </r>
       <r>   42.3005    0.0000 </r>
       <r>   42.8197    0.0000 </r>
       <r>   43.0530    0.0000 </r>
       <r>   45.5684    0.0000 </r>
       <r>   45.5684    0.0000 </r>
       <r>   46.4030    0.0000 </r>
       <r>   52.7396    0.0000 </r>
      </set>
     </set>
    </set>
   </array>
  </eigenvalues>
  <separator name="orbital magnetization" >
   <v name="MAGDIPOLOUT">      0.00000000      0.00000000      0.00000000</v>
  </separator>
  <dos>
   <i name="efermi">      9.94483606 </i>
   <total>
    <array>
     <dimension dim="1">gridpoints</dimension>
     <dimension dim="2">spin</dimension>
     <field>energy</field>
     <field>total</field>
     <field>integrated</field>
     <set>
      <set comment="spin 1">
       <r>   -10.6730     0.0000     0.0000 </r>
       <r>    -9.9503     0.0000     0.0000 </r>
       <r>    -9.2275     0.0000     0.0000 </r>
       <r>    -8.5047     0.0000     0.0000 </r>
       <r>    -7.7819     0.0000     0.0000 </r>
       <r>    -7.0591     0.0000     0.0000 </r>
       <r>    -6.3364     0.0000     0.0000 </r>
       <r>    -5.6136     0.0000     0.0000 </r>
       <r>    -4.8908     0.0000     0.0000 </r>
       <r>    -4.1680     0.0000     0.0000 </r>
       <r>    -3.4452     0.0000     0.0000 </r>
       <r>    -2.7225     0.0000     0.0000 </r>
       <r>    -1.9997     0.0000     0.0000 </r>
       <r>    -1.2769     0.0000     0.0000 </r>
       <r>    -0.5541     0.0279     0.0041 </r>
       <r>     0.1687     0.0639     0.0381 </r>
       <r>     0.8914     0.0999     0.0968 </r>
       <r>     1.6142     0.1557     0.1868 </r>
       <r>     2.3370     0.5030     0.3855 </r>
       <r>     3.0598     1.1845     0.9808 </r>
       <r>     3.7825     1.1504     1.8796 </r>
       <r>     4.5053     0.7247     2.5702 </r>
       <r>     5.2281     1.2471     3.3694 </r>
       <r>     5.9509     1.3689     4.2837 </r>
       <r>     6.6737     2.4761     5.5086 </r>
       <r>     7.3964     0.9766     6.4210 </r>
       <r>     8.1192     1.2367     7.1411 </r>
       <r>     8.8420     1.0540     7.9874 </r>
       <r>     9.5648     0.9032     8.6510 </r>
       <r>    10.2876     1.1729     9.3555 </r>
       <r>    11.0103     0.9480    10.4009 </r>
       <r>    11.7331     0.2761    10.7516 </r>
       <r>    12.4559     0.2758    10.9495 </r>
       <r>    13.1787     0.2753    11.1495 </r>
       <r>    13.9014     0.2673    11.3461 </r>
       <r>    14.6242     0.2510    11.5340 </r>
       <r>    15.3470     0.2228    11.7055 </r>
       <r>    16.0698     0.2026    11.8614 </r>
       <r>    16.7926     0.4152    12.0155 </r>
       <r>    17.5153     0.3630    12.2878 </r>
       <r>    18.2381     0.3600    12.5257 </r>
       <r>    18.9609     0.3070    12.7674 </r>
       <r>    19.6837     0.2783    12.9800 </r>
       <r>    20.4065     0.2809    13.1877 </r>
       <r>    21.1292     0.3738    13.4101 </r>
       <r>    21.8520     0.4180    13.7044 </r>
       <r>    22.5748     0.3869    13.9853 </r>
       <r>    23.2976     0.4940    14.3002 </r>
       <r>    24.0203     0.5288    14.6559 </r>
       <r>    24.7431     0.6758    15.0892 </r>
       <r>    25.4659     0.7919    15.6739 </r>
       <r>    26.1887     0.6214    16.1940 </r>
       <r>    26.9115     0.7233    16.6737 </r>
       <r>    27.6342     0.5637    17.1811 </r>
       <r>    28.3570     0.2542    17.4534 </r>
       <r>    29.0798     0.3723    17.6561 </r>
       <r>    29.8026     0.5662    18.0227 </r>
       <r>    30.5254     0.7793    18.5383 </r>
       <r>    31.2481     0.7165    19.0911 </r>
       <r>    31.9709     0.5489    19.5628 </r>
       <r>    32.6937     0.2884    19.8672 </r>
       <r>    33.4165     0.2473    20.0548 </r>
       <r>    34.1392     0.4211    20.2909 </r>
       <r>    34.8620     0.5297    20.6584 </r>
       <r>    35.5848     0.5772    21.1086 </r>
       <r>    36.3076     0.4731    21.4770 </r>
       <r>    37.0304     0.5427    21.8514 </r>
       <r>    37.7531     0.6336    22.2822 </r>
       <r>    38.4759     0.9274    22.7978 </r>
       <r>    39.1987     1.4908    23.7394 </r>
       <r>    39.9215     0.7637    24.4307 </r>
       <r>    40.6443     0.5447    24.9140 </r>
       <r>    41.3670     0.7318    25.3379 </r>
       <r>    42.0898     1.7523    26.0476 </r>
       <r>    42.8126     2.8847    31.1121 </r>
       <r>    43.5354     0.8407    32.2942 </r>
       <r>    44.2581     0.8035    32.8607 </r>
       <r>    44.9809     0.5221    33.3613 </r>
       <r>    45.7037     0.5811    33.7260 </r>
       <r>    46.4265     0.6433    34.1458 </r>
       <r>    47.1493     0.7780    34.6458 </r>
       <r>    47.8720     1.1543    35.3867 </r>
       <r>    48.5948     0.6298    36.0072 </r>
       <r>    49.3176     0.8081    36.5267 </r>
       <r>    50.0404     0.7662    37.0944 </r>
       <r>    50.7632     0.5501    37.5600 </r>
       <r>    51.4859     0.4374    37.9253 </r>
       <r>    52.2087     0.6949    38.3342 </r>
       <r>    52.9315     0.7984    38.9263 </r>
       <r>    53.6543     0.5081    39.4476 </r>
       <r>    54.3770     0.2377    39.7083 </r>
       <r>    55.0998     0.1153    39.8297 </r>
       <r>    55.8226     0.0640    39.8927 </r>
       <r>    56.5454     0.0377    39.9281 </r>
       <r>    57.2682     0.0219    39.9501 </r>
       <r>    57.9909     0.0089    39.9597 </r>
       <r>    58.7137     0.0058    39.9650 </r>
       <r>    59.4365     0.0042    39.9685 </r>
       <r>    60.1593     0.0034    39.9712 </r>
       <r>    60.8821     0.0028    39.9734 </r>
       <r>    61.6048     0.0024    39.9753 </r>
       <r>    62.3276     0.0020    39.9769 </r>
       <r>    63.0504     0.0017    39.9782 </r>
       <r>    63.7732     0.0014    39.9793 </r>
       <r>    64.4959     0.0011    39.9802 </r>
       <r>    65.2187     0.0009    39.9809 </r>
       <r>    65.9415     0.0007    39.9815 </r>
       <r>    66.6643     0.0006    39.9820 </r>
       <r>    67.3871     0.0005    39.9823 </r>
       <r>    68.1098     0.0004    39.9826 </r>
       <r>    68.8326     0.0004    39.9829 </r>
       <r>    69.5554     0.0004    39.9832 </r>
       <r>    70.2782     0.0004    39.9835 </r>
       <r>    71.0010     0.0004    39.9838 </r>
       <r>    71.7237     0.0004    39.9841 </r>
       <r>    72.4465     0.0004    39.9844 </r>
       <r>    73.1693     0.0004    39.9846 </r>
       <r>    73.8921     0.0004    39.9849 </r>
       <r>    74.6148     0.0004    39.9852 </r>
       <r>    75.3376     0.0004    39.9854 </r>
       <r>    76.0604     0.0004    39.9857 </r>
       <r>    76.7832     0.0004    39.9859 </r>
       <r>    77.5060     0.0003    39.9862 </r>
       <r>    78.2287     0.0003    39.9864 </r>
       <r>    78.9515     0.0003    39.9867 </r>
       <r>    79.6743     0.0003    39.9869 </r>
       <r>    80.3971     0.0003    39.9872 </r>
       <r>    81.1199     0.0003    39.9874 </r>
       <r>    81.8426     0.0003    39.9876 </r>
       <r>    82.5654     0.0003    39.9879 </r>
       <r>    83.2882     0.0003    39.9881 </r>
       <r>    84.0110     0.0003    39.9883 </r>
       <r>    84.7338     0.0003    39.9886 </r>
       <r>    85.4565     0.0003    39.9888 </r>
       <r>    86.1793     0.0003    39.9890 </r>
       <r>    86.9021     0.0003    39.9892 </r>
       <r>    87.6249     0.0003    39.9894 </r>
       <r>    88.3476     0.0003    39.9896 </r>
       <r>    89.0704     0.0003    39.9898 </r>
       <r>    89.7932     0.0003    39.9900 </r>
       <r>    90.5160     0.0003    39.9902 </r>
       <r>    91.2388     0.0003    39.9904 </r>
       <r>    91.9615     0.0003    39.9906 </r>
       <r>    92.6843     0.0003    39.9908 </r>
       <r>    93.4071     0.0003    39.9910 </r>
       <r>    94.1299     0.0003    39.9912 </r>
       <r>    94.8527     0.0003    39.9914 </r>
       <r>    95.5754     0.0003    39.9916 </r>
       <r>    96.2982     0.0002    39.9918 </r>
       <r>    97.0210     0.0002    39.9919 </r>
       <r>    97.7438     0.0002    39.9921 </r>
       <r>    98.4665     0.0002    39.9923 </r>
       <r>    99.1893     0.0002    39.9925 </r>
       <r>    99.9121     0.0002    39.9926 </r>
       <r>   100.6349     0.0002    39.9928 </r>
       <r>   101.3577     0.0002    39.9930 </r>
       <r>   102.0804     0.0002    39.9931 </r>
       <r>   102.8032     0.0002    39.9933 </r>
       <r>   103.5260     0.0002    39.9934 </r>
       <r>   104.2488     0.0002    39.9936 </r>
       <r>   104.9716     0.0002    39.9937 </r>
       <r>   105.6943     0.0002    39.9939 </r>
       <r>   106.4171     0.0002    39.9940 </r>
       <r>   107.1399     0.0002    39.9942 </r>
       <r>   107.8627     0.0002    39.9943 </r>
       <r>   108.5854     0.0002    39.9944 </r>
       <r>   109.3082     0.0002    39.9946 </r>
       <r>   110.0310     0.0002    39.9947 </r>
       <r>   110.7538     0.0002    39.9948 </r>
       <r>   111.4766     0.0002    39.9950 </r>
       <r>   112.1993     0.0002    39.9951 </r>
       <r>   112.9221     0.0002    39.9952 </r>
       <r>   113.6449     0.0002    39.9953 </r>
       <r>   114.3677     0.0002    39.9955 </r>
       <r>   115.0905     0.0002    39.9956 </r>
       <r>   115.8132     0.0002    39.9957 </r>
       <r>   116.5360     0.0002    39.9958 </r>
       <r>   117.2588     0.0002    39.9959 </r>
       <r>   117.9816     0.0002    39.9960 </r>
       <r>   118.7043     0.0001    39.9962 </r>
       <r>   119.4271     0.0001    39.9963 </r>
       <r>   120.1499     0.0001    39.9964 </r>
       <r>   120.8727     0.0001    39.9965 </r>
       <r>   121.5955     0.0001    39.9966 </r>
       <r>   122.3182     0.0001    39.9967 </r>
       <r>   123.0410     0.0001    39.9968 </r>
       <r>   123.7638     0.0001    39.9969 </r>
       <r>   124.4866     0.0001    39.9969 </r>
       <r>   125.2094     0.0001    39.9970 </r>
       <r>   125.9321     0.0001    39.9971 </r>
       <r>   126.6549     0.0001    39.9972 </r>
       <r>   127.3777     0.0001    39.9973 </r>
       <r>   128.1005     0.0001    39.9974 </r>
       <r>   128.8232     0.0001    39.9975 </r>
       <r>   129.5460     0.0001    39.9975 </r>
       <r>   130.2688     0.0001    39.9976 </r>
       <r>   130.9916     0.0001    39.9977 </r>
       <r>   131.7144     0.0001    39.9978 </r>
       <r>   132.4371     0.0001    39.9979 </r>
       <r>   133.1599     0.0001    39.9979 </r>
       <r>   133.8827     0.0001    39.9980 </r>
       <r>   134.6055     0.0001    39.9981 </r>
       <r>   135.3283     0.0001    39.9981 </r>
       <r>   136.0510     0.0001    39.9982 </r>
       <r>   136.7738     0.0001    39.9983 </r>
       <r>   137.4966     0.0001    39.9983 </r>
       <r>   138.2194     0.0001    39.9984 </r>
       <r>   138.9421     0.0001    39.9984 </r>
       <r>   139.6649     0.0001    39.9985 </r>
       <r>   140.3877     0.0001    39.9986 </r>
       <r>   141.1105     0.0001    39.9986 </r>
       <r>   141.8333     0.0001    39.9987 </r>
       <r>   142.5560     0.0001    39.9987 </r>
       <r>   143.2788     0.0001    39.9988 </r>
       <r>   144.0016     0.0001    39.9988 </r>
       <r>   144.7244     0.0001    39.9989 </r>
       <r>   145.4472     0.0001    39.9989 </r>
       <r>   146.1699     0.0001    39.9990 </r>
       <r>   146.8927     0.0001    39.9990 </r>
       <r>   147.6155     0.0001    39.9990 </r>
       <r>   148.3383     0.0001    39.9991 </r>
       <r>   149.0610     0.0001    39.9991 </r>
       <r>   149.7838     0.0001    39.9992 </r>
       <r>   150.5066     0.0001    39.9992 </r>
       <r>   151.2294     0.0001    39.9992 </r>
       <r>   151.9522     0.0000    39.9993 </r>
       <r>   152.6749     0.0000    39.9993 </r>
       <r>   153.3977     0.0000    39.9993 </r>
       <r>   154.1205     0.0000    39.9994 </r>
       <r>   154.8433     0.0000    39.9994 </r>
       <r>   155.5661     0.0000    39.9994 </r>
       <r>   156.2888     0.0000    39.9995 </r>
       <r>   157.0116     0.0000    39.9995 </r>
       <r>   157.7344     0.0000    39.9995 </r>
       <r>   158.4572     0.0000    39.9996 </r>
       <r>   159.1800     0.0000    39.9996 </r>
       <r>   159.9027     0.0000    39.9996 </r>
       <r>   160.6255     0.0000    39.9996 </r>
       <r>   161.3483     0.0000    39.9996 </r>
       <r>   162.0711     0.0000    39.9997 </r>
       <r>   162.7938     0.0000    39.9997 </r>
       <r>   163.5166     0.0000    39.9997 </r>
       <r>   164.2394     0.0000    39.9997 </r>
       <r>   164.9622     0.0000    39.9997 </r>
       <r>   165.6850     0.0000    39.9998 </r>
       <r>   166.4077     0.0000    39.9998 </r>
       <r>   167.1305     0.0000    39.9998 </r>
       <r>   167.8533     0.0000    39.9998 </r>
       <r>   168.5761     0.0000    39.9998 </r>
       <r>   169.2989     0.0000    39.9998 </r>
       <r>   170.0216     0.0000    39.9999 </r>
       <r>   170.7444     0.0000    39.9999 </r>
       <r>   171.4672     0.0000    39.9999 </r>
       <r>   172.1900     0.0000    39.9999 </r>
       <r>   172.9127     0.0000    39.9999 </r>
       <r>   173.6355     0.0000    39.9999 </r>
       <r>   174.3583     0.0000    39.9999 </r>
       <r>   175.0811     0.0000    39.9999 </r>
       <r>   175.8039     0.0000    39.9999 </r>
       <r>   176.5266     0.0000    39.9999 </r>
       <r>   177.2494     0.0000    39.9999 </r>
       <r>   177.9722     0.0000    39.9999 </r>
       <r>   178.6950     0.0000    40.0000 </r>
       <r>   179.4178     0.0000    40.0000 </r>
       <r>   180.1405     0.0000    40.0000 </r>
       <r>   180.8633     0.0000    40.0000 </r>
       <r>   181.5861     0.0000    40.0000 </r>
       <r>   182.3089     0.0000    40.0000 </r>
       <r>   183.0316     0.0000    40.0000 </r>
       <r>   183.7544     0.0000    40.0000 </r>
       <r>   184.4772     0.0000    40.0000 </r>
       <r>   185.2000     0.0000    40.0000 </r>
       <r>   185.9228     0.0000    40.0000 </r>
       <r>   186.6455     0.0000    40.0000 </r>
       <r>   187.3683     0.0000    40.0000 </r>
       <r>   188.0911     0.0000    40.0000 </r>
       <r>   188.8139     0.0000    40.0000 </r>
       <r>   189.5367     0.0000    40.0000 </r>
       <r>   190.2594     0.0000    40.0000 </r>
       <r>   190.9822     0.0000    40.0000 </r>
       <r>   191.7050     0.0000    40.0000 </r>
       <r>   192.4278     0.0000    40.0000 </r>
       <r>   193.1505     0.0000    40.0000 </r>
       <r>   193.8733     0.0000    40.0000 </r>
       <r>   194.5961     0.0000    40.0000 </r>
       <r>   195.3189     0.0000    40.0000 </r>
       <r>   196.0417     0.0000    40.0000 </r>
       <r>   196.7644     0.0000    40.0000 </r>
       <r>   197.4872     0.0000    40.0000 </r>
       <r>   198.2100     0.0000    40.0000 </r>
       <r>   198.9328     0.0000    40.0000 </r>
       <r>   199.6556     0.0000    40.0000 </r>
       <r>   200.3783     0.0000    40.0000 </r>
       <r>   201.1011     0.0000    40.0000 </r>
       <r>   201.8239     0.0000    40.0000 </r>
       <r>   202.5467     0.0000    40.0000 </r>
       <r>   203.2694     0.0000    40.0000 </r>
       <r>   203.9922     0.0000    40.0000 </r>
       <r>   204.7150     0.0000    40.0000 </r>
       <r>   205.4378     0.0000    40.0000 </r>
       <r>   206.1606     0.0000    40.0000 </r>
      </set>
     </set>
    </array>
   </total>
  </dos>
 </calculation>
 <structure name="finalpos" >
  <crystal>
   <varray name="basis" >
    <v>       0.00000000       1.93655742       1.93655742 </v>
    <v>       1.93655742       0.00000000       1.93655742 </v>
    <v>       1.93655742       1.93655742       0.00000000 </v>
   </varray>
   <i name="volume">     14.52516697 </i>
   <varray name="rec_basis" >
    <v>      -0.25819012       0.25819012       0.25819012 </v>
    <v>       0.25819012      -0.25819012       0.25819012 </v>
    <v>       0.25819012       0.25819012      -0.25819012 </v>
   </varray>
  </crystal>
  <varray name="positions" >
   <v>       0.00000000       0.00000000       0.00000000 </v>
  </varray>
 </structure>
</modeling>
