 256 256   0   0
  0.1418917E+02  0.1588033E-08  0.1692661E-08  0.1693229E-08  0.5000000E-15
  1.000000000000000E-004
  CAR 
 Ir_Ru                                   
     14.26918527     -1.29194009  301      9.45693189      1.00000000
     -1.292  0.0000E+00  0.0000E+00
     -1.240  0.0000E+00  0.0000E+00
     -1.188  0.0000E+00  0.0000E+00
     -1.136 -0.2766E-30 -0.1435E-31
     -1.084 -0.1264E-26 -0.6557E-28
     -1.033 -0.3358E-23 -0.1743E-24
     -0.981 -0.5183E-20 -0.2690E-21
     -0.929 -0.4644E-17 -0.2412E-18
     -0.877 -0.2354E-14 -0.1223E-15
     -0.825 -0.7014E-12 -0.3650E-13
     -0.773 -0.1211E-09 -0.6319E-11
     -0.721 -0.1204E-07 -0.6308E-09
     -0.669 -0.6860E-06 -0.3621E-07
     -0.618 -0.2228E-04 -0.1192E-05
     -0.566 -0.4094E-03 -0.2243E-04
     -0.514 -0.4217E-02 -0.2411E-03
     -0.462 -0.2408E-01 -0.1490E-02
     -0.410 -0.7478E-01 -0.5369E-02
     -0.358 -0.1023E+00 -0.1068E-01
     -0.306  0.2006E+00 -0.2694E-03
     -0.255  0.1622E+01  0.8388E-01
     -0.203  0.4376E+01  0.3109E+00
     -0.151  0.6347E+01  0.6401E+00
     -0.099  0.6424E+01  0.9733E+00
     -0.047  0.6950E+01  0.1334E+01
      0.005  0.8839E+01  0.1792E+01
      0.057  0.1116E+02  0.2371E+01
      0.109  0.1359E+02  0.3076E+01
      0.160  0.1435E+02  0.3820E+01
      0.212  0.1174E+02  0.4429E+01
      0.264  0.1006E+02  0.4951E+01
      0.316  0.1420E+02  0.5687E+01
      0.368  0.2029E+02  0.6740E+01
      0.420  0.2251E+02  0.7907E+01
      0.472  0.2269E+02  0.9084E+01
      0.524  0.2350E+02  0.1030E+02
      0.575  0.2256E+02  0.1147E+02
      0.627  0.2046E+02  0.1253E+02
      0.679  0.2098E+02  0.1362E+02
      0.731  0.2043E+02  0.1468E+02
      0.783  0.1471E+02  0.1545E+02
      0.835  0.8928E+01  0.1591E+02
      0.887  0.7998E+01  0.1632E+02
      0.938  0.1161E+02  0.1693E+02
      0.990  0.1874E+02  0.1790E+02
      1.042  0.2769E+02  0.1933E+02
      1.094  0.3332E+02  0.2106E+02
      1.146  0.3314E+02  0.2278E+02
      1.198  0.2894E+02  0.2428E+02
      1.250  0.2295E+02  0.2547E+02
      1.302  0.1950E+02  0.2648E+02
      1.353  0.2158E+02  0.2760E+02
      1.405  0.2705E+02  0.2901E+02
      1.457  0.3032E+02  0.3058E+02
      1.509  0.2986E+02  0.3213E+02
      1.561  0.2931E+02  0.3365E+02
      1.613  0.3036E+02  0.3522E+02
      1.665  0.3111E+02  0.3684E+02
      1.717  0.3198E+02  0.3850E+02
      1.768  0.3489E+02  0.4031E+02
      1.820  0.3891E+02  0.4232E+02
      1.872  0.4522E+02  0.4467E+02
      1.924  0.5440E+02  0.4749E+02
      1.976  0.5936E+02  0.5057E+02
      2.028  0.5501E+02  0.5342E+02
      2.080  0.5051E+02  0.5604E+02
      2.132  0.6101E+02  0.5921E+02
      2.183  0.8609E+02  0.6367E+02
      2.235  0.1083E+03  0.6929E+02
      2.287  0.1195E+03  0.7549E+02
      2.339  0.1256E+03  0.8200E+02
      2.391  0.1313E+03  0.8881E+02
      2.443  0.1373E+03  0.9593E+02
      2.495  0.1466E+03  0.1035E+03
      2.546  0.1636E+03  0.1120E+03
      2.598  0.1823E+03  0.1215E+03
      2.650  0.1946E+03  0.1316E+03
      2.702  0.2063E+03  0.1423E+03
      2.754  0.2232E+03  0.1539E+03
      2.806  0.2309E+03  0.1658E+03
      2.858  0.2248E+03  0.1775E+03
      2.910  0.2273E+03  0.1893E+03
      2.961  0.2446E+03  0.2020E+03
      3.013  0.2577E+03  0.2153E+03
      3.065  0.2599E+03  0.2288E+03
      3.117  0.2604E+03  0.2423E+03
      3.169  0.2638E+03  0.2560E+03
      3.221  0.2726E+03  0.2701E+03
      3.273  0.2875E+03  0.2851E+03
      3.325  0.3066E+03  0.3010E+03
      3.376  0.3238E+03  0.3177E+03
      3.428  0.3306E+03  0.3349E+03
      3.480  0.3280E+03  0.3519E+03
      3.532  0.3216E+03  0.3686E+03
      3.584  0.3182E+03  0.3851E+03
      3.636  0.3165E+03  0.4015E+03
      3.688  0.3111E+03  0.4176E+03
      3.739  0.3053E+03  0.4335E+03
      3.791  0.3014E+03  0.4491E+03
      3.843  0.2970E+03  0.4645E+03
      3.895  0.2933E+03  0.4797E+03
      3.947  0.2889E+03  0.4947E+03
      3.999  0.2769E+03  0.5091E+03
      4.051  0.2667E+03  0.5229E+03
      4.103  0.2748E+03  0.5372E+03
      4.154  0.2933E+03  0.5524E+03
      4.206  0.3025E+03  0.5681E+03
      4.258  0.3049E+03  0.5839E+03
      4.310  0.3119E+03  0.6001E+03
      4.362  0.3187E+03  0.6166E+03
      4.414  0.3212E+03  0.6333E+03
      4.466  0.3234E+03  0.6500E+03
      4.518  0.3212E+03  0.6667E+03
      4.569  0.3102E+03  0.6828E+03
      4.621  0.2978E+03  0.6982E+03
      4.673  0.2935E+03  0.7135E+03
      4.725  0.2978E+03  0.7289E+03
      4.777  0.3054E+03  0.7448E+03
      4.829  0.3171E+03  0.7612E+03
      4.881  0.3308E+03  0.7784E+03
      4.933  0.3375E+03  0.7959E+03
      4.984  0.3445E+03  0.8137E+03
      5.036  0.3575E+03  0.8323E+03
      5.088  0.3653E+03  0.8512E+03
      5.140  0.3643E+03  0.8701E+03
      5.192  0.3556E+03  0.8886E+03
      5.244  0.3360E+03  0.9060E+03
      5.296  0.3044E+03  0.9218E+03
      5.347  0.2638E+03  0.9355E+03
      5.399  0.2205E+03  0.9469E+03
      5.451  0.1859E+03  0.9566E+03
      5.503  0.1726E+03  0.9655E+03
      5.555  0.1878E+03  0.9753E+03
      5.607  0.2251E+03  0.9869E+03
      5.659  0.2731E+03  0.1001E+04
      5.711  0.3232E+03  0.1018E+04
      5.762  0.3658E+03  0.1037E+04
      5.814  0.3940E+03  0.1057E+04
      5.866  0.4097E+03  0.1079E+04
      5.918  0.4188E+03  0.1100E+04
      5.970  0.4254E+03  0.1122E+04
      6.022  0.4281E+03  0.1145E+04
      6.074  0.4172E+03  0.1166E+04
      6.126  0.3933E+03  0.1187E+04
      6.177  0.3727E+03  0.1206E+04
      6.229  0.3617E+03  0.1225E+04
      6.281  0.3557E+03  0.1243E+04
      6.333  0.3562E+03  0.1262E+04
      6.385  0.3683E+03  0.1281E+04
      6.437  0.3815E+03  0.1300E+04
      6.489  0.3842E+03  0.1320E+04
      6.540  0.3908E+03  0.1341E+04
      6.592  0.4087E+03  0.1362E+04
      6.644  0.4233E+03  0.1384E+04
      6.696  0.4280E+03  0.1406E+04
      6.748  0.4256E+03  0.1428E+04
      6.800  0.4143E+03  0.1450E+04
      6.852  0.3936E+03  0.1470E+04
      6.904  0.3744E+03  0.1489E+04
      6.955  0.3670E+03  0.1508E+04
      7.007  0.3640E+03  0.1527E+04
      7.059  0.3671E+03  0.1546E+04
      7.111  0.3891E+03  0.1567E+04
      7.163  0.4136E+03  0.1588E+04
      7.215  0.4221E+03  0.1610E+04
      7.267  0.4225E+03  0.1632E+04
      7.319  0.4145E+03  0.1653E+04
      7.370  0.3901E+03  0.1674E+04
      7.422  0.3606E+03  0.1692E+04
      7.474  0.3411E+03  0.1710E+04
      7.526  0.3329E+03  0.1727E+04
      7.578  0.3291E+03  0.1744E+04
      7.630  0.3183E+03  0.1761E+04
      7.682  0.2974E+03  0.1776E+04
      7.734  0.2785E+03  0.1791E+04
      7.785  0.2690E+03  0.1805E+04
      7.837  0.2638E+03  0.1818E+04
      7.889  0.2580E+03  0.1832E+04
      7.941  0.2491E+03  0.1845E+04
      7.993  0.2429E+03  0.1857E+04
      8.045  0.2432E+03  0.1870E+04
      8.097  0.2399E+03  0.1882E+04
      8.148  0.2320E+03  0.1894E+04
      8.200  0.2289E+03  0.1906E+04
      8.252  0.2329E+03  0.1918E+04
      8.304  0.2374E+03  0.1931E+04
      8.356  0.2391E+03  0.1943E+04
      8.408  0.2374E+03  0.1955E+04
      8.460  0.2297E+03  0.1967E+04
      8.512  0.2192E+03  0.1979E+04
      8.563  0.2123E+03  0.1990E+04
      8.615  0.2074E+03  0.2000E+04
      8.667  0.2005E+03  0.2011E+04
      8.719  0.1923E+03  0.2021E+04
      8.771  0.1838E+03  0.2030E+04
      8.823  0.1793E+03  0.2040E+04
      8.875  0.1868E+03  0.2049E+04
      8.927  0.2107E+03  0.2060E+04
      8.978  0.2343E+03  0.2072E+04
      9.030  0.2370E+03  0.2085E+04
      9.082  0.2249E+03  0.2096E+04
      9.134  0.2081E+03  0.2107E+04
      9.186  0.1885E+03  0.2117E+04
      9.238  0.1786E+03  0.2126E+04
      9.290  0.1950E+03  0.2136E+04
      9.341  0.2261E+03  0.2148E+04
      9.393  0.2425E+03  0.2161E+04
      9.445  0.2429E+03  0.2173E+04
      9.497  0.2447E+03  0.2186E+04
      9.549  0.2448E+03  0.2199E+04
      9.601  0.2454E+03  0.2211E+04
      9.653  0.2709E+03  0.2225E+04
      9.705  0.3143E+03  0.2242E+04
      9.756  0.3354E+03  0.2259E+04
      9.808  0.3276E+03  0.2276E+04
      9.860  0.3171E+03  0.2292E+04
      9.912  0.3150E+03  0.2309E+04
      9.964  0.3206E+03  0.2325E+04
     10.016  0.3404E+03  0.2343E+04
     10.068  0.3764E+03  0.2363E+04
     10.120  0.4106E+03  0.2384E+04
     10.171  0.4276E+03  0.2406E+04
     10.223  0.4355E+03  0.2429E+04
     10.275  0.4473E+03  0.2452E+04
     10.327  0.4651E+03  0.2476E+04
     10.379  0.4833E+03  0.2501E+04
     10.431  0.4940E+03  0.2527E+04
     10.483  0.4879E+03  0.2552E+04
     10.535  0.4536E+03  0.2576E+04
     10.586  0.3960E+03  0.2596E+04
     10.638  0.3298E+03  0.2613E+04
     10.690  0.2504E+03  0.2626E+04
     10.742  0.1520E+03  0.2634E+04
     10.794  0.6015E+02  0.2637E+04
     10.846  0.7924E+01  0.2638E+04
     10.898 -0.5067E+01  0.2637E+04
     10.949 -0.3046E+01  0.2637E+04
     11.001 -0.7988E+00  0.2637E+04
     11.053 -0.1318E+00  0.2637E+04
     11.105 -0.1528E-01  0.2637E+04
     11.157 -0.1228E-02  0.2637E+04
     11.209 -0.6361E-04  0.2637E+04
     11.261 -0.2007E-05  0.2637E+04
     11.313 -0.3751E-07  0.2637E+04
     11.364 -0.4102E-09  0.2637E+04
     11.416 -0.2644E-11  0.2637E+04
     11.468 -0.7973E-11  0.2637E+04
     11.520 -0.1160E-08  0.2637E+04
     11.572 -0.9745E-07  0.2637E+04
     11.624 -0.4707E-05  0.2637E+04
     11.676 -0.1299E-03  0.2637E+04
     11.728 -0.2022E-02  0.2637E+04
     11.779 -0.1722E-01  0.2637E+04
     11.831 -0.7315E-01  0.2637E+04
     11.883 -0.9315E-01  0.2637E+04
     11.935  0.3663E+00  0.2637E+04
     11.987  0.1602E+01  0.2637E+04
     12.039  0.2584E+01  0.2637E+04
     12.091  0.2229E+01  0.2637E+04
     12.142  0.1214E+01  0.2638E+04
     12.194  0.6298E+00  0.2638E+04
     12.246  0.1249E+01  0.2638E+04
     12.298  0.2841E+01  0.2638E+04
     12.350  0.3827E+01  0.2638E+04
     12.402  0.3645E+01  0.2638E+04
     12.454  0.2815E+01  0.2638E+04
     12.506  0.1750E+01  0.2638E+04
     12.557  0.1433E+01  0.2638E+04
     12.609  0.2158E+01  0.2639E+04
     12.661  0.3394E+01  0.2639E+04
     12.713  0.4433E+01  0.2639E+04
     12.765  0.4006E+01  0.2639E+04
     12.817  0.2751E+01  0.2639E+04
     12.869  0.2341E+01  0.2639E+04
     12.921  0.2209E+01  0.2640E+04
     12.972  0.1609E+01  0.2640E+04
     13.024  0.1139E+01  0.2640E+04
     13.076  0.8973E+00  0.2640E+04
     13.128  0.7157E+00  0.2640E+04
     13.180  0.8997E+00  0.2640E+04
     13.232  0.1220E+01  0.2640E+04
     13.284  0.1174E+01  0.2640E+04
     13.336  0.6834E+00  0.2640E+04
     13.387  0.1500E+00  0.2640E+04
     13.439 -0.4698E-01  0.2640E+04
     13.491 -0.3318E-01  0.2640E+04
     13.543 -0.7208E-02  0.2640E+04
     13.595 -0.7612E-03  0.2640E+04
     13.647 -0.4299E-04  0.2640E+04
     13.699 -0.1347E-05  0.2640E+04
     13.750 -0.2386E-07  0.2640E+04
     13.802 -0.2411E-09  0.2640E+04
     13.854 -0.1399E-11  0.2640E+04
     13.906 -0.4756E-14  0.2640E+04
     13.958  0.0000E+00  0.2640E+04
     14.010  0.0000E+00  0.2640E+04
     14.062  0.0000E+00  0.2640E+04
     14.114  0.0000E+00  0.2640E+04
     14.165  0.0000E+00  0.2640E+04
     14.217  0.0000E+00  0.2640E+04
     14.269  0.0000E+00  0.2640E+04
