  32  32   0   0
  0.1418918E+02  0.8461973E-09  0.8463306E-09  0.8466145E-09  0.5000000E-15
  1.000000000000000E-004
  CAR 
 Ir_Ru                                   
     16.60332488     -1.29138552  301      9.45827532      1.00000000
     -1.291  0.0000E+00  0.0000E+00
     -1.232  0.0000E+00  0.0000E+00
     -1.172  0.0000E+00  0.0000E+00
     -1.112  0.0000E+00  0.0000E+00
     -1.053  0.0000E+00  0.0000E+00
     -0.993  0.0000E+00  0.0000E+00
     -0.933  0.0000E+00  0.0000E+00
     -0.874  0.0000E+00  0.0000E+00
     -0.814  0.0000E+00  0.0000E+00
     -0.755  0.0000E+00  0.0000E+00
     -0.695  0.0000E+00  0.0000E+00
     -0.635  0.0000E+00  0.0000E+00
     -0.576  0.0000E+00  0.0000E+00
     -0.516  0.0000E+00  0.0000E+00
     -0.456  0.0000E+00  0.0000E+00
     -0.397  0.0000E+00  0.0000E+00
     -0.337  0.0000E+00  0.0000E+00
     -0.277  0.1486E-01  0.6951E-04
     -0.218  0.4096E+00  0.1006E-01
     -0.158  0.6358E+00  0.4608E-01
     -0.098  0.8788E+00  0.9085E-01
     -0.039  0.1076E+01  0.1504E+00
      0.021  0.1198E+01  0.2185E+00
      0.081  0.1347E+01  0.2941E+00
      0.140  0.1527E+01  0.3799E+00
      0.200  0.1725E+01  0.4772E+00
      0.259  0.1909E+01  0.5854E+00
      0.319  0.2224E+01  0.7070E+00
      0.379  0.2679E+01  0.8536E+00
      0.438  0.2938E+01  0.1022E+01
      0.498  0.3265E+01  0.1208E+01
      0.558  0.3650E+01  0.1414E+01
      0.617  0.3288E+01  0.1626E+01
      0.677  0.2529E+01  0.1800E+01
      0.737  0.1610E+01  0.1922E+01
      0.796  0.5219E+00  0.1986E+01
      0.856  0.3205E+00  0.2008E+01
      0.916  0.3946E+00  0.2027E+01
      0.975  0.1540E+01  0.2078E+01
      1.035  0.4461E+01  0.2258E+01
      1.095  0.5304E+01  0.2571E+01
      1.154  0.4334E+01  0.2858E+01
      1.214  0.3376E+01  0.3091E+01
      1.274  0.2511E+01  0.3264E+01
      1.333  0.2340E+01  0.3404E+01
      1.393  0.2746E+01  0.3554E+01
      1.452  0.3538E+01  0.3738E+01
      1.512  0.4225E+01  0.3980E+01
      1.572  0.4080E+01  0.4228E+01
      1.631  0.4159E+01  0.4470E+01
      1.691  0.4285E+01  0.4724E+01
      1.751  0.4210E+01  0.4972E+01
      1.810  0.5598E+01  0.5248E+01
      1.870  0.6158E+01  0.5579E+01
      1.930  0.7437E+01  0.6001E+01
      1.989  0.7033E+01  0.6433E+01
      2.049  0.7250E+01  0.6848E+01
      2.109  0.7156E+01  0.7284E+01
      2.168  0.1055E+02  0.7789E+01
      2.228  0.1293E+02  0.8546E+01
      2.288  0.1631E+02  0.9484E+01
      2.347  0.1640E+02  0.1040E+02
      2.407  0.1610E+02  0.1140E+02
      2.467  0.1774E+02  0.1238E+02
      2.526  0.2176E+02  0.1354E+02
      2.586  0.2445E+02  0.1491E+02
      2.645  0.2328E+02  0.1639E+02
      2.705  0.2821E+02  0.1787E+02
      2.765  0.3161E+02  0.1953E+02
      2.824  0.2606E+02  0.2133E+02
      2.884  0.2679E+02  0.2291E+02
      2.944  0.3199E+02  0.2464E+02
      3.003  0.2425E+02  0.2659E+02
      3.063  0.2754E+02  0.2853E+02
      3.123  0.3507E+02  0.3053E+02
      3.182  0.3367E+02  0.3234E+02
      3.242  0.3840E+02  0.3445E+02
      3.302  0.3768E+02  0.3663E+02
      3.361  0.3891E+02  0.3905E+02
      3.421  0.3972E+02  0.4149E+02
      3.481  0.4229E+02  0.4392E+02
      3.540  0.4117E+02  0.4634E+02
      3.600  0.3889E+02  0.4872E+02
      3.659  0.3904E+02  0.5101E+02
      3.719  0.3975E+02  0.5334E+02
      3.779  0.3678E+02  0.5567E+02
      3.838  0.3717E+02  0.5783E+02
      3.898  0.3806E+02  0.6011E+02
      3.958  0.3441E+02  0.6225E+02
      4.017  0.3490E+02  0.6428E+02
      4.077  0.3347E+02  0.6630E+02
      4.137  0.3697E+02  0.6839E+02
      4.196  0.3929E+02  0.7069E+02
      4.256  0.3685E+02  0.7293E+02
      4.316  0.3829E+02  0.7509E+02
      4.375  0.4022E+02  0.7755E+02
      4.435  0.4243E+02  0.8004E+02
      4.495  0.4223E+02  0.8246E+02
      4.554  0.3701E+02  0.8478E+02
      4.614  0.3577E+02  0.8696E+02
      4.674  0.3724E+02  0.8908E+02
      4.733  0.3614E+02  0.9119E+02
      4.793  0.4048E+02  0.9344E+02
      4.852  0.4460E+02  0.9604E+02
      4.912  0.4403E+02  0.9871E+02
      4.972  0.4407E+02  0.1013E+03
      5.031  0.4273E+02  0.1040E+03
      5.091  0.4467E+02  0.1065E+03
      5.151  0.4341E+02  0.1091E+03
      5.210  0.3921E+02  0.1116E+03
      5.270  0.4106E+02  0.1140E+03
      5.330  0.3261E+02  0.1163E+03
      5.389  0.2666E+02  0.1182E+03
      5.449  0.2622E+02  0.1197E+03
      5.509  0.2354E+02  0.1211E+03
      5.568  0.2248E+02  0.1224E+03
      5.628  0.3319E+02  0.1240E+03
      5.688  0.4158E+02  0.1262E+03
      5.747  0.4418E+02  0.1288E+03
      5.807  0.4984E+02  0.1318E+03
      5.866  0.4983E+02  0.1348E+03
      5.926  0.6162E+02  0.1379E+03
      5.986  0.5678E+02  0.1410E+03
      6.045  0.6008E+02  0.1442E+03
      6.105  0.4694E+02  0.1473E+03
      6.165  0.4654E+02  0.1501E+03
      6.224  0.4267E+02  0.1528E+03
      6.284  0.4388E+02  0.1555E+03
      6.344  0.4710E+02  0.1582E+03
      6.403  0.4806E+02  0.1610E+03
      6.463  0.4688E+02  0.1638E+03
      6.523  0.5087E+02  0.1667E+03
      6.582  0.4896E+02  0.1698E+03
      6.642  0.5202E+02  0.1728E+03
      6.702  0.5245E+02  0.1759E+03
      6.761  0.5290E+02  0.1791E+03
      6.821  0.5139E+02  0.1821E+03
      6.881  0.4541E+02  0.1851E+03
      6.940  0.4399E+02  0.1878E+03
      7.000  0.4611E+02  0.1905E+03
      7.059  0.5003E+02  0.1934E+03
      7.119  0.4937E+02  0.1963E+03
      7.179  0.4901E+02  0.1993E+03
      7.238  0.4941E+02  0.2024E+03
      7.298  0.5240E+02  0.2055E+03
      7.358  0.4531E+02  0.2085E+03
      7.417  0.4518E+02  0.2112E+03
      7.477  0.4659E+02  0.2139E+03
      7.537  0.3793E+02  0.2164E+03
      7.596  0.3489E+02  0.2187E+03
      7.656  0.3560E+02  0.2209E+03
      7.716  0.3408E+02  0.2230E+03
      7.775  0.3485E+02  0.2251E+03
      7.835  0.3045E+02  0.2270E+03
      7.895  0.3143E+02  0.2289E+03
      7.954  0.3215E+02  0.2308E+03
      8.014  0.3227E+02  0.2327E+03
      8.074  0.3130E+02  0.2346E+03
      8.133  0.2961E+02  0.2364E+03
      8.193  0.2783E+02  0.2381E+03
      8.252  0.2945E+02  0.2398E+03
      8.312  0.3175E+02  0.2416E+03
      8.372  0.2959E+02  0.2435E+03
      8.431  0.2800E+02  0.2452E+03
      8.491  0.2482E+02  0.2467E+03
      8.551  0.2477E+02  0.2482E+03
      8.610  0.2422E+02  0.2496E+03
      8.670  0.2762E+02  0.2511E+03
      8.730  0.2874E+02  0.2528E+03
      8.789  0.2605E+02  0.2544E+03
      8.849  0.2497E+02  0.2560E+03
      8.909  0.2487E+02  0.2574E+03
      8.968  0.2460E+02  0.2589E+03
      9.028  0.2607E+02  0.2604E+03
      9.088  0.2360E+02  0.2620E+03
      9.147  0.2384E+02  0.2634E+03
      9.207  0.2370E+02  0.2648E+03
      9.266  0.2642E+02  0.2663E+03
      9.326  0.3054E+02  0.2680E+03
      9.386  0.3071E+02  0.2699E+03
      9.445  0.2926E+02  0.2716E+03
      9.505  0.3056E+02  0.2734E+03
      9.565  0.3299E+02  0.2753E+03
      9.624  0.3544E+02  0.2773E+03
      9.684  0.3924E+02  0.2795E+03
      9.744  0.3925E+02  0.2819E+03
      9.803  0.4138E+02  0.2842E+03
      9.863  0.4267E+02  0.2867E+03
      9.923  0.3909E+02  0.2892E+03
      9.982  0.3886E+02  0.2915E+03
     10.042  0.4505E+02  0.2940E+03
     10.102  0.5115E+02  0.2969E+03
     10.161  0.5465E+02  0.3001E+03
     10.221  0.5756E+02  0.3035E+03
     10.281  0.5860E+02  0.3070E+03
     10.340  0.5819E+02  0.3105E+03
     10.400  0.6445E+02  0.3141E+03
     10.459  0.6643E+02  0.3177E+03
     10.519  0.6266E+02  0.3217E+03
     10.579  0.6263E+02  0.3254E+03
     10.638  0.5534E+02  0.3291E+03
     10.698  0.4595E+02  0.3321E+03
     10.758  0.3806E+02  0.3347E+03
     10.817  0.2070E+02  0.3367E+03
     10.877  0.1557E+02  0.3377E+03
     10.937  0.1357E+02  0.3386E+03
     10.996  0.1052E+02  0.3393E+03
     11.056  0.8918E+01  0.3399E+03
     11.116  0.7717E+01  0.3404E+03
     11.175  0.7194E+01  0.3408E+03
     11.235  0.7909E+01  0.3412E+03
     11.295  0.8185E+01  0.3417E+03
     11.354  0.9080E+01  0.3422E+03
     11.414  0.9339E+01  0.3428E+03
     11.474  0.9845E+01  0.3434E+03
     11.533  0.9982E+01  0.3440E+03
     11.593  0.9500E+01  0.3446E+03
     11.652  0.8842E+01  0.3451E+03
     11.712  0.8430E+01  0.3456E+03
     11.772  0.8200E+01  0.3461E+03
     11.831  0.8051E+01  0.3466E+03
     11.891  0.8673E+01  0.3471E+03
     11.951  0.8875E+01  0.3476E+03
     12.010  0.8890E+01  0.3481E+03
     12.070  0.8875E+01  0.3487E+03
     12.130  0.8208E+01  0.3492E+03
     12.189  0.7510E+01  0.3497E+03
     12.249  0.6867E+01  0.3501E+03
     12.309  0.6851E+01  0.3505E+03
     12.368  0.7593E+01  0.3509E+03
     12.428  0.7979E+01  0.3514E+03
     12.488  0.7913E+01  0.3519E+03
     12.547  0.7879E+01  0.3523E+03
     12.607  0.7654E+01  0.3528E+03
     12.666  0.7696E+01  0.3533E+03
     12.726  0.6971E+01  0.3537E+03
     12.786  0.6431E+01  0.3541E+03
     12.845  0.6188E+01  0.3545E+03
     12.905  0.6049E+01  0.3548E+03
     12.965  0.5714E+01  0.3552E+03
     13.024  0.5250E+01  0.3555E+03
     13.084  0.5000E+01  0.3558E+03
     13.144  0.4637E+01  0.3561E+03
     13.203  0.4689E+01  0.3564E+03
     13.263  0.4466E+01  0.3567E+03
     13.323  0.4269E+01  0.3569E+03
     13.382  0.3810E+01  0.3572E+03
     13.442  0.3393E+01  0.3574E+03
     13.502  0.3153E+01  0.3576E+03
     13.561  0.3144E+01  0.3578E+03
     13.621  0.2971E+01  0.3579E+03
     13.681  0.2670E+01  0.3581E+03
     13.740  0.2445E+01  0.3583E+03
     13.800  0.2264E+01  0.3584E+03
     13.859  0.2116E+01  0.3585E+03
     13.919  0.1981E+01  0.3586E+03
     13.979  0.1873E+01  0.3588E+03
     14.038  0.1774E+01  0.3589E+03
     14.098  0.1661E+01  0.3590E+03
     14.158  0.1553E+01  0.3591E+03
     14.217  0.1458E+01  0.3592E+03
     14.277  0.1361E+01  0.3592E+03
     14.337  0.1283E+01  0.3593E+03
     14.396  0.1202E+01  0.3594E+03
     14.456  0.1122E+01  0.3595E+03
     14.516  0.1042E+01  0.3595E+03
     14.575  0.9654E+00  0.3596E+03
     14.635  0.9065E+00  0.3596E+03
     14.695  0.8487E+00  0.3597E+03
     14.754  0.7882E+00  0.3597E+03
     14.814  0.7279E+00  0.3598E+03
     14.874  0.6680E+00  0.3598E+03
     14.933  0.5695E+00  0.3599E+03
     14.993  0.5177E+00  0.3599E+03
     15.052  0.4407E+00  0.3599E+03
     15.112  0.3312E+00  0.3600E+03
     15.172  0.2348E+00  0.3600E+03
     15.231  0.1609E+00  0.3600E+03
     15.291  0.9618E-01  0.3600E+03
     15.351  0.5157E-01  0.3600E+03
     15.410  0.2415E-01  0.3600E+03
     15.470  0.8472E-02  0.3600E+03
     15.530  0.2153E-02  0.3600E+03
     15.589  0.7784E-04  0.3600E+03
     15.649  0.0000E+00  0.3600E+03
     15.709  0.0000E+00  0.3600E+03
     15.768  0.0000E+00  0.3600E+03
     15.828  0.0000E+00  0.3600E+03
     15.888  0.0000E+00  0.3600E+03
     15.947  0.0000E+00  0.3600E+03
     16.007  0.0000E+00  0.3600E+03
     16.066  0.0000E+00  0.3600E+03
     16.126  0.0000E+00  0.3600E+03
     16.186  0.0000E+00  0.3600E+03
     16.245  0.0000E+00  0.3600E+03
     16.305  0.0000E+00  0.3600E+03
     16.365  0.0000E+00  0.3600E+03
     16.424  0.0000E+00  0.3600E+03
     16.484  0.0000E+00  0.3600E+03
     16.544  0.0000E+00  0.3600E+03
     16.603  0.0000E+00  0.3600E+03
