       N       E                     dE             d eps       ncg     rms          rms(c)
RMM:   1     0.158625693947E+04    0.15863E+04   -0.56389E+04 30960   0.651E+02
RMM:   2     0.113037047236E+03   -0.14732E+04   -0.15185E+04 30960   0.233E+02
RMM:   3    -0.158831929639E+03   -0.27187E+03   -0.23601E+03 30960   0.986E+01
RMM:   4    -0.257117211040E+03   -0.98285E+02   -0.60195E+02 30960   0.654E+01
RMM:   5    -0.286011917287E+03   -0.28895E+02   -0.23422E+02 30960   0.366E+01
RMM:   6    -0.299013896025E+03   -0.13002E+02   -0.10505E+02 30960   0.258E+01
RMM:   7    -0.304772112198E+03   -0.57582E+01   -0.50912E+01 30960   0.161E+01
RMM:   8    -0.307783003429E+03   -0.30109E+01   -0.26098E+01 30960   0.119E+01
RMM:   9    -0.310986104615E+03   -0.32031E+01   -0.30534E+01 83488   0.777E+00
RMM:  10    -0.311344842803E+03   -0.35874E+00   -0.23809E+00 90983   0.142E+00
RMM:  11    -0.311383443311E+03   -0.38601E-01   -0.19049E-01 89607   0.293E-01
RMM:  12    -0.311386758913E+03   -0.33156E-02   -0.17870E-02 88583   0.604E-02    0.276E+01
RMM:  13    -0.303502068485E+03    0.78847E+01   -0.61263E+01 64672   0.210E+01    0.236E+01
RMM:  14    -0.294812458520E+03    0.86896E+01   -0.22308E+01 63413   0.119E+01    0.140E+01
RMM:  15    -0.292482289435E+03    0.23302E+01   -0.96904E+00 64203   0.795E+00    0.110E+01
RMM:  16    -0.290207868298E+03    0.22744E+01   -0.21921E+00 64670   0.350E+00    0.159E+00
RMM:  17    -0.290157237494E+03    0.50631E-01   -0.22126E-01 75688   0.803E-01    0.988E-01
RMM:  18    -0.290092233084E+03    0.65004E-01   -0.50996E-02 68146   0.609E-01    0.751E-01
RMM:  19    -0.290070444187E+03    0.21789E-01   -0.15149E-02 68649   0.319E-01    0.330E-01
RMM:  20    -0.290065525232E+03    0.49190E-02   -0.62817E-03 69565   0.181E-01    0.322E-01
RMM:  21    -0.290063366231E+03    0.21590E-02   -0.21016E-03 68094   0.102E-01    0.890E-02
RMM:  22    -0.290063336019E+03    0.30211E-04   -0.44973E-04 75836   0.365E-02
   1 F= -.29006334E+03 E0= -.29006334E+03  d E =0.000000E+00
