 256 256   0   0
  0.1419206E+02  0.1537080E-08  0.1537218E-08  0.1537636E-08  0.5000000E-15
  1.000000000000000E-004
  CAR 
 Ir_Ru                                   
     12.68528610     -1.29453576  301      9.24206917      1.00000000
     -1.295  0.0000E+00  0.0000E+00
     -1.248  0.0000E+00  0.0000E+00
     -1.201  0.0000E+00  0.0000E+00
     -1.155  0.0000E+00  0.0000E+00
     -1.108 -0.2749E-28 -0.1281E-29
     -1.062 -0.4101E-25 -0.1912E-26
     -1.015 -0.3947E-22 -0.1841E-23
     -0.968 -0.2451E-19 -0.1144E-20
     -0.922 -0.9819E-17 -0.4587E-18
     -0.875 -0.2463E-14 -0.1152E-15
     -0.829 -0.4085E-12 -0.1915E-13
     -0.782 -0.4362E-10 -0.2052E-11
     -0.735 -0.3002E-08 -0.1419E-09
     -0.689 -0.1332E-06 -0.6348E-08
     -0.642 -0.3816E-05 -0.1842E-06
     -0.596 -0.7080E-04 -0.3484E-05
     -0.549 -0.8530E-03 -0.4323E-04
     -0.502 -0.6676E-02 -0.3543E-03
     -0.456 -0.3354E-01 -0.1917E-02
     -0.409 -0.1020E+00 -0.6669E-02
     -0.363 -0.1377E+00 -0.1309E-01
     -0.316  0.2236E+00 -0.2666E-02
     -0.269  0.1508E+01  0.6761E-01
     -0.223  0.3537E+01  0.2325E+00
     -0.176  0.5069E+01  0.4687E+00
     -0.130  0.5730E+01  0.7357E+00
     -0.083  0.7320E+01  0.1077E+01
     -0.036  0.1019E+02  0.1552E+01
      0.010  0.1102E+02  0.2065E+01
      0.057  0.9150E+01  0.2492E+01
      0.103  0.9367E+01  0.2928E+01
      0.150  0.1313E+02  0.3540E+01
      0.197  0.1590E+02  0.4281E+01
      0.243  0.1604E+02  0.5028E+01
      0.290  0.1671E+02  0.5807E+01
      0.336  0.1848E+02  0.6668E+01
      0.383  0.1833E+02  0.7522E+01
      0.430  0.1738E+02  0.8332E+01
      0.476  0.1972E+02  0.9251E+01
      0.523  0.2332E+02  0.1034E+02
      0.569  0.2403E+02  0.1146E+02
      0.616  0.2228E+02  0.1250E+02
      0.663  0.1878E+02  0.1337E+02
      0.709  0.1414E+02  0.1403E+02
      0.756  0.1115E+02  0.1455E+02
      0.802  0.1071E+02  0.1505E+02
      0.849  0.1118E+02  0.1557E+02
      0.896  0.1225E+02  0.1614E+02
      0.942  0.1474E+02  0.1683E+02
      0.989  0.1840E+02  0.1768E+02
      1.035  0.2291E+02  0.1875E+02
      1.082  0.2807E+02  0.2006E+02
      1.129  0.3123E+02  0.2152E+02
      1.175  0.2973E+02  0.2290E+02
      1.222  0.2589E+02  0.2411E+02
      1.268  0.2302E+02  0.2518E+02
      1.315  0.2092E+02  0.2616E+02
      1.362  0.1998E+02  0.2709E+02
      1.408  0.2160E+02  0.2809E+02
      1.455  0.2408E+02  0.2922E+02
      1.501  0.2568E+02  0.3041E+02
      1.548  0.2899E+02  0.3176E+02
      1.595  0.3512E+02  0.3340E+02
      1.641  0.3875E+02  0.3521E+02
      1.688  0.3786E+02  0.3697E+02
      1.734  0.3924E+02  0.3880E+02
      1.781  0.4548E+02  0.4092E+02
      1.828  0.4934E+02  0.4322E+02
      1.874  0.4782E+02  0.4545E+02
      1.921  0.4724E+02  0.4765E+02
      1.967  0.5083E+02  0.5001E+02
      2.014  0.5406E+02  0.5253E+02
      2.061  0.5544E+02  0.5512E+02
      2.107  0.6133E+02  0.5798E+02
      2.154  0.7457E+02  0.6145E+02
      2.200  0.8949E+02  0.6562E+02
      2.247  0.1032E+03  0.7043E+02
      2.294  0.1179E+03  0.7592E+02
      2.340  0.1310E+03  0.8203E+02
      2.387  0.1382E+03  0.8846E+02
      2.433  0.1431E+03  0.9513E+02
      2.480  0.1521E+03  0.1022E+03
      2.527  0.1608E+03  0.1097E+03
      2.573  0.1617E+03  0.1173E+03
      2.620  0.1613E+03  0.1248E+03
      2.666  0.1689E+03  0.1326E+03
      2.713  0.1784E+03  0.1410E+03
      2.760  0.1848E+03  0.1496E+03
      2.806  0.1978E+03  0.1588E+03
      2.853  0.2229E+03  0.1692E+03
      2.899  0.2476E+03  0.1807E+03
      2.946  0.2564E+03  0.1927E+03
      2.993  0.2498E+03  0.2043E+03
      3.039  0.2468E+03  0.2158E+03
      3.086  0.2621E+03  0.2280E+03
      3.132  0.2866E+03  0.2414E+03
      3.179  0.3014E+03  0.2554E+03
      3.226  0.3041E+03  0.2696E+03
      3.272  0.3054E+03  0.2838E+03
      3.319  0.3088E+03  0.2982E+03
      3.365  0.3115E+03  0.3127E+03
      3.412  0.3147E+03  0.3274E+03
      3.459  0.3220E+03  0.3424E+03
      3.505  0.3337E+03  0.3579E+03
      3.552  0.3442E+03  0.3740E+03
      3.598  0.3469E+03  0.3901E+03
      3.645  0.3449E+03  0.4062E+03
      3.692  0.3488E+03  0.4225E+03
      3.738  0.3578E+03  0.4391E+03
      3.785  0.3594E+03  0.4559E+03
      3.831  0.3523E+03  0.4723E+03
      3.878  0.3479E+03  0.4885E+03
      3.925  0.3497E+03  0.5048E+03
      3.971  0.3506E+03  0.5212E+03
      4.018  0.3414E+03  0.5371E+03
      4.064  0.3226E+03  0.5521E+03
      4.111  0.3065E+03  0.5664E+03
      4.158  0.2974E+03  0.5802E+03
      4.204  0.2873E+03  0.5936E+03
      4.251  0.2712E+03  0.6063E+03
      4.297  0.2536E+03  0.6181E+03
      4.344  0.2427E+03  0.6294E+03
      4.391  0.2453E+03  0.6408E+03
      4.437  0.2579E+03  0.6528E+03
      4.484  0.2616E+03  0.6650E+03
      4.530  0.2504E+03  0.6767E+03
      4.577  0.2476E+03  0.6882E+03
      4.624  0.2673E+03  0.7007E+03
      4.670  0.2922E+03  0.7143E+03
      4.717  0.3070E+03  0.7286E+03
      4.763  0.3137E+03  0.7432E+03
      4.810  0.3134E+03  0.7578E+03
      4.857  0.3049E+03  0.7721E+03
      4.903  0.2901E+03  0.7856E+03
      4.950  0.2785E+03  0.7985E+03
      4.996  0.2812E+03  0.8116E+03
      5.043  0.2952E+03  0.8254E+03
      5.090  0.3079E+03  0.8398E+03
      5.136  0.3092E+03  0.8542E+03
      5.183  0.2975E+03  0.8680E+03
      5.229  0.2854E+03  0.8813E+03
      5.276  0.2844E+03  0.8946E+03
      5.323  0.2904E+03  0.9081E+03
      5.369  0.2974E+03  0.9220E+03
      5.416  0.3018E+03  0.9360E+03
      5.462  0.2985E+03  0.9499E+03
      5.509  0.2886E+03  0.9634E+03
      5.556  0.2866E+03  0.9767E+03
      5.602  0.3027E+03  0.9909E+03
      5.649  0.3216E+03  0.1006E+04
      5.695  0.3253E+03  0.1021E+04
      5.742  0.3203E+03  0.1036E+04
      5.789  0.3200E+03  0.1051E+04
      5.835  0.3263E+03  0.1066E+04
      5.882  0.3367E+03  0.1082E+04
      5.928  0.3501E+03  0.1098E+04
      5.975  0.3654E+03  0.1115E+04
      6.022  0.3790E+03  0.1133E+04
      6.068  0.3856E+03  0.1151E+04
      6.115  0.3876E+03  0.1169E+04
      6.161  0.3917E+03  0.1187E+04
      6.208  0.3986E+03  0.1206E+04
      6.255  0.4096E+03  0.1225E+04
      6.301  0.4274E+03  0.1245E+04
      6.348  0.4468E+03  0.1265E+04
      6.394  0.4575E+03  0.1287E+04
      6.441  0.4570E+03  0.1308E+04
      6.488  0.4530E+03  0.1329E+04
      6.534  0.4500E+03  0.1350E+04
      6.581  0.4457E+03  0.1371E+04
      6.627  0.4393E+03  0.1391E+04
      6.674  0.4318E+03  0.1411E+04
      6.721  0.4247E+03  0.1431E+04
      6.767  0.4169E+03  0.1451E+04
      6.814  0.4015E+03  0.1469E+04
      6.860  0.3767E+03  0.1487E+04
      6.907  0.3543E+03  0.1503E+04
      6.954  0.3442E+03  0.1520E+04
      7.000  0.3392E+03  0.1535E+04
      7.047  0.3276E+03  0.1551E+04
      7.093  0.3147E+03  0.1565E+04
      7.140  0.3135E+03  0.1580E+04
      7.187  0.3193E+03  0.1595E+04
      7.233  0.3132E+03  0.1609E+04
      7.280  0.2873E+03  0.1623E+04
      7.326  0.2558E+03  0.1635E+04
      7.373  0.2403E+03  0.1646E+04
      7.420  0.2488E+03  0.1657E+04
      7.466  0.2713E+03  0.1670E+04
      7.513  0.2846E+03  0.1683E+04
      7.559  0.2764E+03  0.1696E+04
      7.606  0.2584E+03  0.1708E+04
      7.653  0.2484E+03  0.1720E+04
      7.699  0.2573E+03  0.1732E+04
      7.746  0.2829E+03  0.1745E+04
      7.792  0.3054E+03  0.1759E+04
      7.839  0.3119E+03  0.1774E+04
      7.886  0.3088E+03  0.1788E+04
      7.932  0.3030E+03  0.1802E+04
      7.979  0.2960E+03  0.1816E+04
      8.025  0.2910E+03  0.1830E+04
      8.072  0.2958E+03  0.1843E+04
      8.119  0.3092E+03  0.1858E+04
      8.165  0.3170E+03  0.1873E+04
      8.212  0.3178E+03  0.1887E+04
      8.258  0.3300E+03  0.1903E+04
      8.305  0.3538E+03  0.1919E+04
      8.352  0.3623E+03  0.1936E+04
      8.398  0.3396E+03  0.1952E+04
      8.445  0.2998E+03  0.1966E+04
      8.491  0.2668E+03  0.1978E+04
      8.538  0.2557E+03  0.1990E+04
      8.585  0.2709E+03  0.2003E+04
      8.631  0.2955E+03  0.2017E+04
      8.678  0.3001E+03  0.2031E+04
      8.724  0.2839E+03  0.2044E+04
      8.771  0.2675E+03  0.2056E+04
      8.818  0.2569E+03  0.2068E+04
      8.864  0.2491E+03  0.2080E+04
      8.911  0.2452E+03  0.2091E+04
      8.957  0.2454E+03  0.2103E+04
      9.004  0.2535E+03  0.2115E+04
      9.051  0.2735E+03  0.2127E+04
      9.097  0.2840E+03  0.2141E+04
      9.144  0.2660E+03  0.2153E+04
      9.190  0.2407E+03  0.2164E+04
      9.237  0.2282E+03  0.2175E+04
      9.284  0.2199E+03  0.2185E+04
      9.330  0.2139E+03  0.2195E+04
      9.377  0.2219E+03  0.2205E+04
      9.423  0.2425E+03  0.2217E+04
      9.470  0.2623E+03  0.2229E+04
      9.517  0.2736E+03  0.2242E+04
      9.563  0.2773E+03  0.2255E+04
      9.610  0.2763E+03  0.2267E+04
      9.656  0.2710E+03  0.2280E+04
      9.703  0.2609E+03  0.2292E+04
      9.750  0.2438E+03  0.2304E+04
      9.796  0.2242E+03  0.2314E+04
      9.843  0.2194E+03  0.2324E+04
      9.889  0.2366E+03  0.2335E+04
      9.936  0.2642E+03  0.2348E+04
      9.983  0.2952E+03  0.2361E+04
     10.029  0.3273E+03  0.2377E+04
     10.076  0.3491E+03  0.2393E+04
     10.122  0.3463E+03  0.2409E+04
     10.169  0.3239E+03  0.2424E+04
     10.216  0.3102E+03  0.2439E+04
     10.262  0.3292E+03  0.2454E+04
     10.309  0.3872E+03  0.2472E+04
     10.355  0.4665E+03  0.2494E+04
     10.402  0.5186E+03  0.2518E+04
     10.449  0.5091E+03  0.2542E+04
     10.495  0.4504E+03  0.2563E+04
     10.542  0.3738E+03  0.2580E+04
     10.588  0.3020E+03  0.2594E+04
     10.635  0.2480E+03  0.2606E+04
     10.682  0.2121E+03  0.2616E+04
     10.728  0.1807E+03  0.2624E+04
     10.775  0.1422E+03  0.2631E+04
     10.821  0.9751E+02  0.2635E+04
     10.868  0.5634E+02  0.2638E+04
     10.915  0.2691E+02  0.2639E+04
     10.961  0.1016E+02  0.2639E+04
     11.008  0.3020E+01  0.2640E+04
     11.054  0.1582E+01  0.2640E+04
     11.101  0.1998E+01  0.2640E+04
     11.148  0.1742E+01  0.2640E+04
     11.194  0.7167E+00  0.2640E+04
     11.241  0.3707E-02  0.2640E+04
     11.287 -0.1218E+00  0.2640E+04
     11.334 -0.5288E-01  0.2640E+04
     11.381 -0.1135E-01  0.2640E+04
     11.427 -0.3505E-02  0.2640E+04
     11.474 -0.1335E-01  0.2640E+04
     11.520 -0.4267E-01  0.2640E+04
     11.567 -0.3493E-01  0.2640E+04
     11.613  0.2039E+00  0.2640E+04
     11.660  0.7210E+00  0.2640E+04
     11.707  0.1026E+01  0.2640E+04
     11.753  0.7172E+00  0.2640E+04
     11.800  0.2009E+00  0.2640E+04
     11.846 -0.3554E-01  0.2640E+04
     11.893 -0.4243E-01  0.2640E+04
     11.940 -0.1310E-01  0.2640E+04
     11.986 -0.2113E-02  0.2640E+04
     12.033 -0.2001E-03  0.2640E+04
     12.079 -0.1161E-04  0.2640E+04
     12.126 -0.4215E-06  0.2640E+04
     12.173 -0.9671E-08  0.2640E+04
     12.219 -0.1413E-09  0.2640E+04
     12.266 -0.1319E-11  0.2640E+04
     12.312 -0.8041E-14  0.2640E+04
     12.359  0.0000E+00  0.2640E+04
     12.406  0.0000E+00  0.2640E+04
     12.452  0.0000E+00  0.2640E+04
     12.499  0.0000E+00  0.2640E+04
     12.545  0.0000E+00  0.2640E+04
     12.592  0.0000E+00  0.2640E+04
     12.639  0.0000E+00  0.2640E+04
     12.685  0.0000E+00  0.2640E+04
