 256 256   0   0
  0.1419206E+02  0.1537080E-08  0.1537218E-08  0.1537636E-08  0.5000000E-15
  1.000000000000000E-004
  CAR 
 Ir_Ru                                   
     12.68646903     -1.29499067  301      9.24209704      1.00000000
     -1.295  0.0000E+00  0.0000E+00
     -1.248  0.0000E+00  0.0000E+00
     -1.202  0.0000E+00  0.0000E+00
     -1.155  0.0000E+00  0.0000E+00
     -1.109 -0.2759E-28 -0.1286E-29
     -1.062 -0.4118E-25 -0.1920E-26
     -1.015 -0.3965E-22 -0.1850E-23
     -0.969 -0.2463E-19 -0.1150E-20
     -0.922 -0.9872E-17 -0.4612E-18
     -0.876 -0.2477E-14 -0.1159E-15
     -0.829 -0.4108E-12 -0.1926E-13
     -0.782 -0.4387E-10 -0.2064E-11
     -0.736 -0.3019E-08 -0.1428E-09
     -0.689 -0.1339E-06 -0.6384E-08
     -0.643 -0.3836E-05 -0.1852E-06
     -0.596 -0.7115E-04 -0.3501E-05
     -0.549 -0.8568E-03 -0.4343E-04
     -0.503 -0.6702E-02 -0.3558E-03
     -0.456 -0.3365E-01 -0.1924E-02
     -0.409 -0.1022E+00 -0.6687E-02
     -0.363 -0.1376E+00 -0.1310E-01
     -0.316  0.2256E+00 -0.2586E-02
     -0.270  0.1513E+01  0.6794E-01
     -0.223  0.3544E+01  0.2331E+00
     -0.176  0.5073E+01  0.4695E+00
     -0.130  0.5735E+01  0.7368E+00
     -0.083  0.7334E+01  0.1079E+01
     -0.037  0.1020E+02  0.1554E+01
      0.010  0.1102E+02  0.2068E+01
      0.057  0.9147E+01  0.2494E+01
      0.103  0.9391E+01  0.2932E+01
      0.150  0.1317E+02  0.3545E+01
      0.196  0.1592E+02  0.4287E+01
      0.243  0.1605E+02  0.5035E+01
      0.290  0.1674E+02  0.5815E+01
      0.336  0.1850E+02  0.6677E+01
      0.383  0.1833E+02  0.7532E+01
      0.429  0.1743E+02  0.8344E+01
      0.476  0.1981E+02  0.9267E+01
      0.523  0.2338E+02  0.1036E+02
      0.569  0.2406E+02  0.1148E+02
      0.616  0.2227E+02  0.1252E+02
      0.662  0.1872E+02  0.1339E+02
      0.709  0.1407E+02  0.1404E+02
      0.756  0.1113E+02  0.1456E+02
      0.802  0.1071E+02  0.1506E+02
      0.849  0.1114E+02  0.1558E+02
      0.895  0.1215E+02  0.1615E+02
      0.942  0.1463E+02  0.1683E+02
      0.989  0.1832E+02  0.1768E+02
      1.035  0.2287E+02  0.1875E+02
      1.082  0.2807E+02  0.2006E+02
      1.128  0.3125E+02  0.2151E+02
      1.175  0.2975E+02  0.2290E+02
      1.222  0.2591E+02  0.2411E+02
      1.268  0.2306E+02  0.2518E+02
      1.315  0.2096E+02  0.2616E+02
      1.361  0.2001E+02  0.2709E+02
      1.408  0.2162E+02  0.2810E+02
      1.455  0.2407E+02  0.2922E+02
      1.501  0.2567E+02  0.3042E+02
      1.548  0.2897E+02  0.3177E+02
      1.595  0.3510E+02  0.3340E+02
      1.641  0.3874E+02  0.3521E+02
      1.688  0.3788E+02  0.3698E+02
      1.734  0.3929E+02  0.3881E+02
      1.781  0.4552E+02  0.4093E+02
      1.828  0.4933E+02  0.4323E+02
      1.874  0.4782E+02  0.4546E+02
      1.921  0.4732E+02  0.4766E+02
      1.967  0.5094E+02  0.5004E+02
      2.014  0.5412E+02  0.5256E+02
      2.061  0.5546E+02  0.5514E+02
      2.107  0.6135E+02  0.5800E+02
      2.154  0.7456E+02  0.6148E+02
      2.200  0.8942E+02  0.6564E+02
      2.247  0.1032E+03  0.7045E+02
      2.294  0.1179E+03  0.7595E+02
      2.340  0.1310E+03  0.8205E+02
      2.387  0.1383E+03  0.8850E+02
      2.433  0.1432E+03  0.9517E+02
      2.480  0.1523E+03  0.1023E+03
      2.527  0.1609E+03  0.1098E+03
      2.573  0.1617E+03  0.1173E+03
      2.620  0.1613E+03  0.1248E+03
      2.666  0.1690E+03  0.1327E+03
      2.713  0.1785E+03  0.1410E+03
      2.760  0.1849E+03  0.1496E+03
      2.806  0.1979E+03  0.1589E+03
      2.853  0.2231E+03  0.1693E+03
      2.899  0.2477E+03  0.1808E+03
      2.946  0.2563E+03  0.1927E+03
      2.993  0.2497E+03  0.2044E+03
      3.039  0.2467E+03  0.2159E+03
      3.086  0.2621E+03  0.2281E+03
      3.132  0.2866E+03  0.2415E+03
      3.179  0.3013E+03  0.2555E+03
      3.226  0.3040E+03  0.2697E+03
      3.272  0.3052E+03  0.2839E+03
      3.319  0.3086E+03  0.2983E+03
      3.365  0.3111E+03  0.3128E+03
      3.412  0.3142E+03  0.3274E+03
      3.459  0.3215E+03  0.3424E+03
      3.505  0.3333E+03  0.3579E+03
      3.552  0.3442E+03  0.3740E+03
      3.599  0.3471E+03  0.3901E+03
      3.645  0.3451E+03  0.4062E+03
      3.692  0.3489E+03  0.4225E+03
      3.738  0.3578E+03  0.4392E+03
      3.785  0.3594E+03  0.4559E+03
      3.832  0.3523E+03  0.4723E+03
      3.878  0.3478E+03  0.4885E+03
      3.925  0.3496E+03  0.5048E+03
      3.971  0.3505E+03  0.5212E+03
      4.018  0.3413E+03  0.5371E+03
      4.065  0.3227E+03  0.5521E+03
      4.111  0.3067E+03  0.5664E+03
      4.158  0.2975E+03  0.5803E+03
      4.204  0.2872E+03  0.5937E+03
      4.251  0.2711E+03  0.6063E+03
      4.298  0.2536E+03  0.6181E+03
      4.344  0.2427E+03  0.6294E+03
      4.391  0.2453E+03  0.6409E+03
      4.437  0.2579E+03  0.6529E+03
      4.484  0.2617E+03  0.6651E+03
      4.531  0.2506E+03  0.6768E+03
      4.577  0.2478E+03  0.6883E+03
      4.624  0.2674E+03  0.7008E+03
      4.670  0.2921E+03  0.7144E+03
      4.717  0.3069E+03  0.7287E+03
      4.764  0.3137E+03  0.7433E+03
      4.810  0.3134E+03  0.7579E+03
      4.857  0.3048E+03  0.7721E+03
      4.903  0.2900E+03  0.7856E+03
      4.950  0.2784E+03  0.7986E+03
      4.997  0.2813E+03  0.8117E+03
      5.043  0.2954E+03  0.8255E+03
      5.090  0.3080E+03  0.8398E+03
      5.136  0.3091E+03  0.8542E+03
      5.183  0.2975E+03  0.8681E+03
      5.230  0.2856E+03  0.8814E+03
      5.276  0.2845E+03  0.8947E+03
      5.323  0.2904E+03  0.9082E+03
      5.370  0.2973E+03  0.9221E+03
      5.416  0.3018E+03  0.9361E+03
      5.463  0.2985E+03  0.9500E+03
      5.509  0.2886E+03  0.9635E+03
      5.556  0.2867E+03  0.9769E+03
      5.603  0.3029E+03  0.9910E+03
      5.649  0.3217E+03  0.1006E+04
      5.696  0.3253E+03  0.1021E+04
      5.742  0.3202E+03  0.1036E+04
      5.789  0.3200E+03  0.1051E+04
      5.836  0.3263E+03  0.1066E+04
      5.882  0.3368E+03  0.1082E+04
      5.929  0.3503E+03  0.1098E+04
      5.975  0.3656E+03  0.1115E+04
      6.022  0.3792E+03  0.1133E+04
      6.069  0.3855E+03  0.1151E+04
      6.115  0.3875E+03  0.1169E+04
      6.162  0.3917E+03  0.1187E+04
      6.208  0.3987E+03  0.1206E+04
      6.255  0.4098E+03  0.1225E+04
      6.302  0.4276E+03  0.1245E+04
      6.348  0.4468E+03  0.1266E+04
      6.395  0.4575E+03  0.1287E+04
      6.441  0.4571E+03  0.1308E+04
      6.488  0.4530E+03  0.1329E+04
      6.535  0.4499E+03  0.1350E+04
      6.581  0.4455E+03  0.1371E+04
      6.628  0.4390E+03  0.1392E+04
      6.674  0.4316E+03  0.1412E+04
      6.721  0.4246E+03  0.1431E+04
      6.768  0.4168E+03  0.1451E+04
      6.814  0.4013E+03  0.1470E+04
      6.861  0.3764E+03  0.1487E+04
      6.907  0.3541E+03  0.1504E+04
      6.954  0.3442E+03  0.1520E+04
      7.001  0.3391E+03  0.1535E+04
      7.047  0.3274E+03  0.1551E+04
      7.094  0.3146E+03  0.1565E+04
      7.140  0.3136E+03  0.1580E+04
      7.187  0.3194E+03  0.1595E+04
      7.234  0.3131E+03  0.1609E+04
      7.280  0.2869E+03  0.1623E+04
      7.327  0.2555E+03  0.1635E+04
      7.374  0.2401E+03  0.1646E+04
      7.420  0.2490E+03  0.1658E+04
      7.467  0.2715E+03  0.1670E+04
      7.513  0.2846E+03  0.1683E+04
      7.560  0.2762E+03  0.1696E+04
      7.607  0.2582E+03  0.1708E+04
      7.653  0.2482E+03  0.1720E+04
      7.700  0.2575E+03  0.1732E+04
      7.746  0.2834E+03  0.1745E+04
      7.793  0.3057E+03  0.1759E+04
      7.840  0.3120E+03  0.1774E+04
      7.886  0.3087E+03  0.1788E+04
      7.933  0.3030E+03  0.1802E+04
      7.979  0.2959E+03  0.1816E+04
      8.026  0.2910E+03  0.1830E+04
      8.073  0.2960E+03  0.1844E+04
      8.119  0.3095E+03  0.1858E+04
      8.166  0.3171E+03  0.1873E+04
      8.212  0.3177E+03  0.1888E+04
      8.259  0.3301E+03  0.1903E+04
      8.306  0.3540E+03  0.1919E+04
      8.352  0.3623E+03  0.1936E+04
      8.399  0.3392E+03  0.1952E+04
      8.445  0.2993E+03  0.1966E+04
      8.492  0.2665E+03  0.1979E+04
      8.539  0.2558E+03  0.1990E+04
      8.585  0.2714E+03  0.2003E+04
      8.632  0.2958E+03  0.2017E+04
      8.678  0.3000E+03  0.2031E+04
      8.725  0.2837E+03  0.2044E+04
      8.772  0.2673E+03  0.2057E+04
      8.818  0.2567E+03  0.2069E+04
      8.865  0.2489E+03  0.2080E+04
      8.911  0.2451E+03  0.2092E+04
      8.958  0.2454E+03  0.2103E+04
      9.005  0.2537E+03  0.2115E+04
      9.051  0.2738E+03  0.2128E+04
      9.098  0.2839E+03  0.2141E+04
      9.144  0.2655E+03  0.2153E+04
      9.191  0.2404E+03  0.2164E+04
      9.238  0.2281E+03  0.2175E+04
      9.284  0.2197E+03  0.2185E+04
      9.331  0.2139E+03  0.2195E+04
      9.378  0.2222E+03  0.2206E+04
      9.424  0.2429E+03  0.2217E+04
      9.471  0.2626E+03  0.2229E+04
      9.517  0.2737E+03  0.2242E+04
      9.564  0.2773E+03  0.2255E+04
      9.611  0.2762E+03  0.2268E+04
      9.657  0.2709E+03  0.2280E+04
      9.704  0.2607E+03  0.2292E+04
      9.750  0.2434E+03  0.2304E+04
      9.797  0.2239E+03  0.2314E+04
      9.844  0.2196E+03  0.2324E+04
      9.890  0.2371E+03  0.2336E+04
      9.937  0.2648E+03  0.2348E+04
      9.983  0.2958E+03  0.2362E+04
     10.030  0.3279E+03  0.2377E+04
     10.077  0.3493E+03  0.2393E+04
     10.123  0.3460E+03  0.2409E+04
     10.170  0.3234E+03  0.2424E+04
     10.216  0.3102E+03  0.2439E+04
     10.263  0.3300E+03  0.2454E+04
     10.310  0.3887E+03  0.2472E+04
     10.356  0.4679E+03  0.2494E+04
     10.403  0.5190E+03  0.2518E+04
     10.449  0.5082E+03  0.2542E+04
     10.496  0.4488E+03  0.2563E+04
     10.543  0.3723E+03  0.2580E+04
     10.589  0.3008E+03  0.2594E+04
     10.636  0.2473E+03  0.2606E+04
     10.682  0.2117E+03  0.2616E+04
     10.729  0.1802E+03  0.2624E+04
     10.776  0.1412E+03  0.2631E+04
     10.822  0.9624E+02  0.2635E+04
     10.869  0.5550E+02  0.2638E+04
     10.915  0.2668E+02  0.2639E+04
     10.962  0.1021E+02  0.2639E+04
     11.009  0.3018E+01  0.2640E+04
     11.055  0.1431E+01  0.2640E+04
     11.102  0.1776E+01  0.2640E+04
     11.149  0.1565E+01  0.2640E+04
     11.195  0.6377E+00  0.2640E+04
     11.242 -0.4409E-02  0.2640E+04
     11.288 -0.1121E+00  0.2640E+04
     11.335 -0.4773E-01  0.2640E+04
     11.382 -0.1016E-01  0.2640E+04
     11.428 -0.3420E-02  0.2640E+04
     11.475 -0.1365E-01  0.2640E+04
     11.521 -0.4310E-01  0.2640E+04
     11.568 -0.3345E-01  0.2640E+04
     11.615  0.2103E+00  0.2640E+04
     11.661  0.7286E+00  0.2640E+04
     11.708  0.1025E+01  0.2640E+04
     11.754  0.7090E+00  0.2640E+04
     11.801  0.1951E+00  0.2640E+04
     11.848 -0.3656E-01  0.2640E+04
     11.894 -0.4192E-01  0.2640E+04
     11.941 -0.1281E-01  0.2640E+04
     11.987 -0.2052E-02  0.2640E+04
     12.034 -0.1932E-03  0.2640E+04
     12.081 -0.1115E-04  0.2640E+04
     12.127 -0.4028E-06  0.2640E+04
     12.174 -0.9199E-08  0.2640E+04
     12.220 -0.1338E-09  0.2640E+04
     12.267 -0.1244E-11  0.2640E+04
     12.314 -0.7444E-14  0.2640E+04
     12.360  0.0000E+00  0.2640E+04
     12.407  0.0000E+00  0.2640E+04
     12.453  0.0000E+00  0.2640E+04
     12.500  0.0000E+00  0.2640E+04
     12.547  0.0000E+00  0.2640E+04
     12.593  0.0000E+00  0.2640E+04
     12.640  0.0000E+00  0.2640E+04
     12.686  0.0000E+00  0.2640E+04
