  40  40   0   0
  0.1459365E+02  0.2746712E-09  0.1278172E-08  0.1786426E-08  0.5000000E-15
  1.000000000000000E-004
  CAR 
 Ir_Ru                                   
     16.41640188     -1.85511395  301      9.99926439      1.00000000
     -1.855  0.0000E+00  0.0000E+00
     -1.794  0.0000E+00  0.0000E+00
     -1.733  0.0000E+00  0.0000E+00
     -1.672 -0.3434E-29 -0.2091E-30
     -1.611 -0.4619E-25 -0.2814E-26
     -1.551 -0.2940E-21 -0.1791E-22
     -1.490 -0.8842E-18 -0.5387E-19
     -1.429 -0.1221E-14 -0.7440E-16
     -1.368 -0.8065E-12 -0.4920E-13
     -1.307 -0.2500E-09 -0.1528E-10
     -1.246 -0.3602E-07 -0.2209E-08
     -1.185 -0.2387E-05 -0.1476E-06
     -1.124 -0.7163E-04 -0.4510E-05
     -1.063 -0.9509E-03 -0.6242E-04
     -1.002 -0.5402E-02 -0.3914E-03
     -0.942 -0.1180E-01 -0.1110E-02
     -0.881  0.1082E-01 -0.4515E-03
     -0.820  0.1742E+00  0.1016E-01
     -0.759  0.5742E+00  0.4513E-01
     -0.698  0.9727E+00  0.1044E+00
     -0.637  0.1032E+01  0.1672E+00
     -0.576  0.8439E+00  0.2186E+00
     -0.515  0.1125E+01  0.2871E+00
     -0.454  0.1859E+01  0.4004E+00
     -0.393  0.2084E+01  0.5273E+00
     -0.332  0.1611E+01  0.6254E+00
     -0.272  0.1373E+01  0.7091E+00
     -0.211  0.1655E+01  0.8099E+00
     -0.150  0.1924E+01  0.9271E+00
     -0.089  0.2289E+01  0.1066E+01
     -0.028  0.2745E+01  0.1234E+01
      0.033  0.2618E+01  0.1393E+01
      0.094  0.2284E+01  0.1532E+01
      0.155  0.2568E+01  0.1689E+01
      0.216  0.2908E+01  0.1866E+01
      0.277  0.2736E+01  0.2032E+01
      0.337  0.2576E+01  0.2189E+01
      0.398  0.2710E+01  0.2354E+01
      0.459  0.2791E+01  0.2524E+01
      0.520  0.3375E+01  0.2730E+01
      0.581  0.4449E+01  0.3001E+01
      0.642  0.4245E+01  0.3259E+01
      0.703  0.3490E+01  0.3472E+01
      0.764  0.3565E+01  0.3689E+01
      0.825  0.3539E+01  0.3905E+01
      0.886  0.3330E+01  0.4107E+01
      0.947  0.3611E+01  0.4327E+01
      1.007  0.4406E+01  0.4596E+01
      1.068  0.4820E+01  0.4889E+01
      1.129  0.4580E+01  0.5168E+01
      1.190  0.5072E+01  0.5477E+01
      1.251  0.5371E+01  0.5804E+01
      1.312  0.4823E+01  0.6098E+01
      1.373  0.5289E+01  0.6420E+01
      1.434  0.6167E+01  0.6796E+01
      1.495  0.5994E+01  0.7161E+01
      1.556  0.5377E+01  0.7488E+01
      1.616  0.5716E+01  0.7836E+01
      1.677  0.6288E+01  0.8219E+01
      1.738  0.6554E+01  0.8619E+01
      1.799  0.7224E+01  0.9058E+01
      1.860  0.7695E+01  0.9527E+01
      1.921  0.7696E+01  0.9996E+01
      1.982  0.9018E+01  0.1055E+02
      2.043  0.1065E+02  0.1119E+02
      2.104  0.1130E+02  0.1188E+02
      2.165  0.1258E+02  0.1265E+02
      2.226  0.1551E+02  0.1359E+02
      2.286  0.2168E+02  0.1491E+02
      2.347  0.2909E+02  0.1669E+02
      2.408  0.3323E+02  0.1871E+02
      2.469  0.3417E+02  0.2079E+02
      2.530  0.3453E+02  0.2289E+02
      2.591  0.3343E+02  0.2493E+02
      2.652  0.3099E+02  0.2682E+02
      2.713  0.3139E+02  0.2873E+02
      2.774  0.3528E+02  0.3088E+02
      2.835  0.3922E+02  0.3327E+02
      2.895  0.4099E+02  0.3576E+02
      2.956  0.4155E+02  0.3829E+02
      3.017  0.4175E+02  0.4084E+02
      3.078  0.4081E+02  0.4332E+02
      3.139  0.4022E+02  0.4577E+02
      3.200  0.4290E+02  0.4838E+02
      3.261  0.4517E+02  0.5114E+02
      3.322  0.4593E+02  0.5393E+02
      3.383  0.4805E+02  0.5686E+02
      3.444  0.5094E+02  0.5996E+02
      3.505  0.4975E+02  0.6299E+02
      3.565  0.4466E+02  0.6571E+02
      3.626  0.4205E+02  0.6827E+02
      3.687  0.4257E+02  0.7086E+02
      3.748  0.4090E+02  0.7336E+02
      3.809  0.3814E+02  0.7568E+02
      3.870  0.3592E+02  0.7787E+02
      3.931  0.3150E+02  0.7979E+02
      3.992  0.2887E+02  0.8154E+02
      4.053  0.3540E+02  0.8370E+02
      4.114  0.4922E+02  0.8670E+02
      4.174  0.5762E+02  0.9021E+02
      4.235  0.5648E+02  0.9365E+02
      4.296  0.5179E+02  0.9680E+02
      4.357  0.4640E+02  0.9963E+02
      4.418  0.4315E+02  0.1023E+03
      4.479  0.4305E+02  0.1049E+03
      4.540  0.4363E+02  0.1075E+03
      4.601  0.4250E+02  0.1101E+03
      4.662  0.4203E+02  0.1127E+03
      4.723  0.4464E+02  0.1154E+03
      4.784  0.4778E+02  0.1183E+03
      4.844  0.5071E+02  0.1214E+03
      4.905  0.5445E+02  0.1247E+03
      4.966  0.5618E+02  0.1281E+03
      5.027  0.5630E+02  0.1316E+03
      5.088  0.5763E+02  0.1351E+03
      5.149  0.5596E+02  0.1385E+03
      5.210  0.4936E+02  0.1415E+03
      5.271  0.4286E+02  0.1441E+03
      5.332  0.3842E+02  0.1464E+03
      5.393  0.3332E+02  0.1485E+03
      5.453  0.2741E+02  0.1501E+03
      5.514  0.2455E+02  0.1516E+03
      5.575  0.2799E+02  0.1533E+03
      5.636  0.3681E+02  0.1556E+03
      5.697  0.4712E+02  0.1585E+03
      5.758  0.5502E+02  0.1618E+03
      5.819  0.5997E+02  0.1655E+03
      5.880  0.6419E+02  0.1694E+03
      5.941  0.6598E+02  0.1734E+03
      6.002  0.6633E+02  0.1774E+03
      6.063  0.6703E+02  0.1815E+03
      6.123  0.6629E+02  0.1855E+03
      6.184  0.6439E+02  0.1895E+03
      6.245  0.6286E+02  0.1933E+03
      6.306  0.6093E+02  0.1970E+03
      6.367  0.5839E+02  0.2006E+03
      6.428  0.5780E+02  0.2041E+03
      6.489  0.5821E+02  0.2076E+03
      6.550  0.5927E+02  0.2112E+03
      6.611  0.6120E+02  0.2150E+03
      6.672  0.6303E+02  0.2188E+03
      6.732  0.6350E+02  0.2227E+03
      6.793  0.6245E+02  0.2265E+03
      6.854  0.6143E+02  0.2302E+03
      6.915  0.6120E+02  0.2339E+03
      6.976  0.6320E+02  0.2378E+03
      7.037  0.6701E+02  0.2419E+03
      7.098  0.7029E+02  0.2462E+03
      7.159  0.6973E+02  0.2504E+03
      7.220  0.6390E+02  0.2543E+03
      7.281  0.5781E+02  0.2578E+03
      7.342  0.5557E+02  0.2612E+03
      7.402  0.5340E+02  0.2645E+03
      7.463  0.4988E+02  0.2675E+03
      7.524  0.4828E+02  0.2704E+03
      7.585  0.4769E+02  0.2733E+03
      7.646  0.4534E+02  0.2761E+03
      7.707  0.4138E+02  0.2786E+03
      7.768  0.3751E+02  0.2809E+03
      7.829  0.3611E+02  0.2831E+03
      7.890  0.3654E+02  0.2853E+03
      7.951  0.3759E+02  0.2876E+03
      8.012  0.3900E+02  0.2900E+03
      8.072  0.3848E+02  0.2923E+03
      8.133  0.3583E+02  0.2945E+03
      8.194  0.3345E+02  0.2966E+03
      8.255  0.3376E+02  0.2986E+03
      8.316  0.3510E+02  0.3007E+03
      8.377  0.3452E+02  0.3028E+03
      8.438  0.3334E+02  0.3049E+03
      8.499  0.3327E+02  0.3069E+03
      8.560  0.3291E+02  0.3089E+03
      8.621  0.3189E+02  0.3109E+03
      8.681  0.3208E+02  0.3128E+03
      8.742  0.3250E+02  0.3148E+03
      8.803  0.3182E+02  0.3167E+03
      8.864  0.3014E+02  0.3186E+03
      8.925  0.2767E+02  0.3202E+03
      8.986  0.2763E+02  0.3219E+03
      9.047  0.3121E+02  0.3238E+03
      9.108  0.3380E+02  0.3259E+03
      9.169  0.3344E+02  0.3279E+03
      9.230  0.3118E+02  0.3298E+03
      9.291  0.2756E+02  0.3315E+03
      9.351  0.2748E+02  0.3332E+03
      9.412  0.3323E+02  0.3352E+03
      9.473  0.3795E+02  0.3375E+03
      9.534  0.3870E+02  0.3399E+03
      9.595  0.3939E+02  0.3423E+03
      9.656  0.3947E+02  0.3447E+03
      9.717  0.4020E+02  0.3471E+03
      9.778  0.4546E+02  0.3499E+03
      9.839  0.4903E+02  0.3529E+03
      9.900  0.4643E+02  0.3557E+03
      9.960  0.4313E+02  0.3583E+03
     10.021  0.4374E+02  0.3610E+03
     10.082  0.4885E+02  0.3640E+03
     10.143  0.5325E+02  0.3672E+03
     10.204  0.5657E+02  0.3707E+03
     10.265  0.6276E+02  0.3745E+03
     10.326  0.6711E+02  0.3786E+03
     10.387  0.6471E+02  0.3825E+03
     10.448  0.6247E+02  0.3863E+03
     10.509  0.6834E+02  0.3905E+03
     10.570  0.7631E+02  0.3951E+03
     10.630  0.7761E+02  0.3998E+03
     10.691  0.7284E+02  0.4043E+03
     10.752  0.6804E+02  0.4084E+03
     10.813  0.6330E+02  0.4123E+03
     10.874  0.5551E+02  0.4157E+03
     10.935  0.4769E+02  0.4186E+03
     10.996  0.3897E+02  0.4209E+03
     11.057  0.2842E+02  0.4227E+03
     11.118  0.1843E+02  0.4238E+03
     11.179  0.9922E+01  0.4244E+03
     11.239  0.4981E+01  0.4247E+03
     11.300  0.4395E+01  0.4250E+03
     11.361  0.6173E+01  0.4253E+03
     11.422  0.8401E+01  0.4259E+03
     11.483  0.9844E+01  0.4265E+03
     11.544  0.1011E+02  0.4271E+03
     11.605  0.9430E+01  0.4276E+03
     11.666  0.7915E+01  0.4281E+03
     11.727  0.6858E+01  0.4285E+03
     11.788  0.6764E+01  0.4290E+03
     11.849  0.7042E+01  0.4294E+03
     11.909  0.7835E+01  0.4299E+03
     11.970  0.8031E+01  0.4304E+03
     12.031  0.6430E+01  0.4307E+03
     12.092  0.4490E+01  0.4310E+03
     12.153  0.4262E+01  0.4313E+03
     12.214  0.4955E+01  0.4316E+03
     12.275  0.5154E+01  0.4319E+03
     12.336  0.4866E+01  0.4322E+03
     12.397  0.5293E+01  0.4325E+03
     12.458  0.7205E+01  0.4330E+03
     12.518  0.8271E+01  0.4335E+03
     12.579  0.7257E+01  0.4339E+03
     12.640  0.5884E+01  0.4343E+03
     12.701  0.5636E+01  0.4346E+03
     12.762  0.5741E+01  0.4350E+03
     12.823  0.5879E+01  0.4353E+03
     12.884  0.5763E+01  0.4357E+03
     12.945  0.5444E+01  0.4360E+03
     13.006  0.5144E+01  0.4363E+03
     13.067  0.3927E+01  0.4365E+03
     13.128  0.2683E+01  0.4367E+03
     13.188  0.2132E+01  0.4368E+03
     13.249  0.2272E+01  0.4370E+03
     13.310  0.3244E+01  0.4372E+03
     13.371  0.3996E+01  0.4374E+03
     13.432  0.3568E+01  0.4376E+03
     13.493  0.2852E+01  0.4378E+03
     13.554  0.2606E+01  0.4380E+03
     13.615  0.2281E+01  0.4381E+03
     13.676  0.1561E+01  0.4382E+03
     13.737  0.1018E+01  0.4383E+03
     13.797  0.1033E+01  0.4383E+03
     13.858  0.1342E+01  0.4384E+03
     13.919  0.1453E+01  0.4385E+03
     13.980  0.1286E+01  0.4386E+03
     14.041  0.1343E+01  0.4387E+03
     14.102  0.1613E+01  0.4388E+03
     14.163  0.1694E+01  0.4389E+03
     14.224  0.1934E+01  0.4390E+03
     14.285  0.2033E+01  0.4391E+03
     14.346  0.1624E+01  0.4392E+03
     14.407  0.1171E+01  0.4393E+03
     14.467  0.8733E+00  0.4393E+03
     14.528  0.7077E+00  0.4394E+03
     14.589  0.9139E+00  0.4394E+03
     14.650  0.1361E+01  0.4395E+03
     14.711  0.1547E+01  0.4396E+03
     14.772  0.1288E+01  0.4397E+03
     14.833  0.6955E+00  0.4397E+03
     14.894  0.5138E+00  0.4398E+03
     14.955  0.9041E+00  0.4398E+03
     15.016  0.9600E+00  0.4399E+03
     15.076  0.6393E+00  0.4399E+03
     15.137  0.4369E+00  0.4399E+03
     15.198  0.3008E+00  0.4399E+03
     15.259  0.2338E+00  0.4400E+03
     15.320  0.2158E+00  0.4400E+03
     15.381  0.1785E+00  0.4400E+03
     15.442  0.1560E+00  0.4400E+03
     15.503  0.8110E-01  0.4400E+03
     15.564  0.4915E-02  0.4400E+03
     15.625 -0.7138E-02  0.4400E+03
     15.686 -0.1711E-02  0.4400E+03
     15.746 -0.1389E-03  0.4400E+03
     15.807 -0.4728E-05  0.4400E+03
     15.868 -0.7181E-07  0.4400E+03
     15.929 -0.4995E-09  0.4400E+03
     15.990 -0.1613E-11  0.4400E+03
     16.051 -0.2431E-14  0.4400E+03
     16.112  0.0000E+00  0.4400E+03
     16.173  0.0000E+00  0.4400E+03
     16.234  0.0000E+00  0.4400E+03
     16.295  0.0000E+00  0.4400E+03
     16.355  0.0000E+00  0.4400E+03
     16.416  0.0000E+00  0.4400E+03
