<?xml version="1.0" encoding="ISO-8859-1"?>
<modeling>
 <generator>
  <i name="program" type="string">vasp </i>
  <i name="version" type="string">5.4.1  </i>
  <i name="subversion" type="string">24Jun15 (build Feb 03 2017 16:24:58) complex                          parallel </i>
  <i name="platform" type="string">IFC91_ompi </i>
  <i name="date" type="string">2018 06 25 </i>
  <i name="time" type="string">17:31:02 </i>
 </generator>
 <incar>
  <i type="string" name="SYSTEM"> Ir_Ru</i>
  <i type="int" name="ISTART">     0</i>
  <i type="string" name="PREC">accurate</i>
  <i type="string" name="ALGO"> Very_Fast</i>
  <i type="int" name="ICHARG">     2</i>
  <i type="int" name="NELMIN">     5</i>
  <i type="int" name="IBRION">    -1</i>
  <i name="EDIFFG">      0.00001000</i>
  <i type="int" name="ISIF">     2</i>
  <i type="string" name="LREAL"> AUTO</i>
  <i type="int" name="ISMEAR">     1</i>
  <i name="SIGMA">      0.10000000</i>
  <v type="int" name="KPOINT_BSE">    -1     0     0     0</v>
 </incar>
 <kpoints>
  <generation param="Gamma">
   <v type="int" name="divisions">      18        4        3 </v>
   <v name="usershift">      0.00000000       0.00000000       0.00000000 </v>
   <v name="genvec1">      0.05555556       0.00000000      -0.00000000 </v>
   <v name="genvec2">      0.00000000       0.25000000       0.00000000 </v>
   <v name="genvec3">     -0.00000000       0.00000000       0.33333333 </v>
   <v name="shift">      0.00000000       0.00000000       0.00000000 </v>
  </generation>
  <varray name="kpointlist" >
   <v>       0.00000000       0.00000000       0.00000000 </v>
   <v>       0.05555556       0.00000000       0.00000000 </v>
   <v>       0.11111111       0.00000000       0.00000000 </v>
   <v>       0.16666667       0.00000000      -0.00000000 </v>
   <v>       0.22222222       0.00000000       0.00000000 </v>
   <v>       0.27777778       0.00000000      -0.00000000 </v>
   <v>       0.33333333       0.00000000       0.00000000 </v>
   <v>       0.38888889       0.00000000      -0.00000000 </v>
   <v>       0.44444444       0.00000000       0.00000000 </v>
   <v>       0.50000000       0.00000000       0.00000000 </v>
   <v>      -0.00000000       0.25000000       0.00000000 </v>
   <v>       0.05555556       0.25000000       0.00000000 </v>
   <v>       0.11111111       0.25000000      -0.00000000 </v>
   <v>       0.16666667       0.25000000       0.00000000 </v>
   <v>       0.22222222       0.25000000      -0.00000000 </v>
   <v>       0.27777778       0.25000000      -0.00000000 </v>
   <v>       0.33333333       0.25000000       0.00000000 </v>
   <v>       0.38888889       0.25000000       0.00000000 </v>
   <v>       0.44444444       0.25000000       0.00000000 </v>
   <v>       0.50000000       0.25000000       0.00000000 </v>
   <v>      -0.44444444       0.25000000       0.00000000 </v>
   <v>      -0.38888889       0.25000000       0.00000000 </v>
   <v>      -0.33333333       0.25000000       0.00000000 </v>
   <v>      -0.27777778       0.25000000      -0.00000000 </v>
   <v>      -0.22222222       0.25000000      -0.00000000 </v>
   <v>      -0.16666667       0.25000000       0.00000000 </v>
   <v>      -0.11111111       0.25000000      -0.00000000 </v>
   <v>      -0.05555556       0.25000000      -0.00000000 </v>
   <v>      -0.00000000       0.50000000       0.00000000 </v>
   <v>       0.05555556       0.50000000       0.00000000 </v>
   <v>       0.11111111       0.50000000       0.00000000 </v>
   <v>       0.16666667       0.50000000      -0.00000000 </v>
   <v>       0.22222222       0.50000000      -0.00000000 </v>
   <v>       0.27777778       0.50000000      -0.00000000 </v>
   <v>       0.33333333       0.50000000       0.00000000 </v>
   <v>       0.38888889       0.50000000      -0.00000000 </v>
   <v>       0.44444444       0.50000000      -0.00000000 </v>
   <v>       0.50000000       0.50000000       0.00000000 </v>
   <v>      -0.00000000      -0.00000000       0.33333333 </v>
   <v>       0.05555556      -0.00000000       0.33333333 </v>
   <v>       0.11111111       0.00000000       0.33333333 </v>
   <v>       0.16666667       0.00000000       0.33333333 </v>
   <v>       0.22222222       0.00000000       0.33333333 </v>
   <v>       0.27777778       0.00000000       0.33333333 </v>
   <v>       0.33333333       0.00000000       0.33333333 </v>
   <v>       0.38888889       0.00000000       0.33333333 </v>
   <v>       0.44444444      -0.00000000       0.33333333 </v>
   <v>       0.50000000      -0.00000000       0.33333333 </v>
   <v>      -0.44444444      -0.00000000       0.33333333 </v>
   <v>      -0.38888889      -0.00000000       0.33333333 </v>
   <v>      -0.33333333       0.00000000       0.33333333 </v>
   <v>      -0.27777778      -0.00000000       0.33333333 </v>
   <v>      -0.22222222      -0.00000000       0.33333333 </v>
   <v>      -0.16666667      -0.00000000       0.33333333 </v>
   <v>      -0.11111111      -0.00000000       0.33333333 </v>
   <v>      -0.05555556      -0.00000000       0.33333333 </v>
   <v>      -0.00000000       0.25000000       0.33333333 </v>
   <v>       0.05555556       0.25000000       0.33333333 </v>
   <v>       0.11111111       0.25000000       0.33333333 </v>
   <v>       0.16666667       0.25000000       0.33333333 </v>
   <v>       0.22222222       0.25000000       0.33333333 </v>
   <v>       0.27777778       0.25000000       0.33333333 </v>
   <v>       0.33333333       0.25000000       0.33333333 </v>
   <v>       0.38888889       0.25000000       0.33333333 </v>
   <v>       0.44444444       0.25000000       0.33333333 </v>
   <v>       0.50000000       0.25000000       0.33333333 </v>
   <v>      -0.44444444       0.25000000       0.33333333 </v>
   <v>      -0.38888889       0.25000000       0.33333333 </v>
   <v>      -0.33333333       0.25000000       0.33333333 </v>
   <v>      -0.27777778       0.25000000       0.33333333 </v>
   <v>      -0.22222222       0.25000000       0.33333333 </v>
   <v>      -0.16666667       0.25000000       0.33333333 </v>
   <v>      -0.11111111       0.25000000       0.33333333 </v>
   <v>      -0.05555556       0.25000000       0.33333333 </v>
   <v>       0.00000000       0.50000000       0.33333333 </v>
   <v>       0.05555556       0.50000000       0.33333333 </v>
   <v>       0.11111111       0.50000000       0.33333333 </v>
   <v>       0.16666667       0.50000000       0.33333333 </v>
   <v>       0.22222222       0.50000000       0.33333333 </v>
   <v>       0.27777778       0.50000000       0.33333333 </v>
   <v>       0.33333333       0.50000000       0.33333333 </v>
   <v>       0.38888889       0.50000000       0.33333333 </v>
   <v>       0.44444444       0.50000000       0.33333333 </v>
   <v>       0.50000000       0.50000000       0.33333333 </v>
   <v>      -0.44444444       0.50000000       0.33333333 </v>
   <v>      -0.38888889       0.50000000       0.33333333 </v>
   <v>      -0.33333333       0.50000000       0.33333333 </v>
   <v>      -0.27777778       0.50000000       0.33333333 </v>
   <v>      -0.22222222       0.50000000       0.33333333 </v>
   <v>      -0.16666667       0.50000000       0.33333333 </v>
   <v>      -0.11111111       0.50000000       0.33333333 </v>
   <v>      -0.05555556       0.50000000       0.33333333 </v>
   <v>       0.00000000      -0.25000000       0.33333333 </v>
   <v>       0.05555556      -0.25000000       0.33333333 </v>
   <v>       0.11111111      -0.25000000       0.33333333 </v>
   <v>       0.16666667      -0.25000000       0.33333333 </v>
   <v>       0.22222222      -0.25000000       0.33333333 </v>
   <v>       0.27777778      -0.25000000       0.33333333 </v>
   <v>       0.33333333      -0.25000000       0.33333333 </v>
   <v>       0.38888889      -0.25000000       0.33333333 </v>
   <v>       0.44444444      -0.25000000       0.33333333 </v>
   <v>       0.50000000      -0.25000000       0.33333333 </v>
   <v>      -0.44444444      -0.25000000       0.33333333 </v>
   <v>      -0.38888889      -0.25000000       0.33333333 </v>
   <v>      -0.33333333      -0.25000000       0.33333333 </v>
   <v>      -0.27777778      -0.25000000       0.33333333 </v>
   <v>      -0.22222222      -0.25000000       0.33333333 </v>
   <v>      -0.16666667      -0.25000000       0.33333333 </v>
   <v>      -0.11111111      -0.25000000       0.33333333 </v>
   <v>      -0.05555556      -0.25000000       0.33333333 </v>
  </varray>
  <varray name="weights" >
   <v>       0.00462963 </v>
   <v>       0.00925926 </v>
   <v>       0.00925926 </v>
   <v>       0.00925926 </v>
   <v>       0.00925926 </v>
   <v>       0.00925926 </v>
   <v>       0.00925926 </v>
   <v>       0.00925926 </v>
   <v>       0.00925926 </v>
   <v>       0.00462963 </v>
   <v>       0.00925926 </v>
   <v>       0.00925926 </v>
   <v>       0.00925926 </v>
   <v>       0.00925926 </v>
   <v>       0.00925926 </v>
   <v>       0.00925926 </v>
   <v>       0.00925926 </v>
   <v>       0.00925926 </v>
   <v>       0.00925926 </v>
   <v>       0.00925926 </v>
   <v>       0.00925926 </v>
   <v>       0.00925926 </v>
   <v>       0.00925926 </v>
   <v>       0.00925926 </v>
   <v>       0.00925926 </v>
   <v>       0.00925926 </v>
   <v>       0.00925926 </v>
   <v>       0.00925926 </v>
   <v>       0.00462963 </v>
   <v>       0.00925926 </v>
   <v>       0.00925926 </v>
   <v>       0.00925926 </v>
   <v>       0.00925926 </v>
   <v>       0.00925926 </v>
   <v>       0.00925926 </v>
   <v>       0.00925926 </v>
   <v>       0.00925926 </v>
   <v>       0.00462963 </v>
   <v>       0.00925926 </v>
   <v>       0.00925926 </v>
   <v>       0.00925926 </v>
   <v>       0.00925926 </v>
   <v>       0.00925926 </v>
   <v>       0.00925926 </v>
   <v>       0.00925926 </v>
   <v>       0.00925926 </v>
   <v>       0.00925926 </v>
   <v>       0.00925926 </v>
   <v>       0.00925926 </v>
   <v>       0.00925926 </v>
   <v>       0.00925926 </v>
   <v>       0.00925926 </v>
   <v>       0.00925926 </v>
   <v>       0.00925926 </v>
   <v>       0.00925926 </v>
   <v>       0.00925926 </v>
   <v>       0.00925926 </v>
   <v>       0.00925926 </v>
   <v>       0.00925926 </v>
   <v>       0.00925926 </v>
   <v>       0.00925926 </v>
   <v>       0.00925926 </v>
   <v>       0.00925926 </v>
   <v>       0.00925926 </v>
   <v>       0.00925926 </v>
   <v>       0.00925926 </v>
   <v>       0.00925926 </v>
   <v>       0.00925926 </v>
   <v>       0.00925926 </v>
   <v>       0.00925926 </v>
   <v>       0.00925926 </v>
   <v>       0.00925926 </v>
   <v>       0.00925926 </v>
   <v>       0.00925926 </v>
   <v>       0.00925926 </v>
   <v>       0.00925926 </v>
   <v>       0.00925926 </v>
   <v>       0.00925926 </v>
   <v>       0.00925926 </v>
   <v>       0.00925926 </v>
   <v>       0.00925926 </v>
   <v>       0.00925926 </v>
   <v>       0.00925926 </v>
   <v>       0.00925926 </v>
   <v>       0.00925926 </v>
   <v>       0.00925926 </v>
   <v>       0.00925926 </v>
   <v>       0.00925926 </v>
   <v>       0.00925926 </v>
   <v>       0.00925926 </v>
   <v>       0.00925926 </v>
   <v>       0.00925926 </v>
   <v>       0.00925926 </v>
   <v>       0.00925926 </v>
   <v>       0.00925926 </v>
   <v>       0.00925926 </v>
   <v>       0.00925926 </v>
   <v>       0.00925926 </v>
   <v>       0.00925926 </v>
   <v>       0.00925926 </v>
   <v>       0.00925926 </v>
   <v>       0.00925926 </v>
   <v>       0.00925926 </v>
   <v>       0.00925926 </v>
   <v>       0.00925926 </v>
   <v>       0.00925926 </v>
   <v>       0.00925926 </v>
   <v>       0.00925926 </v>
   <v>       0.00925926 </v>
   <v>       0.00925926 </v>
  </varray>
 </kpoints>
 <parameters>
  <separator name="general" >
   <i type="string" name="SYSTEM">Ir_Ru</i>
   <i type="logical" name="LCOMPAT"> F  </i>
  </separator>
  <separator name="electronic" >
   <i type="string" name="PREC">accura</i>
   <i name="ENMAX">    210.87000000</i>
   <i name="ENAUG">    318.96200000</i>
   <i name="EDIFF">      0.00010000</i>
   <i type="int" name="IALGO">    48</i>
   <i type="int" name="IWAVPR">    10</i>
   <i type="int" name="NBANDS">   220</i>
   <i name="NELECT">    360.00000000</i>
   <i type="int" name="TURBO">     0</i>
   <i type="int" name="IRESTART">     0</i>
   <i type="int" name="NREBOOT">     0</i>
   <i type="int" name="NMIN">     0</i>
   <i name="EREF">      0.00000000</i>
   <separator name="electronic smearing" >
    <i type="int" name="ISMEAR">     1</i>
    <i name="SIGMA">      0.10000000</i>
    <i name="KSPACING">      0.50000000</i>
    <i type="logical" name="KGAMMA"> T  </i>
   </separator>
   <separator name="electronic projectors" >
    <i type="logical" name="LREAL"> T  </i>
    <v name="ROPT">     -0.00025000</v>
    <i type="int" name="LMAXPAW">  -100</i>
    <i type="int" name="LMAXMIX">     2</i>
    <i type="logical" name="NLSPLINE"> F  </i>
   </separator>
   <separator name="electronic startup" >
    <i type="int" name="ISTART">     0</i>
    <i type="int" name="ICHARG">     2</i>
    <i type="int" name="INIWAV">     1</i>
   </separator>
   <separator name="electronic spin" >
    <i type="int" name="ISPIN">     1</i>
    <i type="logical" name="LNONCOLLINEAR"> F  </i>
    <v name="MAGMOM">      1.00000000      1.00000000      1.00000000      1.00000000      1.00000000      1.00000000      1.00000000      1.00000000      1.00000000      1.00000000      1.00000000      1.00000000      1.00000000      1.00000000      1.00000000      1.00000000      1.00000000      1.00000000      1.00000000      1.00000000
      1.00000000      1.00000000      1.00000000      1.00000000      1.00000000      1.00000000      1.00000000      1.00000000      1.00000000      1.00000000      1.00000000      1.00000000      1.00000000      1.00000000      1.00000000      1.00000000      1.00000000      1.00000000      1.00000000      1.00000000
</v>
    <i name="NUPDOWN">     -1.00000000</i>
    <i type="logical" name="LSORBIT"> F  </i>
    <v name="SAXIS">      0.00000000      0.00000000      1.00000000</v>
    <i type="logical" name="LSPIRAL"> F  </i>
    <v name="QSPIRAL">      0.00000000      0.00000000      0.00000000</v>
    <i type="logical" name="LZEROZ"> F  </i>
   </separator>
   <separator name="electronic exchange-correlation" >
    <i type="logical" name="LASPH"> F  </i>
    <i type="logical" name="LMETAGGA"> F  </i>
   </separator>
   <separator name="electronic convergence" >
    <i type="int" name="NELM">    60</i>
    <i type="int" name="NELMDL">   -12</i>
    <i type="int" name="NELMIN">     5</i>
    <i name="ENINI">    210.87000000</i>
    <separator name="electronic convergence detail" >
     <i type="logical" name="LDIAG"> T  </i>
     <i type="logical" name="LSUBROT"> F  </i>
     <i name="WEIMIN">      0.00000000</i>
     <i name="EBREAK">      0.00000000</i>
     <i name="DEPER">      0.30000000</i>
     <i type="int" name="NRMM">     4</i>
     <i name="TIME">      0.40000000</i>
    </separator>
   </separator>
   <separator name="electronic mixer" >
    <i name="AMIX">      0.40000000</i>
    <i name="BMIX">      1.00000000</i>
    <i name="AMIN">      0.10000000</i>
    <i name="AMIX_MAG">      1.60000000</i>
    <i name="BMIX_MAG">      1.00000000</i>
    <separator name="electronic mixer details" >
     <i type="int" name="IMIX">     4</i>
     <i type="logical" name="MIXFIRST"> F  </i>
     <i type="int" name="MAXMIX">   -45</i>
     <i name="WC">    100.00000000</i>
     <i type="int" name="INIMIX">     1</i>
     <i type="int" name="MIXPRE">     1</i>
     <i type="int" name="MREMOVE">     5</i>
    </separator>
   </separator>
   <separator name="electronic dipolcorrection" >
    <i type="logical" name="LDIPOL"> F  </i>
    <i type="logical" name="LMONO"> F  </i>
    <i type="int" name="IDIPOL">     0</i>
    <i name="EPSILON">      1.00000000</i>
    <v name="DIPOL">   -100.00000000   -100.00000000   -100.00000000</v>
    <i name="EFIELD">      0.00000000</i>
   </separator>
  </separator>
  <separator name="grids" >
   <i type="int" name="NGX">    14</i>
   <i type="int" name="NGY">    64</i>
   <i type="int" name="NGZ">    90</i>
   <i type="int" name="NGXF">    28</i>
   <i type="int" name="NGYF">   128</i>
   <i type="int" name="NGZF">   180</i>
   <i type="logical" name="ADDGRID"> F  </i>
  </separator>
  <separator name="ionic" >
   <i type="int" name="NSW">     0</i>
   <i type="int" name="IBRION">    -1</i>
   <i type="int" name="ISIF">     2</i>
   <i name="PSTRESS">      0.00000000</i>
   <i name="EDIFFG">      0.00001000</i>
   <i type="int" name="NFREE">     0</i>
   <i name="POTIM">      0.50000000</i>
   <i name="SMASS">     -3.00000000</i>
   <i name="SCALEE">      1.00000000</i>
  </separator>
  <separator name="ionic md" >
   <i name="TEBEG">      0.00010000</i>
   <i name="TEEND">      0.00010000</i>
   <i type="int" name="NBLOCK">     1</i>
   <i type="int" name="KBLOCK">     1</i>
   <i type="int" name="NPACO">   256</i>
   <i name="APACO">     16.00000000</i>
  </separator>
  <separator name="symmetry" >
   <i type="int" name="ISYM">     2</i>
   <i name="SYMPREC">      0.00001000</i>
  </separator>
  <separator name="dos" >
   <i type="logical" name="LORBIT"> F  </i>
   <v name="RWIGS">     -1.00000000</v>
   <i type="int" name="NEDOS">   301</i>
   <i name="EMIN">     10.00000000</i>
   <i name="EMAX">    -10.00000000</i>
   <i name="EFERMI">      0.00000000</i>
  </separator>
  <separator name="writing" >
   <i type="int" name="NWRITE">     2</i>
   <i type="logical" name="LWAVE"> T  </i>
   <i type="logical" name="LCHARG"> T  </i>
   <i type="logical" name="LPARD"> F  </i>
   <i type="logical" name="LVTOT"> F  </i>
   <i type="logical" name="LVHAR"> F  </i>
   <i type="logical" name="LELF"> F  </i>
   <i type="logical" name="LOPTICS"> F  </i>
   <v name="STM">      0.00000000      0.00000000      0.00000000      0.00000000      0.00000000      0.00000000      0.00000000</v>
  </separator>
  <separator name="performance" >
   <i type="int" name="NPAR">    20</i>
   <i type="int" name="NSIM">     4</i>
   <i type="int" name="NBLK">    -1</i>
   <i type="logical" name="LPLANE"> T  </i>
   <i type="logical" name="LSCALAPACK"> T  </i>
   <i type="logical" name="LSCAAWARE"> F  </i>
   <i type="logical" name="LSCALU"> F  </i>
   <i type="logical" name="LASYNC"> F  </i>
   <i type="logical" name="LORBITALREAL"> F  </i>
  </separator>
  <separator name="miscellaneous" >
   <i type="int" name="IDIOT">     3</i>
   <i type="logical" name="LMUSIC"> F  </i>
   <v name="POMASS">    192.22000000</v>
   <v name="DARWINR">      0.00000000</v>
   <v name="DARWINV">      1.00000000</v>
   <i type="logical" name="LCORR"> T  </i>
  </separator>
  <i type="logical" name="GGA_COMPAT"> T  </i>
  <i type="logical" name="LBERRY"> F  </i>
  <i type="int" name="ICORELEVEL">     0</i>
  <i type="logical" name="LDAU"> F  </i>
  <i type="int" name="I_CONSTRAINED_M">     0</i>
  <separator name="electronic exchange-correlation" >
   <i type="string" name="GGA">--</i>
   <i type="int" name="VOSKOWN">     0</i>
   <i type="logical" name="LHFCALC"> F  </i>
   <i type="string" name="PRECFOCK"></i>
   <i type="logical" name="LSYMGRAD"> F  </i>
   <i type="logical" name="LHFONE"> F  </i>
   <i type="logical" name="LRHFCALC"> F  </i>
   <i type="logical" name="LTHOMAS"> F  </i>
   <i type="logical" name="LMODELHF"> F  </i>
   <i name="ENCUT4O">     -1.00000000</i>
   <i type="int" name="EXXOEP">     0</i>
   <i type="int" name="FOURORBIT">     0</i>
   <i name="AEXX">      0.00000000</i>
   <i name="HFALPHA">      0.00000000</i>
   <i name="MCALPHA">      0.00000000</i>
   <i name="ALDAX">      1.00000000</i>
   <i name="AGGAX">      1.00000000</i>
   <i name="ALDAC">      1.00000000</i>
   <i name="AGGAC">      1.00000000</i>
   <i type="int" name="NKREDX">     1</i>
   <i type="int" name="NKREDY">     1</i>
   <i type="int" name="NKREDZ">     1</i>
   <i type="logical" name="SHIFTRED"> F  </i>
   <i type="logical" name="ODDONLY"> F  </i>
   <i type="logical" name="EVENONLY"> F  </i>
   <i type="int" name="LMAXFOCK">     0</i>
   <i type="int" name="NMAXFOCKAE">     0</i>
   <i type="logical" name="LFOCKAEDFT"> F  </i>
   <i name="HFSCREEN">      0.00000000</i>
   <i name="HFSCREENC">      0.00000000</i>
   <i type="int" name="NBANDSGWLOW">     0</i>
  </separator>
  <separator name="vdW DFT" >
   <i type="logical" name="LUSE_VDW"> F  </i>
   <i name="Zab_VDW">     -0.84910000</i>
   <i name="PARAM1">      0.12340000</i>
   <i name="PARAM2">      1.00000000</i>
   <i name="PARAM3">      0.00000000</i>
  </separator>
  <separator name="model GW" >
   <i type="int" name="MODEL_GW">     0</i>
   <i name="MODEL_EPS0">      8.75619272</i>
   <i name="MODEL_ALPHA">      1.00000000</i>
  </separator>
  <separator name="linear response parameters" >
   <i type="logical" name="LEPSILON"> F  </i>
   <i type="logical" name="LRPA"> F  </i>
   <i type="logical" name="LNABLA"> F  </i>
   <i type="logical" name="LVEL"> F  </i>
   <i type="int" name="KINTER">     0</i>
   <i name="CSHIFT">      0.10000000</i>
   <i name="OMEGAMAX">     -1.00000000</i>
   <i name="DEG_THRESHOLD">      0.00200000</i>
  </separator>
  <separator name="orbital magnetization" >
   <i type="logical" name="NUCIND"> F  </i>
   <v name="MAGPOS">      0.00000000      0.00000000      0.00000000</v>
   <i type="logical" name="LNICSALL"> T  </i>
   <i type="logical" name="ORBITALMAG"> F  </i>
   <i type="logical" name="LMAGBLOCH"> F  </i>
   <i type="logical" name="LCHIMAG"> F  </i>
   <i type="logical" name="LGAUGE"> T  </i>
   <i type="int" name="MAGATOM">     0</i>
   <v name="MAGDIPOL">      0.00000000      0.00000000      0.00000000</v>
   <v name="AVECCONST">      0.00000000      0.00000000      0.00000000</v>
  </separator>
  <separator name="response functions" >
   <i type="logical" name="LADDER"> F  </i>
   <i type="logical" name="LFXC"> F  </i>
   <i type="logical" name="LHARTREE"> T  </i>
   <i type="int" name="IBSE">     0</i>
   <v type="int" name="KPOINT">    -1     0     0     0</v>
   <i type="logical" name="LTCTE"> F  </i>
   <i type="logical" name="LTETE"> F  </i>
   <i type="logical" name="LTRIPLET"> F  </i>
   <i type="logical" name="LFXCEPS"> F  </i>
   <i type="logical" name="LFXHEG"> F  </i>
   <i type="int" name="NATURALO">     0</i>
   <i type="logical" name="L2ORDER"> F  </i>
   <i type="logical" name="LUSEW"> F  </i>
   <i name="ENCUTGW">     -2.00000000</i>
   <i name="ENCUTGWSOFT">     -2.00000000</i>
   <i name="ENCUTLF">     -1.00000000</i>
   <i type="int" name="LMAXMP2">    -1</i>
   <i name="SCISSOR">      0.00000000</i>
   <i type="int" name="NOMEGA">     0</i>
   <i type="int" name="NOMEGAR">     0</i>
   <i type="int" name="NBANDSGW">    -1</i>
   <i type="int" name="NBANDSO">    -1</i>
   <i type="int" name="NBANDSV">    -1</i>
   <i type="int" name="NELM">     1</i>
   <i type="int" name="NELMHF">     1</i>
   <i type="int" name="DIM">     3</i>
   <i type="int" name="ANTIRES">     0</i>
   <i name="OMEGAMAX">    -30.00000000</i>
   <i name="OMEGAMIN">    -30.00000000</i>
   <i name="OMEGATL">   -200.00000000</i>
   <i type="int" name="OMEGAGRID">     0</i>
   <i name="CSHIFT">     -0.10000000</i>
   <i type="logical" name="SELFENERGY"> F  </i>
   <i type="logical" name="LSPECTRAL"> F  </i>
   <i type="logical" name="LSPECTRALGW"> F  </i>
   <i type="logical" name="LSINGLES"> F  </i>
   <i type="logical" name="LFERMIGW"> F  </i>
   <i type="logical" name="ODDONLYGW"> F  </i>
   <i type="logical" name="EVENONLYGW"> F  </i>
   <i type="int" name="NKREDLFX">     1</i>
   <i type="int" name="NKREDLFY">     1</i>
   <i type="int" name="NKREDLFZ">     1</i>
   <i type="int" name="MAXMEM">  1800</i>
   <i type="int" name="TELESCOPE">     0</i>
   <i type="int" name="TAUPAR">     1</i>
   <i type="int" name="OMEGAPAR">    -1</i>
   <i name="LAMBDA">      1.00000000</i>
  </separator>
  <separator name="External order field" >
   <i name="OFIELD_KAPPA">      0.00000000</i>
   <v name="OFIELD_K">      0.00000000      0.00000000      0.00000000</v>
   <i name="OFIELD_Q6_NEAR">      0.00000000</i>
   <i name="OFIELD_Q6_FAR">      0.00000000</i>
   <i name="OFIELD_A">      0.00000000</i>
  </separator>
 </parameters>
 <atominfo>
  <atoms>      40 </atoms>
  <types>       1 </types>
  <array name="atoms" >
   <dimension dim="1">ion</dimension>
   <field type="string">element</field>
   <field type="int">atomtype</field>
   <set>
    <rc><c>Ir</c><c>   1</c></rc>
    <rc><c>Ir</c><c>   1</c></rc>
    <rc><c>Ir</c><c>   1</c></rc>
    <rc><c>Ir</c><c>   1</c></rc>
    <rc><c>Ir</c><c>   1</c></rc>
    <rc><c>Ir</c><c>   1</c></rc>
    <rc><c>Ir</c><c>   1</c></rc>
    <rc><c>Ir</c><c>   1</c></rc>
    <rc><c>Ir</c><c>   1</c></rc>
    <rc><c>Ir</c><c>   1</c></rc>
    <rc><c>Ir</c><c>   1</c></rc>
    <rc><c>Ir</c><c>   1</c></rc>
    <rc><c>Ir</c><c>   1</c></rc>
    <rc><c>Ir</c><c>   1</c></rc>
    <rc><c>Ir</c><c>   1</c></rc>
    <rc><c>Ir</c><c>   1</c></rc>
    <rc><c>Ir</c><c>   1</c></rc>
    <rc><c>Ir</c><c>   1</c></rc>
    <rc><c>Ir</c><c>   1</c></rc>
    <rc><c>Ir</c><c>   1</c></rc>
    <rc><c>Ir</c><c>   1</c></rc>
    <rc><c>Ir</c><c>   1</c></rc>
    <rc><c>Ir</c><c>   1</c></rc>
    <rc><c>Ir</c><c>   1</c></rc>
    <rc><c>Ir</c><c>   1</c></rc>
    <rc><c>Ir</c><c>   1</c></rc>
    <rc><c>Ir</c><c>   1</c></rc>
    <rc><c>Ir</c><c>   1</c></rc>
    <rc><c>Ir</c><c>   1</c></rc>
    <rc><c>Ir</c><c>   1</c></rc>
    <rc><c>Ir</c><c>   1</c></rc>
    <rc><c>Ir</c><c>   1</c></rc>
    <rc><c>Ir</c><c>   1</c></rc>
    <rc><c>Ir</c><c>   1</c></rc>
    <rc><c>Ir</c><c>   1</c></rc>
    <rc><c>Ir</c><c>   1</c></rc>
    <rc><c>Ir</c><c>   1</c></rc>
    <rc><c>Ir</c><c>   1</c></rc>
    <rc><c>Ir</c><c>   1</c></rc>
    <rc><c>Ir</c><c>   1</c></rc>
   </set>
  </array>
  <array name="atomtypes" >
   <dimension dim="1">type</dimension>
   <field type="int">atomspertype</field>
   <field type="string">element</field>
   <field>mass</field>
   <field>valence</field>
   <field type="string">pseudopotential</field>
   <set>
    <rc><c>  40</c><c>Ir</c><c>    192.22000000</c><c>      9.00000000</c><c> PAW_PBE Ir 06Sep2000                   </c></rc>
   </set>
  </array>
 </atominfo>
 <structure name="initialpos" >
  <crystal>
   <varray name="basis" >
    <v>      -1.37355000      -2.37861000       0.00108000 </v>
    <v>      10.99177000      -4.76530000      -4.45480000 </v>
    <v>      -0.01048000       0.02192000      17.86424000 </v>
   </varray>
   <i name="volume">    583.74618118 </i>
   <varray name="rec_basis" >
    <v>      -0.14566402      -0.33629844       0.00032720 </v>
    <v>       0.07279205      -0.04203439       0.00009428 </v>
    <v>       0.01816094      -0.01046177       0.05600124 </v>
   </varray>
  </crystal>
  <varray name="positions" >
   <v>       0.82545000       0.58633000       0.14581750 </v>
   <v>       0.30653200       0.68138400       0.29746600 </v>
   <v>       0.40071600       0.79994200       0.20011800 </v>
   <v>       0.93406200       0.86662400       0.34179100 </v>
   <v>       0.60071600       0.19994200       0.05011800 </v>
   <v>       0.13406200       0.26662400       0.19179100 </v>
   <v>       0.20071600       0.39994200       0.10011800 </v>
   <v>       0.73406200       0.46662400       0.24179100 </v>
   <v>       0.00071600       0.99994200       0.00011800 </v>
   <v>       0.53406200       0.06662400       0.14179100 </v>
   <v>       0.80071600       0.59994200       0.40011800 </v>
   <v>       0.33406200       0.66662400       0.54179100 </v>
   <v>       0.40071600       0.79994200       0.45011800 </v>
   <v>       0.93406200       0.86662400       0.59179100 </v>
   <v>       0.60071600       0.19994200       0.30011800 </v>
   <v>       0.13406200       0.26662400       0.44179100 </v>
   <v>       0.19758600       0.39955200       0.35002050 </v>
   <v>       0.73406200       0.46662400       0.49179100 </v>
   <v>       0.00071600       0.99994200       0.25011800 </v>
   <v>       0.53406200       0.06662400       0.39179100 </v>
   <v>       0.79758600       0.59955200       0.65002050 </v>
   <v>       0.33406200       0.66662400       0.79179100 </v>
   <v>       0.38315200       0.80723400       0.69908350 </v>
   <v>       0.93406200       0.86662400       0.84179100 </v>
   <v>       0.60071600       0.19994200       0.55011800 </v>
   <v>       0.13406200       0.26662400       0.69179100 </v>
   <v>       0.20071600       0.39994200       0.60011800 </v>
   <v>       0.73406200       0.46662400       0.74179100 </v>
   <v>       0.00071600       0.99994200       0.50011800 </v>
   <v>       0.53406200       0.06662400       0.64179100 </v>
   <v>       0.80071600       0.59994200       0.90011800 </v>
   <v>       0.33406200       0.66662400       0.04179100 </v>
   <v>       0.40074000       0.79995000       0.95422250 </v>
   <v>       0.93403600       0.86662200       0.09248050 </v>
   <v>       0.60068200       0.19993400       0.79510850 </v>
   <v>       0.13412200       0.26663400       0.94588850 </v>
   <v>       0.17240600       0.39528200       0.84895550 </v>
   <v>       0.73406200       0.46662400       0.99179100 </v>
   <v>       0.00071600       0.99994200       0.75011800 </v>
   <v>       0.53406200       0.06662400       0.89179100 </v>
  </varray>
 </structure>
 <calculation>
  <scstep>
   <time name="diag">    8.94    8.94</time>
   <time name="diis">   16.55   16.89</time>
   <time name="orth">    1.62    1.72</time>
   <time name="total">   27.16   27.61</time>
   <energy>
    <i name="alphaZ">   3123.36402835 </i>
    <i name="ewald"> -27549.34737685 </i>
    <i name="hartreedc">  -1652.88667351 </i>
    <i name="XCdc">   -678.16728103 </i>
    <i name="pawpsdc">  18291.61144257 </i>
    <i name="pawaedc"> -16662.81639025 </i>
    <i name="eentropy">      0.00342901 </i>
    <i name="bandstr">   5101.20582340 </i>
    <i name="atom">  22406.04795833 </i>
    <i name="e_fr_energy">   2379.01496002 </i>
    <i name="e_wo_entrp">   2379.01153101 </i>
    <i name="e_0_energy">   2379.01381701 </i>
   </energy>
  </scstep>
  <scstep>
   <time name="diag">    9.03    9.10</time>
   <time name="diis">   16.72   16.94</time>
   <time name="orth">    1.48    1.48</time>
   <time name="total">   27.23   27.52</time>
   <energy>
    <i name="e_fr_energy">    289.61919659 </i>
    <i name="e_wo_entrp">    289.61602397 </i>
    <i name="e_0_energy">    289.61813905 </i>
   </energy>
  </scstep>
  <scstep>
   <time name="diag">    9.25    9.35</time>
   <time name="diis">   16.59   16.96</time>
   <time name="orth">    1.47    1.47</time>
   <time name="total">   27.33   27.79</time>
   <energy>
    <i name="e_fr_energy">   -136.12653219 </i>
    <i name="e_wo_entrp">   -136.12853002 </i>
    <i name="e_0_energy">   -136.12719813 </i>
   </energy>
  </scstep>
  <scstep>
   <time name="diag">    9.25    9.34</time>
   <time name="diis">   16.56   16.87</time>
   <time name="orth">    1.48    1.48</time>
   <time name="total">   27.29   27.69</time>
   <energy>
    <i name="e_fr_energy">   -271.66685503 </i>
    <i name="e_wo_entrp">   -271.66474585 </i>
    <i name="e_0_energy">   -271.66615197 </i>
   </energy>
  </scstep>
  <scstep>
   <time name="diag">    9.27    9.37</time>
   <time name="diis">   16.59   16.88</time>
   <time name="orth">    1.48    1.48</time>
   <time name="total">   27.35   27.73</time>
   <energy>
    <i name="e_fr_energy">   -317.25208718 </i>
    <i name="e_wo_entrp">   -317.24930204 </i>
    <i name="e_0_energy">   -317.25115880 </i>
   </energy>
  </scstep>
  <scstep>
   <time name="diag">    9.10    9.17</time>
   <time name="diis">   16.58   16.94</time>
   <time name="orth">    1.48    1.48</time>
   <time name="total">   27.16   27.60</time>
   <energy>
    <i name="e_fr_energy">   -340.40397089 </i>
    <i name="e_wo_entrp">   -340.40523273 </i>
    <i name="e_0_energy">   -340.40439150 </i>
   </energy>
  </scstep>
  <scstep>
   <time name="diag">    8.93    8.93</time>
   <time name="diis">   16.63   16.82</time>
   <time name="orth">    1.94    2.04</time>
   <time name="total">   27.52   27.80</time>
   <energy>
    <i name="e_fr_energy">   -352.34324074 </i>
    <i name="e_wo_entrp">   -352.34415436 </i>
    <i name="e_0_energy">   -352.34354528 </i>
   </energy>
  </scstep>
  <scstep>
   <time name="diag">    9.09    9.10</time>
   <time name="diis">   16.61   16.77</time>
   <time name="orth">    1.47    1.47</time>
   <time name="total">   27.17   27.36</time>
   <energy>
    <i name="e_fr_energy">   -359.36333015 </i>
    <i name="e_wo_entrp">   -359.36572372 </i>
    <i name="e_0_energy">   -359.36412801 </i>
   </energy>
  </scstep>
  <scstep>
   <time name="diag">    9.66    9.68</time>
   <time name="diis">   43.97   44.40</time>
   <time name="orth">    1.48    1.48</time>
   <time name="total">   55.11   55.57</time>
   <energy>
    <i name="e_fr_energy">   -369.94988770 </i>
    <i name="e_wo_entrp">   -369.95527997 </i>
    <i name="e_0_energy">   -369.95168512 </i>
   </energy>
  </scstep>
  <scstep>
   <time name="diag">    9.62    9.71</time>
   <time name="diis">   47.27   47.85</time>
   <time name="orth">    1.48    1.48</time>
   <time name="total">   58.38   59.04</time>
   <energy>
    <i name="e_fr_energy">   -371.68733667 </i>
    <i name="e_wo_entrp">   -371.70060464 </i>
    <i name="e_0_energy">   -371.69175933 </i>
   </energy>
  </scstep>
  <scstep>
   <time name="diag">    9.39    9.65</time>
   <time name="diis">   47.39   47.94</time>
   <time name="orth">    1.48    1.48</time>
   <time name="total">   58.26   59.07</time>
   <energy>
    <i name="e_fr_energy">   -372.11915683 </i>
    <i name="e_wo_entrp">   -372.13238028 </i>
    <i name="e_0_energy">   -372.12356465 </i>
   </energy>
  </scstep>
  <scstep>
   <time name="diag">    9.56    9.65</time>
   <time name="diis">   47.08   47.83</time>
   <time name="orth">    1.48    1.48</time>
   <time name="total">   59.61   60.44</time>
   <energy>
    <i name="e_fr_energy">   -372.20797075 </i>
    <i name="e_wo_entrp">   -372.22041674 </i>
    <i name="e_0_energy">   -372.21211941 </i>
   </energy>
  </scstep>
  <scstep>
   <time name="diag">    9.50    9.66</time>
   <time name="diis">   35.40   35.71</time>
   <time name="orth">    1.48    1.48</time>
   <time name="total">   47.91   48.38</time>
   <energy>
    <i name="e_fr_energy">   -354.12272355 </i>
    <i name="e_wo_entrp">   -354.13373233 </i>
    <i name="e_0_energy">   -354.12639314 </i>
   </energy>
  </scstep>
  <scstep>
   <time name="diag">    9.23    9.37</time>
   <time name="diis">   38.02   38.40</time>
   <time name="orth">    1.84    2.02</time>
   <time name="total">   50.55   51.35</time>
   <energy>
    <i name="e_fr_energy">   -363.73296089 </i>
    <i name="e_wo_entrp">   -363.73107674 </i>
    <i name="e_0_energy">   -363.73233284 </i>
   </energy>
  </scstep>
  <scstep>
   <time name="diag">    8.93    8.93</time>
   <time name="diis">   38.17   38.68</time>
   <time name="orth">    1.48    1.48</time>
   <time name="total">   50.12   50.62</time>
   <energy>
    <i name="e_fr_energy">   -353.05493318 </i>
    <i name="e_wo_entrp">   -353.06126295 </i>
    <i name="e_0_energy">   -353.05704310 </i>
   </energy>
  </scstep>
  <scstep>
   <time name="diag">    9.52    9.68</time>
   <time name="diis">   38.35   38.81</time>
   <time name="orth">    1.48    1.48</time>
   <time name="total">   51.04   51.68</time>
   <energy>
    <i name="e_fr_energy">   -350.96039360 </i>
    <i name="e_wo_entrp">   -350.97017803 </i>
    <i name="e_0_energy">   -350.96365508 </i>
   </energy>
  </scstep>
  <scstep>
   <time name="diag">    9.12    9.13</time>
   <time name="diis">   40.41   41.10</time>
   <time name="orth">    1.48    1.48</time>
   <time name="total">   52.59   53.29</time>
   <energy>
    <i name="e_fr_energy">   -350.82504967 </i>
    <i name="e_wo_entrp">   -350.83403545 </i>
    <i name="e_0_energy">   -350.82804493 </i>
   </energy>
  </scstep>
  <scstep>
   <time name="diag">    9.26    9.36</time>
   <time name="diis">   40.31   40.61</time>
   <time name="orth">    1.93    2.03</time>
   <time name="total">   53.05   53.55</time>
   <energy>
    <i name="e_fr_energy">   -350.76989171 </i>
    <i name="e_wo_entrp">   -350.77863305 </i>
    <i name="e_0_energy">   -350.77280549 </i>
   </energy>
  </scstep>
  <scstep>
   <time name="diag">    9.10    9.10</time>
   <time name="diis">   36.29   37.04</time>
   <time name="orth">    1.48    1.48</time>
   <time name="total">   48.42   49.16</time>
   <energy>
    <i name="e_fr_energy">   -350.66084377 </i>
    <i name="e_wo_entrp">   -350.67013255 </i>
    <i name="e_0_energy">   -350.66394003 </i>
   </energy>
  </scstep>
  <scstep>
   <time name="diag">    9.37    9.47</time>
   <time name="diis">   36.80   37.37</time>
   <time name="orth">    1.48    1.48</time>
   <time name="total">   49.19   49.86</time>
   <energy>
    <i name="e_fr_energy">   -350.61278349 </i>
    <i name="e_wo_entrp">   -350.62212369 </i>
    <i name="e_0_energy">   -350.61589689 </i>
   </energy>
  </scstep>
  <scstep>
   <time name="diag">    9.33    9.35</time>
   <time name="diis">   39.01   39.25</time>
   <time name="orth">    1.92    2.01</time>
   <time name="total">   51.76   52.19</time>
   <energy>
    <i name="e_fr_energy">   -350.60340931 </i>
    <i name="e_wo_entrp">   -350.61275022 </i>
    <i name="e_0_energy">   -350.60652295 </i>
   </energy>
  </scstep>
  <scstep>
   <time name="diag">    8.94    8.94</time>
   <time name="diis">   37.47   38.06</time>
   <time name="orth">    1.48    1.48</time>
   <time name="total">   49.44   50.02</time>
   <energy>
    <i name="e_fr_energy">   -350.59316926 </i>
    <i name="e_wo_entrp">   -350.60253617 </i>
    <i name="e_0_energy">   -350.59629156 </i>
   </energy>
  </scstep>
  <scstep>
   <time name="diag">    9.60    9.69</time>
   <time name="diis">   37.86   38.27</time>
   <time name="orth">    1.48    1.48</time>
   <time name="total">   50.51   51.01</time>
   <energy>
    <i name="e_fr_energy">   -350.59185503 </i>
    <i name="e_wo_entrp">   -350.60117887 </i>
    <i name="e_0_energy">   -350.59496297 </i>
   </energy>
  </scstep>
  <scstep>
   <time name="diag">    9.27    9.36</time>
   <time name="diis">   43.36   44.13</time>
   <time name="orth">    1.48    1.48</time>
   <time name="total">   55.65   56.51</time>
   <energy>
    <i name="e_fr_energy">   -350.59191818 </i>
    <i name="e_wo_entrp">   -350.60124776 </i>
    <i name="e_0_energy">   -350.59502804 </i>
   </energy>
  </scstep>
  <scstep>
   <time name="diag">    9.24    9.40</time>
   <time name="diis">   39.09   39.41</time>
   <time name="orth">    1.91    2.01</time>
   <time name="total">   50.29   50.86</time>
   <energy>
    <i name="alphaZ">   3123.36402835 </i>
    <i name="ewald"> -27549.34737685 </i>
    <i name="hartreedc">  -1281.50685806 </i>
    <i name="XCdc">   -682.37960083 </i>
    <i name="pawpsdc">  20596.85417950 </i>
    <i name="pawaedc"> -19088.05639587 </i>
    <i name="eentropy">      0.00934264 </i>
    <i name="bandstr">   2124.42282591 </i>
    <i name="atom">  22406.04795833 </i>
    <i name="e_fr_energy">   -350.59189689 </i>
    <i name="e_wo_entrp">   -350.60123953 </i>
    <i name="e_0_energy">   -350.59501110 </i>
   </energy>
  </scstep>
  <structure>
   <crystal>
    <varray name="basis" >
     <v>      -1.37355000      -2.37861000       0.00108000 </v>
     <v>      10.99177000      -4.76530000      -4.45480000 </v>
     <v>      -0.01048000       0.02192000      17.86424000 </v>
    </varray>
    <i name="volume">    583.74618118 </i>
    <varray name="rec_basis" >
     <v>      -0.14566402      -0.33629844       0.00032720 </v>
     <v>       0.07279205      -0.04203439       0.00009428 </v>
     <v>       0.01816094      -0.01046177       0.05600124 </v>
    </varray>
   </crystal>
   <varray name="positions" >
    <v>       0.82545000       0.58633000       0.14581750 </v>
    <v>       0.30653200       0.68138400       0.29746600 </v>
    <v>       0.40071600       0.79994200       0.20011800 </v>
    <v>       0.93406200       0.86662400       0.34179100 </v>
    <v>       0.60071600       0.19994200       0.05011800 </v>
    <v>       0.13406200       0.26662400       0.19179100 </v>
    <v>       0.20071600       0.39994200       0.10011800 </v>
    <v>       0.73406200       0.46662400       0.24179100 </v>
    <v>       0.00071600       0.99994200       0.00011800 </v>
    <v>       0.53406200       0.06662400       0.14179100 </v>
    <v>       0.80071600       0.59994200       0.40011800 </v>
    <v>       0.33406200       0.66662400       0.54179100 </v>
    <v>       0.40071600       0.79994200       0.45011800 </v>
    <v>       0.93406200       0.86662400       0.59179100 </v>
    <v>       0.60071600       0.19994200       0.30011800 </v>
    <v>       0.13406200       0.26662400       0.44179100 </v>
    <v>       0.19758600       0.39955200       0.35002050 </v>
    <v>       0.73406200       0.46662400       0.49179100 </v>
    <v>       0.00071600       0.99994200       0.25011800 </v>
    <v>       0.53406200       0.06662400       0.39179100 </v>
    <v>       0.79758600       0.59955200       0.65002050 </v>
    <v>       0.33406200       0.66662400       0.79179100 </v>
    <v>       0.38315200       0.80723400       0.69908350 </v>
    <v>       0.93406200       0.86662400       0.84179100 </v>
    <v>       0.60071600       0.19994200       0.55011800 </v>
    <v>       0.13406200       0.26662400       0.69179100 </v>
    <v>       0.20071600       0.39994200       0.60011800 </v>
    <v>       0.73406200       0.46662400       0.74179100 </v>
    <v>       0.00071600       0.99994200       0.50011800 </v>
    <v>       0.53406200       0.06662400       0.64179100 </v>
    <v>       0.80071600       0.59994200       0.90011800 </v>
    <v>       0.33406200       0.66662400       0.04179100 </v>
    <v>       0.40074000       0.79995000       0.95422250 </v>
    <v>       0.93403600       0.86662200       0.09248050 </v>
    <v>       0.60068200       0.19993400       0.79510850 </v>
    <v>       0.13412200       0.26663400       0.94588850 </v>
    <v>       0.17240600       0.39528200       0.84895550 </v>
    <v>       0.73406200       0.46662400       0.99179100 </v>
    <v>       0.00071600       0.99994200       0.75011800 </v>
    <v>       0.53406200       0.06662400       0.89179100 </v>
   </varray>
  </structure>
  <varray name="forces" >
   <v>       2.56498012      -0.49619432       0.45645388 </v>
   <v>      -2.80177936       0.50706684      -0.67549449 </v>
   <v>      -0.21158599       0.12229924      -0.19263422 </v>
   <v>       1.01833666      -0.16604303      -0.07767215 </v>
   <v>      -0.29025747       0.14568169       0.30740151 </v>
   <v>       0.03395980      -0.01503835       0.07836419 </v>
   <v>      -0.73163614       0.06352922       0.24195857 </v>
   <v>       0.13406437      -0.06035810       0.37437097 </v>
   <v>      -0.12550724       0.07018933       0.02557658 </v>
   <v>       0.11181346      -0.03908816       0.00693336 </v>
   <v>       0.14117960       0.21514501      -0.14364953 </v>
   <v>       0.01326125       0.01793778       0.11845171 </v>
   <v>       0.31480392      -0.16641852       0.59201563 </v>
   <v>       0.23649987       0.10037533      -0.44962875 </v>
   <v>      -0.09112737       0.01739743       0.07672739 </v>
   <v>       0.07076074      -0.00035781      -0.05866193 </v>
   <v>       0.10585688      -0.14850632      -0.06197386 </v>
   <v>       0.02378347       0.00640315       0.03648273 </v>
   <v>       0.01074064      -0.00161192       0.01467944 </v>
   <v>       0.15312281      -0.06654431      -0.00012056 </v>
   <v>       0.26862692      -0.18337064       0.04345699 </v>
   <v>       0.19832048      -0.07304977      -0.10082292 </v>
   <v>      -1.33996387       0.19717858       0.79772105 </v>
   <v>      -0.07811947       0.17672234       0.17585408 </v>
   <v>       0.01702207       0.02156039      -0.12314334 </v>
   <v>       0.04780131      -0.03731129      -0.52153506 </v>
   <v>       0.05263050      -0.02417387      -0.00644896 </v>
   <v>       0.15526253       0.10303280       0.07035109 </v>
   <v>       0.07940137      -0.02925282      -0.01070424 </v>
   <v>      -0.13723182       0.09366080      -0.27567262 </v>
   <v>      -0.05531706       0.10330224      -0.03487071 </v>
   <v>      -0.37179821      -0.03345979       0.35916981 </v>
   <v>       0.00976550       0.00958874      -1.04467774 </v>
   <v>       0.06792997      -0.05037997       0.19750259 </v>
   <v>      -0.00904202       0.18173736       1.40807490 </v>
   <v>      -0.14654850       0.09062078      -1.16472126 </v>
   <v>       0.23130693      -0.82908705       0.17665857 </v>
   <v>      -0.22301251       0.32819735      -0.63892598 </v>
   <v>       0.41672013      -0.07153079       0.09390251 </v>
   <v>       0.13497576      -0.07984961      -0.07074924 </v>
  </varray>
  <varray name="stress" >
   <v>      -8.42089098      -2.52384057       0.92329401 </v>
   <v>      -2.52384076     -21.95548254      -0.34674282 </v>
   <v>       0.92329408      -0.34674268     -22.38388970 </v>
  </varray>
  <energy>
   <i name="e_fr_energy">   -350.59189689 </i>
   <i name="e_wo_entrp">   -350.59501110 </i>
   <i name="e_0_energy">      0.00934264 </i>
  </energy>
  <time name="totalsc"> 1195.54 1210.07</time>
  <eigenvalues>
   <array>
    <dimension dim="1">band</dimension>
    <dimension dim="2">kpoint</dimension>
    <dimension dim="3">spin</dimension>
    <field>eigene</field>
    <field>occ</field>
    <set>
     <set comment="spin 1">
      <set comment="kpoint 1">
       <r>   -0.8551    1.0000 </r>
       <r>   -0.1391    1.0000 </r>
       <r>   -0.0786    1.0000 </r>
       <r>    0.5002    1.0000 </r>
       <r>    0.5622    1.0000 </r>
       <r>    0.5910    1.0000 </r>
       <r>    0.5929    1.0000 </r>
       <r>    1.5589    1.0000 </r>
       <r>    1.5931    1.0000 </r>
       <r>    1.6447    1.0000 </r>
       <r>    1.6675    1.0000 </r>
       <r>    1.7260    1.0000 </r>
       <r>    1.7348    1.0000 </r>
       <r>    2.1203    1.0000 </r>
       <r>    2.1806    1.0000 </r>
       <r>    2.2119    1.0000 </r>
       <r>    2.2215    1.0000 </r>
       <r>    2.2558    1.0000 </r>
       <r>    2.2713    1.0000 </r>
       <r>    2.3098    1.0000 </r>
       <r>    2.4653    1.0000 </r>
       <r>    2.4678    1.0000 </r>
       <r>    2.5964    1.0000 </r>
       <r>    2.6163    1.0000 </r>
       <r>    2.7232    1.0000 </r>
       <r>    2.7542    1.0000 </r>
       <r>    2.7767    1.0000 </r>
       <r>    2.7921    1.0000 </r>
       <r>    2.8504    1.0000 </r>
       <r>    2.8780    1.0000 </r>
       <r>    2.9046    1.0000 </r>
       <r>    2.9262    1.0000 </r>
       <r>    2.9652    1.0000 </r>
       <r>    2.9845    1.0000 </r>
       <r>    3.1299    1.0000 </r>
       <r>    3.2278    1.0000 </r>
       <r>    3.2438    1.0000 </r>
       <r>    3.3124    1.0000 </r>
       <r>    3.5118    1.0000 </r>
       <r>    3.5574    1.0000 </r>
       <r>    3.6101    1.0000 </r>
       <r>    3.7117    1.0000 </r>
       <r>    4.1661    1.0000 </r>
       <r>    4.2223    1.0000 </r>
       <r>    4.2408    1.0000 </r>
       <r>    4.2515    1.0000 </r>
       <r>    4.2675    1.0000 </r>
       <r>    4.3074    1.0000 </r>
       <r>    4.4772    1.0000 </r>
       <r>    4.5252    1.0000 </r>
       <r>    4.5366    1.0000 </r>
       <r>    4.5828    1.0000 </r>
       <r>    4.5995    1.0000 </r>
       <r>    4.6232    1.0000 </r>
       <r>    4.6416    1.0000 </r>
       <r>    4.7116    1.0000 </r>
       <r>    4.8675    1.0000 </r>
       <r>    4.8815    1.0000 </r>
       <r>    5.2102    1.0000 </r>
       <r>    5.2321    1.0000 </r>
       <r>    5.3043    1.0000 </r>
       <r>    5.3443    1.0000 </r>
       <r>    5.3529    1.0000 </r>
       <r>    5.3719    1.0000 </r>
       <r>    5.4079    1.0000 </r>
       <r>    5.4335    1.0000 </r>
       <r>    5.4764    1.0000 </r>
       <r>    5.5236    1.0000 </r>
       <r>    5.5647    1.0000 </r>
       <r>    5.5958    1.0000 </r>
       <r>    5.6562    1.0000 </r>
       <r>    5.7210    1.0000 </r>
       <r>    5.7447    1.0000 </r>
       <r>    5.7849    1.0000 </r>
       <r>    5.8338    1.0000 </r>
       <r>    5.8782    1.0000 </r>
       <r>    5.9021    1.0000 </r>
       <r>    5.9705    1.0000 </r>
       <r>    6.0358    1.0000 </r>
       <r>    6.0614    1.0000 </r>
       <r>    6.0822    1.0000 </r>
       <r>    6.1161    1.0000 </r>
       <r>    6.1296    1.0000 </r>
       <r>    6.1455    1.0000 </r>
       <r>    6.1515    1.0000 </r>
       <r>    6.1596    1.0000 </r>
       <r>    6.1956    1.0000 </r>
       <r>    6.2038    1.0000 </r>
       <r>    6.2146    1.0000 </r>
       <r>    6.2279    1.0000 </r>
       <r>    6.2420    1.0000 </r>
       <r>    6.2696    1.0000 </r>
       <r>    6.2855    1.0000 </r>
       <r>    6.3069    1.0000 </r>
       <r>    6.3399    1.0000 </r>
       <r>    6.3665    1.0000 </r>
       <r>    6.3980    1.0000 </r>
       <r>    6.4460    1.0000 </r>
       <r>    6.4625    1.0000 </r>
       <r>    6.4665    1.0000 </r>
       <r>    6.4743    1.0000 </r>
       <r>    6.5257    1.0000 </r>
       <r>    6.5347    1.0000 </r>
       <r>    6.5736    1.0000 </r>
       <r>    6.6079    1.0000 </r>
       <r>    6.6331    1.0000 </r>
       <r>    6.6403    1.0000 </r>
       <r>    6.6525    1.0000 </r>
       <r>    6.6594    1.0000 </r>
       <r>    6.6810    1.0000 </r>
       <r>    6.7127    1.0000 </r>
       <r>    6.7151    1.0000 </r>
       <r>    6.7299    1.0000 </r>
       <r>    6.7448    1.0000 </r>
       <r>    6.7793    1.0000 </r>
       <r>    6.7870    1.0000 </r>
       <r>    6.8124    1.0000 </r>
       <r>    6.8861    1.0000 </r>
       <r>    6.9198    1.0000 </r>
       <r>    6.9226    1.0000 </r>
       <r>    6.9390    1.0000 </r>
       <r>    6.9461    1.0000 </r>
       <r>    6.9541    1.0000 </r>
       <r>    6.9895    1.0000 </r>
       <r>    7.0033    1.0000 </r>
       <r>    7.0214    1.0000 </r>
       <r>    7.0349    1.0000 </r>
       <r>    7.0577    1.0000 </r>
       <r>    7.1098    1.0000 </r>
       <r>    7.1788    1.0000 </r>
       <r>    7.1967    1.0000 </r>
       <r>    7.2526    1.0000 </r>
       <r>    7.2551    1.0000 </r>
       <r>    7.3195    1.0000 </r>
       <r>    7.3373    1.0000 </r>
       <r>    7.3988    1.0000 </r>
       <r>    7.4381    1.0000 </r>
       <r>    7.4570    1.0000 </r>
       <r>    7.4957    1.0000 </r>
       <r>    7.5909    1.0000 </r>
       <r>    7.5952    1.0000 </r>
       <r>    7.6891    1.0000 </r>
       <r>    7.7022    1.0000 </r>
       <r>    7.7178    1.0000 </r>
       <r>    7.7247    1.0000 </r>
       <r>    7.7388    1.0000 </r>
       <r>    7.7707    1.0000 </r>
       <r>    7.7866    1.0000 </r>
       <r>    7.8725    1.0000 </r>
       <r>    7.9572    1.0000 </r>
       <r>    7.9962    1.0000 </r>
       <r>    8.0159    1.0000 </r>
       <r>    8.0985    1.0000 </r>
       <r>    8.1560    1.0000 </r>
       <r>    8.2389    1.0000 </r>
       <r>    8.2597    1.0000 </r>
       <r>    8.2944    1.0000 </r>
       <r>    8.3191    1.0000 </r>
       <r>    8.3560    1.0000 </r>
       <r>    8.3827    1.0000 </r>
       <r>    8.4182    1.0000 </r>
       <r>    8.4419    1.0000 </r>
       <r>    8.5316    1.0000 </r>
       <r>    8.6214    1.0000 </r>
       <r>    8.7084    1.0000 </r>
       <r>    8.7340    1.0000 </r>
       <r>    8.7405    1.0000 </r>
       <r>    9.0172    1.0000 </r>
       <r>    9.0693    1.0000 </r>
       <r>    9.1405    1.0000 </r>
       <r>    9.1543    1.0000 </r>
       <r>    9.2193    1.0000 </r>
       <r>    9.2894    1.0000 </r>
       <r>    9.3087    1.0000 </r>
       <r>    9.4369    1.0000 </r>
       <r>    9.4688    1.0000 </r>
       <r>    9.5012    1.0000 </r>
       <r>    9.5292    1.0000 </r>
       <r>    9.6068    1.0000 </r>
       <r>    9.6276    1.0000 </r>
       <r>    9.6353    1.0000 </r>
       <r>    9.6561    1.0000 </r>
       <r>    9.6812    1.0000 </r>
       <r>    9.6882    1.0000 </r>
       <r>    9.7178    1.0003 </r>
       <r>    9.7232    1.0003 </r>
       <r>    9.7329    1.0005 </r>
       <r>    9.7452    1.0010 </r>
       <r>    9.7602    1.0019 </r>
       <r>    9.7892    1.0057 </r>
       <r>    9.8319    1.0197 </r>
       <r>    9.8509    1.0284 </r>
       <r>   10.0565    0.0929 </r>
       <r>   10.0937   -0.0184 </r>
       <r>   10.1650   -0.0205 </r>
       <r>   10.1862   -0.0119 </r>
       <r>   10.2235   -0.0034 </r>
       <r>   10.2643   -0.0006 </r>
       <r>   10.2913   -0.0001 </r>
       <r>   10.2994   -0.0001 </r>
       <r>   10.3677   -0.0000 </r>
       <r>   10.3975   -0.0000 </r>
       <r>   10.4043   -0.0000 </r>
       <r>   10.4373   -0.0000 </r>
       <r>   10.4642   -0.0000 </r>
       <r>   10.5003   -0.0000 </r>
       <r>   10.5109   -0.0000 </r>
       <r>   10.5395   -0.0000 </r>
       <r>   10.5482   -0.0000 </r>
       <r>   10.5907   -0.0000 </r>
       <r>   10.5945   -0.0000 </r>
       <r>   10.6336   -0.0000 </r>
       <r>   10.6443   -0.0000 </r>
       <r>   10.6629   -0.0000 </r>
       <r>   10.7081   -0.0000 </r>
       <r>   10.7527   -0.0000 </r>
       <r>   10.7728   -0.0000 </r>
       <r>   10.8092   -0.0000 </r>
       <r>   10.8931   -0.0000 </r>
       <r>   10.9362   -0.0000 </r>
      </set>
      <set comment="kpoint 2">
       <r>   -0.7654    1.0000 </r>
       <r>   -0.0601    1.0000 </r>
       <r>    0.0120    1.0000 </r>
       <r>    0.5431    1.0000 </r>
       <r>    0.6015    1.0000 </r>
       <r>    0.6999    1.0000 </r>
       <r>    0.7159    1.0000 </r>
       <r>    1.6038    1.0000 </r>
       <r>    1.6842    1.0000 </r>
       <r>    1.7045    1.0000 </r>
       <r>    1.7496    1.0000 </r>
       <r>    1.8101    1.0000 </r>
       <r>    1.8330    1.0000 </r>
       <r>    2.2001    1.0000 </r>
       <r>    2.2565    1.0000 </r>
       <r>    2.2943    1.0000 </r>
       <r>    2.3053    1.0000 </r>
       <r>    2.3375    1.0000 </r>
       <r>    2.3447    1.0000 </r>
       <r>    2.3846    1.0000 </r>
       <r>    2.5427    1.0000 </r>
       <r>    2.5453    1.0000 </r>
       <r>    2.6760    1.0000 </r>
       <r>    2.7202    1.0000 </r>
       <r>    2.7970    1.0000 </r>
       <r>    2.8210    1.0000 </r>
       <r>    2.8459    1.0000 </r>
       <r>    2.8596    1.0000 </r>
       <r>    2.9020    1.0000 </r>
       <r>    2.9713    1.0000 </r>
       <r>    2.9929    1.0000 </r>
       <r>    3.0208    1.0000 </r>
       <r>    3.0559    1.0000 </r>
       <r>    3.0732    1.0000 </r>
       <r>    3.1960    1.0000 </r>
       <r>    3.3139    1.0000 </r>
       <r>    3.3308    1.0000 </r>
       <r>    3.4167    1.0000 </r>
       <r>    3.6061    1.0000 </r>
       <r>    3.6130    1.0000 </r>
       <r>    3.6624    1.0000 </r>
       <r>    3.7229    1.0000 </r>
       <r>    4.1669    1.0000 </r>
       <r>    4.1978    1.0000 </r>
       <r>    4.2515    1.0000 </r>
       <r>    4.2804    1.0000 </r>
       <r>    4.2891    1.0000 </r>
       <r>    4.3342    1.0000 </r>
       <r>    4.4147    1.0000 </r>
       <r>    4.5115    1.0000 </r>
       <r>    4.5544    1.0000 </r>
       <r>    4.6076    1.0000 </r>
       <r>    4.6217    1.0000 </r>
       <r>    4.6454    1.0000 </r>
       <r>    4.6751    1.0000 </r>
       <r>    4.7439    1.0000 </r>
       <r>    4.8847    1.0000 </r>
       <r>    4.9289    1.0000 </r>
       <r>    5.1188    1.0000 </r>
       <r>    5.1650    1.0000 </r>
       <r>    5.2296    1.0000 </r>
       <r>    5.2727    1.0000 </r>
       <r>    5.2931    1.0000 </r>
       <r>    5.3133    1.0000 </r>
       <r>    5.3315    1.0000 </r>
       <r>    5.3617    1.0000 </r>
       <r>    5.3892    1.0000 </r>
       <r>    5.4464    1.0000 </r>
       <r>    5.4985    1.0000 </r>
       <r>    5.5558    1.0000 </r>
       <r>    5.5925    1.0000 </r>
       <r>    5.6781    1.0000 </r>
       <r>    5.7351    1.0000 </r>
       <r>    5.7683    1.0000 </r>
       <r>    5.8170    1.0000 </r>
       <r>    5.8630    1.0000 </r>
       <r>    5.8749    1.0000 </r>
       <r>    5.9291    1.0000 </r>
       <r>    5.9692    1.0000 </r>
       <r>    5.9973    1.0000 </r>
       <r>    6.0197    1.0000 </r>
       <r>    6.0328    1.0000 </r>
       <r>    6.0637    1.0000 </r>
       <r>    6.0865    1.0000 </r>
       <r>    6.1286    1.0000 </r>
       <r>    6.1394    1.0000 </r>
       <r>    6.1751    1.0000 </r>
       <r>    6.2007    1.0000 </r>
       <r>    6.2073    1.0000 </r>
       <r>    6.2181    1.0000 </r>
       <r>    6.2367    1.0000 </r>
       <r>    6.2591    1.0000 </r>
       <r>    6.2785    1.0000 </r>
       <r>    6.3150    1.0000 </r>
       <r>    6.3211    1.0000 </r>
       <r>    6.3411    1.0000 </r>
       <r>    6.3738    1.0000 </r>
       <r>    6.3806    1.0000 </r>
       <r>    6.4032    1.0000 </r>
       <r>    6.4278    1.0000 </r>
       <r>    6.4422    1.0000 </r>
       <r>    6.4484    1.0000 </r>
       <r>    6.4632    1.0000 </r>
       <r>    6.4831    1.0000 </r>
       <r>    6.5075    1.0000 </r>
       <r>    6.5485    1.0000 </r>
       <r>    6.5657    1.0000 </r>
       <r>    6.5835    1.0000 </r>
       <r>    6.6215    1.0000 </r>
       <r>    6.6490    1.0000 </r>
       <r>    6.6640    1.0000 </r>
       <r>    6.6892    1.0000 </r>
       <r>    6.7065    1.0000 </r>
       <r>    6.7479    1.0000 </r>
       <r>    6.7864    1.0000 </r>
       <r>    6.8039    1.0000 </r>
       <r>    6.8187    1.0000 </r>
       <r>    6.8460    1.0000 </r>
       <r>    6.8609    1.0000 </r>
       <r>    6.8678    1.0000 </r>
       <r>    6.8838    1.0000 </r>
       <r>    6.9054    1.0000 </r>
       <r>    6.9139    1.0000 </r>
       <r>    6.9409    1.0000 </r>
       <r>    6.9576    1.0000 </r>
       <r>    6.9660    1.0000 </r>
       <r>    7.0015    1.0000 </r>
       <r>    7.0127    1.0000 </r>
       <r>    7.0641    1.0000 </r>
       <r>    7.2153    1.0000 </r>
       <r>    7.2368    1.0000 </r>
       <r>    7.2840    1.0000 </r>
       <r>    7.3035    1.0000 </r>
       <r>    7.3474    1.0000 </r>
       <r>    7.3689    1.0000 </r>
       <r>    7.3879    1.0000 </r>
       <r>    7.4638    1.0000 </r>
       <r>    7.4826    1.0000 </r>
       <r>    7.4991    1.0000 </r>
       <r>    7.5730    1.0000 </r>
       <r>    7.5813    1.0000 </r>
       <r>    7.6244    1.0000 </r>
       <r>    7.6322    1.0000 </r>
       <r>    7.6598    1.0000 </r>
       <r>    7.6816    1.0000 </r>
       <r>    7.7056    1.0000 </r>
       <r>    7.7418    1.0000 </r>
       <r>    7.7631    1.0000 </r>
       <r>    7.8002    1.0000 </r>
       <r>    7.8515    1.0000 </r>
       <r>    7.8916    1.0000 </r>
       <r>    8.0576    1.0000 </r>
       <r>    8.1266    1.0000 </r>
       <r>    8.2107    1.0000 </r>
       <r>    8.2598    1.0000 </r>
       <r>    8.2946    1.0000 </r>
       <r>    8.3075    1.0000 </r>
       <r>    8.3297    1.0000 </r>
       <r>    8.3483    1.0000 </r>
       <r>    8.3891    1.0000 </r>
       <r>    8.4160    1.0000 </r>
       <r>    8.4349    1.0000 </r>
       <r>    8.5298    1.0000 </r>
       <r>    8.6480    1.0000 </r>
       <r>    8.6860    1.0000 </r>
       <r>    8.7058    1.0000 </r>
       <r>    8.7492    1.0000 </r>
       <r>    8.8206    1.0000 </r>
       <r>    8.8593    1.0000 </r>
       <r>    8.8960    1.0000 </r>
       <r>    9.0284    1.0000 </r>
       <r>    9.1102    1.0000 </r>
       <r>    9.1236    1.0000 </r>
       <r>    9.1652    1.0000 </r>
       <r>    9.4265    1.0000 </r>
       <r>    9.4613    1.0000 </r>
       <r>    9.4865    1.0000 </r>
       <r>    9.5185    1.0000 </r>
       <r>    9.6303    1.0000 </r>
       <r>    9.6609    1.0000 </r>
       <r>    9.6736    1.0000 </r>
       <r>    9.7028    1.0001 </r>
       <r>    9.7112    1.0002 </r>
       <r>    9.7250    1.0004 </r>
       <r>    9.7596    1.0018 </r>
       <r>    9.7822    1.0044 </r>
       <r>    9.8051    1.0096 </r>
       <r>    9.8188    1.0143 </r>
       <r>    9.8514    1.0286 </r>
       <r>    9.9427    0.9039 </r>
       <r>    9.9567    0.8265 </r>
       <r>    9.9782    0.6743 </r>
       <r>   10.0036    0.4632 </r>
       <r>   10.1346   -0.0333 </r>
       <r>   10.1469   -0.0287 </r>
       <r>   10.1682   -0.0190 </r>
       <r>   10.1956   -0.0090 </r>
       <r>   10.2373   -0.0019 </r>
       <r>   10.2835   -0.0002 </r>
       <r>   10.3103   -0.0000 </r>
       <r>   10.3215   -0.0000 </r>
       <r>   10.3663   -0.0000 </r>
       <r>   10.4000   -0.0000 </r>
       <r>   10.4835   -0.0000 </r>
       <r>   10.5225   -0.0000 </r>
       <r>   10.5632   -0.0000 </r>
       <r>   10.5709   -0.0000 </r>
       <r>   10.6018   -0.0000 </r>
       <r>   10.6085   -0.0000 </r>
       <r>   10.6252   -0.0000 </r>
       <r>   10.6536   -0.0000 </r>
       <r>   10.6852   -0.0000 </r>
       <r>   10.7008   -0.0000 </r>
       <r>   10.7368   -0.0000 </r>
       <r>   10.7438   -0.0000 </r>
       <r>   10.7689   -0.0000 </r>
       <r>   10.8114   -0.0000 </r>
       <r>   10.8281   -0.0000 </r>
       <r>   10.8430   -0.0000 </r>
       <r>   11.0590   -0.0000 </r>
      </set>
      <set comment="kpoint 3">
       <r>   -0.5014    1.0000 </r>
       <r>    0.1750    1.0000 </r>
       <r>    0.2712    1.0000 </r>
       <r>    0.7123    1.0000 </r>
       <r>    0.7742    1.0000 </r>
       <r>    0.9719    1.0000 </r>
       <r>    1.0019    1.0000 </r>
       <r>    1.7636    1.0000 </r>
       <r>    1.8880    1.0000 </r>
       <r>    1.9031    1.0000 </r>
       <r>    1.9839    1.0000 </r>
       <r>    2.0497    1.0000 </r>
       <r>    2.0790    1.0000 </r>
       <r>    2.4286    1.0000 </r>
       <r>    2.4840    1.0000 </r>
       <r>    2.5069    1.0000 </r>
       <r>    2.5409    1.0000 </r>
       <r>    2.5583    1.0000 </r>
       <r>    2.5748    1.0000 </r>
       <r>    2.6008    1.0000 </r>
       <r>    2.7602    1.0000 </r>
       <r>    2.7638    1.0000 </r>
       <r>    2.9115    1.0000 </r>
       <r>    2.9699    1.0000 </r>
       <r>    2.9914    1.0000 </r>
       <r>    3.0076    1.0000 </r>
       <r>    3.0249    1.0000 </r>
       <r>    3.0348    1.0000 </r>
       <r>    3.0726    1.0000 </r>
       <r>    3.2036    1.0000 </r>
       <r>    3.2342    1.0000 </r>
       <r>    3.2753    1.0000 </r>
       <r>    3.3121    1.0000 </r>
       <r>    3.3378    1.0000 </r>
       <r>    3.3677    1.0000 </r>
       <r>    3.5364    1.0000 </r>
       <r>    3.5837    1.0000 </r>
       <r>    3.6058    1.0000 </r>
       <r>    3.7116    1.0000 </r>
       <r>    3.7451    1.0000 </r>
       <r>    3.8809    1.0000 </r>
       <r>    3.9492    1.0000 </r>
       <r>    4.0604    1.0000 </r>
       <r>    4.0960    1.0000 </r>
       <r>    4.2309    1.0000 </r>
       <r>    4.2758    1.0000 </r>
       <r>    4.3364    1.0000 </r>
       <r>    4.3798    1.0000 </r>
       <r>    4.4189    1.0000 </r>
       <r>    4.4617    1.0000 </r>
       <r>    4.6551    1.0000 </r>
       <r>    4.6989    1.0000 </r>
       <r>    4.7336    1.0000 </r>
       <r>    4.7522    1.0000 </r>
       <r>    4.7794    1.0000 </r>
       <r>    4.8404    1.0000 </r>
       <r>    4.8866    1.0000 </r>
       <r>    4.9488    1.0000 </r>
       <r>    5.0049    1.0000 </r>
       <r>    5.0364    1.0000 </r>
       <r>    5.0612    1.0000 </r>
       <r>    5.0689    1.0000 </r>
       <r>    5.0877    1.0000 </r>
       <r>    5.1224    1.0000 </r>
       <r>    5.1521    1.0000 </r>
       <r>    5.2039    1.0000 </r>
       <r>    5.2272    1.0000 </r>
       <r>    5.2530    1.0000 </r>
       <r>    5.3392    1.0000 </r>
       <r>    5.3860    1.0000 </r>
       <r>    5.4581    1.0000 </r>
       <r>    5.6112    1.0000 </r>
       <r>    5.6400    1.0000 </r>
       <r>    5.7004    1.0000 </r>
       <r>    5.7219    1.0000 </r>
       <r>    5.7343    1.0000 </r>
       <r>    5.7629    1.0000 </r>
       <r>    5.7831    1.0000 </r>
       <r>    5.8347    1.0000 </r>
       <r>    5.8410    1.0000 </r>
       <r>    5.8634    1.0000 </r>
       <r>    5.8896    1.0000 </r>
       <r>    5.9336    1.0000 </r>
       <r>    5.9498    1.0000 </r>
       <r>    5.9665    1.0000 </r>
       <r>    5.9786    1.0000 </r>
       <r>    5.9943    1.0000 </r>
       <r>    6.0009    1.0000 </r>
       <r>    6.0265    1.0000 </r>
       <r>    6.0434    1.0000 </r>
       <r>    6.0713    1.0000 </r>
       <r>    6.0780    1.0000 </r>
       <r>    6.1209    1.0000 </r>
       <r>    6.1288    1.0000 </r>
       <r>    6.1578    1.0000 </r>
       <r>    6.1805    1.0000 </r>
       <r>    6.1948    1.0000 </r>
       <r>    6.2401    1.0000 </r>
       <r>    6.2534    1.0000 </r>
       <r>    6.3014    1.0000 </r>
       <r>    6.3582    1.0000 </r>
       <r>    6.3859    1.0000 </r>
       <r>    6.4582    1.0000 </r>
       <r>    6.4685    1.0000 </r>
       <r>    6.5458    1.0000 </r>
       <r>    6.5785    1.0000 </r>
       <r>    6.5861    1.0000 </r>
       <r>    6.5957    1.0000 </r>
       <r>    6.6116    1.0000 </r>
       <r>    6.6408    1.0000 </r>
       <r>    6.6604    1.0000 </r>
       <r>    6.6789    1.0000 </r>
       <r>    6.7008    1.0000 </r>
       <r>    6.7222    1.0000 </r>
       <r>    6.7496    1.0000 </r>
       <r>    6.7534    1.0000 </r>
       <r>    6.7655    1.0000 </r>
       <r>    6.7866    1.0000 </r>
       <r>    6.8052    1.0000 </r>
       <r>    6.8507    1.0000 </r>
       <r>    6.8548    1.0000 </r>
       <r>    6.8750    1.0000 </r>
       <r>    6.8981    1.0000 </r>
       <r>    6.9522    1.0000 </r>
       <r>    6.9552    1.0000 </r>
       <r>    6.9814    1.0000 </r>
       <r>    7.0054    1.0000 </r>
       <r>    7.0337    1.0000 </r>
       <r>    7.0911    1.0000 </r>
       <r>    7.1395    1.0000 </r>
       <r>    7.1587    1.0000 </r>
       <r>    7.1769    1.0000 </r>
       <r>    7.2169    1.0000 </r>
       <r>    7.2439    1.0000 </r>
       <r>    7.2808    1.0000 </r>
       <r>    7.2978    1.0000 </r>
       <r>    7.3176    1.0000 </r>
       <r>    7.3581    1.0000 </r>
       <r>    7.4111    1.0000 </r>
       <r>    7.4425    1.0000 </r>
       <r>    7.4703    1.0000 </r>
       <r>    7.5351    1.0000 </r>
       <r>    7.5610    1.0000 </r>
       <r>    7.5773    1.0000 </r>
       <r>    7.6628    1.0000 </r>
       <r>    7.6855    1.0000 </r>
       <r>    7.7092    1.0000 </r>
       <r>    7.7370    1.0000 </r>
       <r>    7.7746    1.0000 </r>
       <r>    7.8671    1.0000 </r>
       <r>    7.9415    1.0000 </r>
       <r>    7.9962    1.0000 </r>
       <r>    8.0674    1.0000 </r>
       <r>    8.0865    1.0000 </r>
       <r>    8.1031    1.0000 </r>
       <r>    8.1628    1.0000 </r>
       <r>    8.2659    1.0000 </r>
       <r>    8.2831    1.0000 </r>
       <r>    8.3216    1.0000 </r>
       <r>    8.3514    1.0000 </r>
       <r>    8.3765    1.0000 </r>
       <r>    8.4133    1.0000 </r>
       <r>    8.4504    1.0000 </r>
       <r>    8.4958    1.0000 </r>
       <r>    8.5587    1.0000 </r>
       <r>    8.6896    1.0000 </r>
       <r>    8.7711    1.0000 </r>
       <r>    8.8479    1.0000 </r>
       <r>    8.8681    1.0000 </r>
       <r>    8.9151    1.0000 </r>
       <r>    8.9568    1.0000 </r>
       <r>    9.0342    1.0000 </r>
       <r>    9.1688    1.0000 </r>
       <r>    9.2243    1.0000 </r>
       <r>    9.3873    1.0000 </r>
       <r>    9.4233    1.0000 </r>
       <r>    9.4457    1.0000 </r>
       <r>    9.4526    1.0000 </r>
       <r>    9.4940    1.0000 </r>
       <r>    9.5088    1.0000 </r>
       <r>    9.5516    1.0000 </r>
       <r>    9.6383    1.0000 </r>
       <r>    9.6941    1.0001 </r>
       <r>    9.7480    1.0011 </r>
       <r>    9.7709    1.0029 </r>
       <r>    9.8326    1.0200 </r>
       <r>    9.8511    1.0285 </r>
       <r>    9.8916    1.0314 </r>
       <r>   10.0761    0.0185 </r>
       <r>   10.0894   -0.0117 </r>
       <r>   10.1329   -0.0338 </r>
       <r>   10.1640   -0.0209 </r>
       <r>   10.2110   -0.0054 </r>
       <r>   10.2276   -0.0029 </r>
       <r>   10.2416   -0.0016 </r>
       <r>   10.2627   -0.0006 </r>
       <r>   10.2735   -0.0004 </r>
       <r>   10.3027   -0.0001 </r>
       <r>   10.3163   -0.0000 </r>
       <r>   10.3345   -0.0000 </r>
       <r>   10.3517   -0.0000 </r>
       <r>   10.4013   -0.0000 </r>
       <r>   10.4291   -0.0000 </r>
       <r>   10.4348   -0.0000 </r>
       <r>   10.4780   -0.0000 </r>
       <r>   10.5213   -0.0000 </r>
       <r>   10.5503   -0.0000 </r>
       <r>   10.5673   -0.0000 </r>
       <r>   10.5946   -0.0000 </r>
       <r>   10.6719   -0.0000 </r>
       <r>   10.6792   -0.0000 </r>
       <r>   10.7059   -0.0000 </r>
       <r>   10.7179   -0.0000 </r>
       <r>   10.8910   -0.0000 </r>
       <r>   10.9048   -0.0000 </r>
       <r>   10.9315   -0.0000 </r>
       <r>   10.9872   -0.0000 </r>
       <r>   11.0135   -0.0000 </r>
       <r>   12.0161   -0.0000 </r>
       <r>   12.3948   -0.0000 </r>
      </set>
      <set comment="kpoint 4">
       <r>   -0.0785    1.0000 </r>
       <r>    0.5517    1.0000 </r>
       <r>    0.6691    1.0000 </r>
       <r>    1.0027    1.0000 </r>
       <r>    1.0655    1.0000 </r>
       <r>    1.3404    1.0000 </r>
       <r>    1.4065    1.0000 </r>
       <r>    1.9954    1.0000 </r>
       <r>    2.1796    1.0000 </r>
       <r>    2.2017    1.0000 </r>
       <r>    2.3057    1.0000 </r>
       <r>    2.3677    1.0000 </r>
       <r>    2.4013    1.0000 </r>
       <r>    2.7721    1.0000 </r>
       <r>    2.8124    1.0000 </r>
       <r>    2.8388    1.0000 </r>
       <r>    2.8531    1.0000 </r>
       <r>    2.8864    1.0000 </r>
       <r>    2.9241    1.0000 </r>
       <r>    2.9432    1.0000 </r>
       <r>    3.0760    1.0000 </r>
       <r>    3.0826    1.0000 </r>
       <r>    3.1540    1.0000 </r>
       <r>    3.1730    1.0000 </r>
       <r>    3.1906    1.0000 </r>
       <r>    3.2067    1.0000 </r>
       <r>    3.2630    1.0000 </r>
       <r>    3.2919    1.0000 </r>
       <r>    3.4219    1.0000 </r>
       <r>    3.4791    1.0000 </r>
       <r>    3.5330    1.0000 </r>
       <r>    3.5572    1.0000 </r>
       <r>    3.5925    1.0000 </r>
       <r>    3.6437    1.0000 </r>
       <r>    3.7142    1.0000 </r>
       <r>    3.7432    1.0000 </r>
       <r>    3.7530    1.0000 </r>
       <r>    3.7762    1.0000 </r>
       <r>    3.8315    1.0000 </r>
       <r>    3.8888    1.0000 </r>
       <r>    3.9853    1.0000 </r>
       <r>    4.0227    1.0000 </r>
       <r>    4.1330    1.0000 </r>
       <r>    4.1680    1.0000 </r>
       <r>    4.2035    1.0000 </r>
       <r>    4.2679    1.0000 </r>
       <r>    4.3364    1.0000 </r>
       <r>    4.4063    1.0000 </r>
       <r>    4.6065    1.0000 </r>
       <r>    4.6266    1.0000 </r>
       <r>    4.6947    1.0000 </r>
       <r>    4.7122    1.0000 </r>
       <r>    4.7453    1.0000 </r>
       <r>    4.8100    1.0000 </r>
       <r>    4.8485    1.0000 </r>
       <r>    4.8611    1.0000 </r>
       <r>    4.8749    1.0000 </r>
       <r>    4.9119    1.0000 </r>
       <r>    4.9198    1.0000 </r>
       <r>    4.9461    1.0000 </r>
       <r>    4.9580    1.0000 </r>
       <r>    4.9684    1.0000 </r>
       <r>    4.9940    1.0000 </r>
       <r>    5.0133    1.0000 </r>
       <r>    5.0268    1.0000 </r>
       <r>    5.0404    1.0000 </r>
       <r>    5.0824    1.0000 </r>
       <r>    5.1231    1.0000 </r>
       <r>    5.1518    1.0000 </r>
       <r>    5.2097    1.0000 </r>
       <r>    5.2710    1.0000 </r>
       <r>    5.3186    1.0000 </r>
       <r>    5.3602    1.0000 </r>
       <r>    5.4036    1.0000 </r>
       <r>    5.4350    1.0000 </r>
       <r>    5.4851    1.0000 </r>
       <r>    5.5101    1.0000 </r>
       <r>    5.5339    1.0000 </r>
       <r>    5.5541    1.0000 </r>
       <r>    5.6250    1.0000 </r>
       <r>    5.6485    1.0000 </r>
       <r>    5.6877    1.0000 </r>
       <r>    5.7179    1.0000 </r>
       <r>    5.7400    1.0000 </r>
       <r>    5.7808    1.0000 </r>
       <r>    5.8243    1.0000 </r>
       <r>    5.8468    1.0000 </r>
       <r>    5.8688    1.0000 </r>
       <r>    5.8911    1.0000 </r>
       <r>    5.8968    1.0000 </r>
       <r>    5.9182    1.0000 </r>
       <r>    5.9328    1.0000 </r>
       <r>    5.9408    1.0000 </r>
       <r>    5.9726    1.0000 </r>
       <r>    6.0480    1.0000 </r>
       <r>    6.0597    1.0000 </r>
       <r>    6.0773    1.0000 </r>
       <r>    6.1269    1.0000 </r>
       <r>    6.1383    1.0000 </r>
       <r>    6.2358    1.0000 </r>
       <r>    6.2811    1.0000 </r>
       <r>    6.3039    1.0000 </r>
       <r>    6.3806    1.0000 </r>
       <r>    6.4419    1.0000 </r>
       <r>    6.4635    1.0000 </r>
       <r>    6.4806    1.0000 </r>
       <r>    6.5151    1.0000 </r>
       <r>    6.5548    1.0000 </r>
       <r>    6.5694    1.0000 </r>
       <r>    6.5868    1.0000 </r>
       <r>    6.6268    1.0000 </r>
       <r>    6.6403    1.0000 </r>
       <r>    6.6717    1.0000 </r>
       <r>    6.6993    1.0000 </r>
       <r>    6.7281    1.0000 </r>
       <r>    6.7448    1.0000 </r>
       <r>    6.7676    1.0000 </r>
       <r>    6.8145    1.0000 </r>
       <r>    6.8322    1.0000 </r>
       <r>    6.8627    1.0000 </r>
       <r>    6.8666    1.0000 </r>
       <r>    6.8834    1.0000 </r>
       <r>    6.9023    1.0000 </r>
       <r>    6.9220    1.0000 </r>
       <r>    6.9496    1.0000 </r>
       <r>    6.9636    1.0000 </r>
       <r>    6.9798    1.0000 </r>
       <r>    6.9964    1.0000 </r>
       <r>    7.0093    1.0000 </r>
       <r>    7.0364    1.0000 </r>
       <r>    7.0599    1.0000 </r>
       <r>    7.0795    1.0000 </r>
       <r>    7.1035    1.0000 </r>
       <r>    7.1326    1.0000 </r>
       <r>    7.1901    1.0000 </r>
       <r>    7.2384    1.0000 </r>
       <r>    7.3210    1.0000 </r>
       <r>    7.3632    1.0000 </r>
       <r>    7.4529    1.0000 </r>
       <r>    7.4796    1.0000 </r>
       <r>    7.5181    1.0000 </r>
       <r>    7.5457    1.0000 </r>
       <r>    7.5533    1.0000 </r>
       <r>    7.5729    1.0000 </r>
       <r>    7.5982    1.0000 </r>
       <r>    7.6206    1.0000 </r>
       <r>    7.6288    1.0000 </r>
       <r>    7.6607    1.0000 </r>
       <r>    7.7030    1.0000 </r>
       <r>    7.7222    1.0000 </r>
       <r>    7.7917    1.0000 </r>
       <r>    7.8549    1.0000 </r>
       <r>    8.0525    1.0000 </r>
       <r>    8.0769    1.0000 </r>
       <r>    8.1952    1.0000 </r>
       <r>    8.2472    1.0000 </r>
       <r>    8.2817    1.0000 </r>
       <r>    8.3371    1.0000 </r>
       <r>    8.3776    1.0000 </r>
       <r>    8.4055    1.0000 </r>
       <r>    8.4300    1.0000 </r>
       <r>    8.4684    1.0000 </r>
       <r>    8.4971    1.0000 </r>
       <r>    8.5139    1.0000 </r>
       <r>    8.5863    1.0000 </r>
       <r>    8.6424    1.0000 </r>
       <r>    8.6799    1.0000 </r>
       <r>    8.7439    1.0000 </r>
       <r>    8.8878    1.0000 </r>
       <r>    9.0266    1.0000 </r>
       <r>    9.1379    1.0000 </r>
       <r>    9.1770    1.0000 </r>
       <r>    9.2066    1.0000 </r>
       <r>    9.2562    1.0000 </r>
       <r>    9.3318    1.0000 </r>
       <r>    9.3660    1.0000 </r>
       <r>    9.3984    1.0000 </r>
       <r>    9.4285    1.0000 </r>
       <r>    9.4540    1.0000 </r>
       <r>    9.4713    1.0000 </r>
       <r>    9.5049    1.0000 </r>
       <r>    9.5756    1.0000 </r>
       <r>    9.6429    1.0000 </r>
       <r>    9.6718    1.0000 </r>
       <r>    9.8356    1.0214 </r>
       <r>    9.9009    1.0233 </r>
       <r>    9.9475    0.8798 </r>
       <r>   10.0041    0.4591 </r>
       <r>   10.0418    0.1737 </r>
       <r>   10.0696    0.0389 </r>
       <r>   10.2526   -0.0010 </r>
       <r>   10.2691   -0.0005 </r>
       <r>   10.2879   -0.0002 </r>
       <r>   10.3085   -0.0001 </r>
       <r>   10.3546   -0.0000 </r>
       <r>   10.3913   -0.0000 </r>
       <r>   10.4053   -0.0000 </r>
       <r>   10.4230   -0.0000 </r>
       <r>   10.4568   -0.0000 </r>
       <r>   10.4737   -0.0000 </r>
       <r>   10.5063   -0.0000 </r>
       <r>   10.5236   -0.0000 </r>
       <r>   10.5395   -0.0000 </r>
       <r>   10.5479   -0.0000 </r>
       <r>   10.5593   -0.0000 </r>
       <r>   10.5857   -0.0000 </r>
       <r>   10.6003   -0.0000 </r>
       <r>   10.6217   -0.0000 </r>
       <r>   10.6487   -0.0000 </r>
       <r>   10.6685   -0.0000 </r>
       <r>   10.7694   -0.0000 </r>
       <r>   10.8499   -0.0000 </r>
       <r>   10.8645   -0.0000 </r>
       <r>   10.8968   -0.0000 </r>
       <r>   10.9798   -0.0000 </r>
       <r>   11.3083   -0.0000 </r>
       <r>   11.3362   -0.0000 </r>
       <r>   11.4225   -0.0000 </r>
       <r>   11.7716   -0.0000 </r>
       <r>   12.9656    0.0000 </r>
      </set>
      <set comment="kpoint 5">
       <r>    0.4778    1.0000 </r>
       <r>    1.0392    1.0000 </r>
       <r>    1.1601    1.0000 </r>
       <r>    1.3746    1.0000 </r>
       <r>    1.4312    1.0000 </r>
       <r>    1.7335    1.0000 </r>
       <r>    1.8590    1.0000 </r>
       <r>    2.2093    1.0000 </r>
       <r>    2.5046    1.0000 </r>
       <r>    2.5290    1.0000 </r>
       <r>    2.5902    1.0000 </r>
       <r>    2.6491    1.0000 </r>
       <r>    2.6810    1.0000 </r>
       <r>    3.1043    1.0000 </r>
       <r>    3.1579    1.0000 </r>
       <r>    3.1731    1.0000 </r>
       <r>    3.1855    1.0000 </r>
       <r>    3.2259    1.0000 </r>
       <r>    3.2379    1.0000 </r>
       <r>    3.2853    1.0000 </r>
       <r>    3.2914    1.0000 </r>
       <r>    3.3134    1.0000 </r>
       <r>    3.3207    1.0000 </r>
       <r>    3.3467    1.0000 </r>
       <r>    3.4245    1.0000 </r>
       <r>    3.4440    1.0000 </r>
       <r>    3.4521    1.0000 </r>
       <r>    3.4869    1.0000 </r>
       <r>    3.5510    1.0000 </r>
       <r>    3.5592    1.0000 </r>
       <r>    3.6222    1.0000 </r>
       <r>    3.6659    1.0000 </r>
       <r>    3.6769    1.0000 </r>
       <r>    3.6805    1.0000 </r>
       <r>    3.7172    1.0000 </r>
       <r>    3.7755    1.0000 </r>
       <r>    3.8871    1.0000 </r>
       <r>    3.9634    1.0000 </r>
       <r>    3.9924    1.0000 </r>
       <r>    4.0303    1.0000 </r>
       <r>    4.1136    1.0000 </r>
       <r>    4.1607    1.0000 </r>
       <r>    4.1942    1.0000 </r>
       <r>    4.2544    1.0000 </r>
       <r>    4.2953    1.0000 </r>
       <r>    4.3145    1.0000 </r>
       <r>    4.4111    1.0000 </r>
       <r>    4.4196    1.0000 </r>
       <r>    4.5130    1.0000 </r>
       <r>    4.5923    1.0000 </r>
       <r>    4.6413    1.0000 </r>
       <r>    4.6758    1.0000 </r>
       <r>    4.7305    1.0000 </r>
       <r>    4.7524    1.0000 </r>
       <r>    4.7759    1.0000 </r>
       <r>    4.7918    1.0000 </r>
       <r>    4.8257    1.0000 </r>
       <r>    4.8468    1.0000 </r>
       <r>    4.8699    1.0000 </r>
[...]
       <r>    9.3376    1.0000 </r>
       <r>    9.3936    1.0000 </r>
       <r>    9.4475    1.0000 </r>
       <r>    9.4711    1.0000 </r>
       <r>    9.5307    1.0000 </r>
       <r>    9.7430    1.0009 </r>
       <r>    9.7669    1.0025 </r>
       <r>    9.8064    1.0100 </r>
       <r>    9.8372    1.0221 </r>
       <r>    9.8883    1.0331 </r>
       <r>    9.9551    0.8367 </r>
       <r>    9.9795    0.6634 </r>
       <r>   10.0087    0.4201 </r>
       <r>   10.0487    0.1330 </r>
       <r>   10.0590    0.0813 </r>
       <r>   10.0934   -0.0179 </r>
       <r>   10.1394   -0.0317 </r>
       <r>   10.1995   -0.0079 </r>
       <r>   10.2345   -0.0022 </r>
       <r>   10.2693   -0.0005 </r>
       <r>   10.2923   -0.0001 </r>
       <r>   10.3338   -0.0000 </r>
       <r>   10.3609   -0.0000 </r>
       <r>   10.3683   -0.0000 </r>
       <r>   10.3781   -0.0000 </r>
       <r>   10.4260   -0.0000 </r>
       <r>   10.4447   -0.0000 </r>
       <r>   10.4685   -0.0000 </r>
       <r>   10.5240   -0.0000 </r>
       <r>   10.5739   -0.0000 </r>
       <r>   10.5811   -0.0000 </r>
       <r>   10.6029   -0.0000 </r>
       <r>   10.6278   -0.0000 </r>
       <r>   10.6564   -0.0000 </r>
       <r>   10.7463   -0.0000 </r>
       <r>   10.7844   -0.0000 </r>
       <r>   10.8009   -0.0000 </r>
       <r>   10.8758   -0.0000 </r>
       <r>   10.8940   -0.0000 </r>
       <r>   10.9190   -0.0000 </r>
       <r>   11.0360   -0.0000 </r>
       <r>   11.3176   -0.0000 </r>
      </set>
     </set>
    </set>
   </array>
  </eigenvalues>
  <separator name="orbital magnetization" >
   <v name="MAGDIPOLOUT">      0.00000000      0.00000000      0.00000000</v>
  </separator>
  <dos>
   <i name="efermi">      9.99926439 </i>
   <total>
    <array>
     <dimension dim="1">gridpoints</dimension>
     <dimension dim="2">spin</dimension>
     <field>energy</field>
     <field>total</field>
     <field>integrated</field>
     <set>
      <set comment="spin 1">
       <r>    -1.8551     0.0000     0.0000 </r>
       <r>    -1.7942     0.0000     0.0000 </r>
       <r>    -1.7333     0.0000     0.0000 </r>
       <r>    -1.6724    -0.0000    -0.0000 </r>
       <r>    -1.6115    -0.0000    -0.0000 </r>
       <r>    -1.5506    -0.0000    -0.0000 </r>
       <r>    -1.4897    -0.0000    -0.0000 </r>
       <r>    -1.4288    -0.0000    -0.0000 </r>
       <r>    -1.3679    -0.0000    -0.0000 </r>
       <r>    -1.3070    -0.0000    -0.0000 </r>
       <r>    -1.2461    -0.0000    -0.0000 </r>
       <r>    -1.1852    -0.0000    -0.0000 </r>
       <r>    -1.1243    -0.0001    -0.0000 </r>
       <r>    -1.0633    -0.0010    -0.0001 </r>
       <r>    -1.0024    -0.0054    -0.0004 </r>
       <r>    -0.9415    -0.0118    -0.0011 </r>
       <r>    -0.8806     0.0108    -0.0005 </r>
       <r>    -0.8197     0.1742     0.0102 </r>
       <r>    -0.7588     0.5742     0.0451 </r>
       <r>    -0.6979     0.9727     0.1044 </r>
       <r>    -0.6370     1.0319     0.1672 </r>
       <r>    -0.5761     0.8439     0.2186 </r>
       <r>    -0.5152     1.1247     0.2871 </r>
       <r>    -0.4543     1.8592     0.4004 </r>
       <r>    -0.3934     2.0842     0.5273 </r>
       <r>    -0.3325     1.6114     0.6254 </r>
       <r>    -0.2716     1.3735     0.7091 </r>
       <r>    -0.2107     1.6551     0.8099 </r>
       <r>    -0.1498     1.9244     0.9271 </r>
       <r>    -0.0889     2.2888     1.0665 </r>
       <r>    -0.0280     2.7455     1.2337 </r>
       <r>     0.0329     2.6177     1.3931 </r>
       <r>     0.0938     2.2839     1.5322 </r>
       <r>     0.1548     2.5678     1.6886 </r>
       <r>     0.2157     2.9075     1.8657 </r>
       <r>     0.2766     2.7356     2.0323 </r>
       <r>     0.3375     2.5760     2.1892 </r>
       <r>     0.3984     2.7105     2.3543 </r>
       <r>     0.4593     2.7910     2.5243 </r>
       <r>     0.5202     3.3754     2.7299 </r>
       <r>     0.5811     4.4490     3.0008 </r>
       <r>     0.6420     4.2445     3.2593 </r>
       <r>     0.7029     3.4905     3.4719 </r>
       <r>     0.7638     3.5653     3.6891 </r>
       <r>     0.8247     3.5386     3.9046 </r>
       <r>     0.8856     3.3295     4.1074 </r>
       <r>     0.9465     3.6110     4.3273 </r>
       <r>     1.0074     4.4056     4.5956 </r>
       <r>     1.0683     4.8203     4.8892 </r>
       <r>     1.1292     4.5798     5.1681 </r>
       <r>     1.1901     5.0718     5.4770 </r>
       <r>     1.2510     5.3714     5.8042 </r>
       <r>     1.3119     4.8227     6.0979 </r>
       <r>     1.3729     5.2891     6.4200 </r>
       <r>     1.4338     6.1670     6.7956 </r>
       <r>     1.4947     5.9939     7.1607 </r>
       <r>     1.5556     5.3770     7.4882 </r>
       <r>     1.6165     5.7162     7.8363 </r>
       <r>     1.6774     6.2882     8.2193 </r>
       <r>     1.7383     6.5542     8.6185 </r>
       <r>     1.7992     7.2241     9.0585 </r>
       <r>     1.8601     7.6950     9.5272 </r>
       <r>     1.9210     7.6958     9.9959 </r>
       <r>     1.9819     9.0177    10.5451 </r>
       <r>     2.0428    10.6534    11.1939 </r>
       <r>     2.1037    11.3043    11.8824 </r>
       <r>     2.1646    12.5767    12.6484 </r>
       <r>     2.2255    15.5110    13.5931 </r>
       <r>     2.2864    21.6843    14.9138 </r>
       <r>     2.3473    29.0914    16.6856 </r>
       <r>     2.4082    33.2331    18.7097 </r>
       <r>     2.4691    34.1671    20.7906 </r>
       <r>     2.5300    34.5316    22.8938 </r>
       <r>     2.5910    33.4272    24.9297 </r>
       <r>     2.6519    30.9933    26.8173 </r>
       <r>     2.7128    31.3944    28.7294 </r>
       <r>     2.7737    35.2801    30.8781 </r>
       <r>     2.8346    39.2208    33.2669 </r>
       <r>     2.8955    40.9900    35.7634 </r>
       <r>     2.9564    41.5469    38.2938 </r>
       <r>     3.0173    41.7492    40.8365 </r>
       <r>     3.0782    40.8113    43.3221 </r>
       <r>     3.1391    40.2207    45.7718 </r>
       <r>     3.2000    42.9009    48.3847 </r>
       <r>     3.2609    45.1681    51.1356 </r>
       <r>     3.3218    45.9281    53.9329 </r>
       <r>     3.3827    48.0475    56.8592 </r>
       <r>     3.4436    50.9392    59.9617 </r>
       <r>     3.5045    49.7460    62.9914 </r>
       <r>     3.5654    44.6594    65.7114 </r>
       <r>     3.6263    42.0494    68.2724 </r>
       <r>     3.6872    42.5654    70.8649 </r>
       <r>     3.7482    40.9002    73.3559 </r>
       <r>     3.8091    38.1432    75.6790 </r>
       <r>     3.8700    35.9248    77.8670 </r>
       <r>     3.9309    31.4990    79.7855 </r>
       <r>     3.9918    28.8740    81.5441 </r>
       <r>     4.0527    35.4028    83.7003 </r>
       <r>     4.1136    49.2151    86.6977 </r>
       <r>     4.1745    57.6203    90.2071 </r>
       <r>     4.2354    56.4826    93.6472 </r>
       <r>     4.2963    51.7936    96.8017 </r>
       <r>     4.3572    46.4006    99.6277 </r>
       <r>     4.4181    43.1547   102.2560 </r>
       <r>     4.4790    43.0528   104.8782 </r>
       <r>     4.5399    43.6328   107.5356 </r>
       <r>     4.6008    42.5028   110.1243 </r>
       <r>     4.6617    42.0324   112.6842 </r>
       <r>     4.7226    44.6355   115.4028 </r>
       <r>     4.7835    47.7753   118.3125 </r>
       <r>     4.8444    50.7102   121.4010 </r>
       <r>     4.9053    54.4466   124.7171 </r>
       <r>     4.9663    56.1828   128.1389 </r>
       <r>     5.0272    56.3046   131.5682 </r>
       <r>     5.0881    57.6331   135.0783 </r>
       <r>     5.1490    55.9618   138.4867 </r>
       <r>     5.2099    49.3582   141.4928 </r>
       <r>     5.2708    42.8572   144.1031 </r>
       <r>     5.3317    38.4172   146.4429 </r>
       <r>     5.3926    33.3203   148.4722 </r>
       <r>     5.4535    27.4100   150.1416 </r>
       <r>     5.5144    24.5544   151.6371 </r>
       <r>     5.5753    27.9944   153.3421 </r>
       <r>     5.6362    36.8093   155.5840 </r>
       <r>     5.6971    47.1198   158.4538 </r>
       <r>     5.7580    55.0237   161.8051 </r>
       <r>     5.8189    59.9696   165.4575 </r>
       <r>     5.8798    64.1932   169.3672 </r>
       <r>     5.9407    65.9762   173.3855 </r>
       <r>     6.0016    66.3293   177.4253 </r>
       <r>     6.0625    67.0302   181.5077 </r>
       <r>     6.1234    66.2899   185.5451 </r>
       <r>     6.1844    64.3880   189.4667 </r>
       <r>     6.2453    62.8613   193.2953 </r>
       <r>     6.3062    60.9258   197.0060 </r>
       <r>     6.3671    58.3926   200.5624 </r>
       <r>     6.4280    57.7959   204.0824 </r>
       <r>     6.4889    58.2095   207.6277 </r>
       <r>     6.5498    59.2748   211.2378 </r>
       <r>     6.6107    61.1973   214.9650 </r>
       <r>     6.6716    63.0262   218.8036 </r>
       <r>     6.7325    63.4961   222.6709 </r>
       <r>     6.7934    62.4489   226.4743 </r>
       <r>     6.8543    61.4275   230.2156 </r>
       <r>     6.9152    61.2003   233.9430 </r>
       <r>     6.9761    63.1958   237.7919 </r>
       <r>     7.0370    67.0123   241.8733 </r>
       <r>     7.0979    70.2875   246.1542 </r>
       <r>     7.1588    69.7326   250.4013 </r>
       <r>     7.2197    63.9033   254.2933 </r>
       <r>     7.2806    57.8075   257.8141 </r>
       <r>     7.3415    55.5717   261.1987 </r>
       <r>     7.4025    53.4033   264.4512 </r>
       <r>     7.4634    49.8834   267.4893 </r>
       <r>     7.5243    48.2814   270.4299 </r>
       <r>     7.5852    47.6875   273.3343 </r>
       <r>     7.6461    45.3361   276.0955 </r>
       <r>     7.7070    41.3781   278.6157 </r>
       <r>     7.7679    37.5140   280.9005 </r>
       <r>     7.8288    36.1136   283.1000 </r>
       <r>     7.8897    36.5442   285.3257 </r>
       <r>     7.9506    37.5869   287.6149 </r>
       <r>     8.0115    39.0020   289.9903 </r>
       <r>     8.0724    38.4767   292.3338 </r>
       <r>     8.1333    35.8266   294.5158 </r>
       <r>     8.1942    33.4476   296.5529 </r>
       <r>     8.2551    33.7620   298.6092 </r>
       <r>     8.3160    35.0955   300.7467 </r>
       <r>     8.3769    34.5187   302.8490 </r>
       <r>     8.4378    33.3402   304.8796 </r>
       <r>     8.4987    33.2720   306.9061 </r>
       <r>     8.5597    32.9126   308.9106 </r>
       <r>     8.6206    31.8880   310.8527 </r>
       <r>     8.6815    32.0786   312.8065 </r>
       <r>     8.7424    32.5012   314.7860 </r>
       <r>     8.8033    31.8196   316.7240 </r>
       <r>     8.8642    30.1386   318.5595 </r>
       <r>     8.9251    27.6708   320.2448 </r>
       <r>     8.9860    27.6280   321.9275 </r>
       <r>     9.0469    31.2126   323.8285 </r>
       <r>     9.1078    33.8004   325.8871 </r>
       <r>     9.1687    33.4395   327.9238 </r>
       <r>     9.2296    31.1792   329.8227 </r>
       <r>     9.2905    27.5646   331.5016 </r>
       <r>     9.3514    27.4769   333.1751 </r>
       <r>     9.4123    33.2283   335.1988 </r>
       <r>     9.4732    37.9521   337.5103 </r>
       <r>     9.5341    38.6970   339.8672 </r>
       <r>     9.5950    39.3931   342.2664 </r>
       <r>     9.6559    39.4746   344.6706 </r>
       <r>     9.7168    40.2002   347.1190 </r>
       <r>     9.7778    45.4563   349.8875 </r>
       <r>     9.8387    49.0310   352.8737 </r>
       <r>     9.8996    46.4344   355.7018 </r>
       <r>     9.9605    43.1268   358.3285 </r>
       <r>    10.0214    43.7380   360.9923 </r>
       <r>    10.0823    48.8479   363.9674 </r>
       <r>    10.1432    53.2545   367.2109 </r>
       <r>    10.2041    56.5670   370.6561 </r>
       <r>    10.2650    62.7627   374.4787 </r>
       <r>    10.3259    67.1132   378.5662 </r>
       <r>    10.3868    64.7136   382.5076 </r>
       <r>    10.4477    62.4715   386.3124 </r>
       <r>    10.5086    68.3360   390.4744 </r>
       <r>    10.5695    76.3097   395.1221 </r>
       <r>    10.6304    77.6085   399.8488 </r>
       <r>    10.6913    72.8418   404.2853 </r>
       <r>    10.7522    68.0444   408.4295 </r>
       <r>    10.8131    63.2951   412.2845 </r>
       <r>    10.8740    55.5074   415.6652 </r>
       <r>    10.9349    47.6949   418.5700 </r>
       <r>    10.9959    38.9734   420.9437 </r>
       <r>    11.0568    28.4178   422.6745 </r>
       <r>    11.1177    18.4291   423.7969 </r>
       <r>    11.1786     9.9220   424.4012 </r>
       <r>    11.2395     4.9808   424.7046 </r>
       <r>    11.3004     4.3953   424.9723 </r>
       <r>    11.3613     6.1732   425.3483 </r>
       <r>    11.4222     8.4012   425.8599 </r>
       <r>    11.4831     9.8444   426.4595 </r>
       <r>    11.5440    10.1054   427.0750 </r>
       <r>    11.6049     9.4304   427.6493 </r>
       <r>    11.6658     7.9153   428.1314 </r>
       <r>    11.7267     6.8580   428.5491 </r>
       <r>    11.7876     6.7638   428.9611 </r>
       <r>    11.8485     7.0416   429.3899 </r>
       <r>    11.9094     7.8354   429.8672 </r>
       <r>    11.9703     8.0311   430.3563 </r>
       <r>    12.0312     6.4295   430.7479 </r>
       <r>    12.0921     4.4898   431.0213 </r>
       <r>    12.1530     4.2617   431.2809 </r>
       <r>    12.2140     4.9549   431.5827 </r>
       <r>    12.2749     5.1544   431.8966 </r>
       <r>    12.3358     4.8655   432.1929 </r>
       <r>    12.3967     5.2929   432.5153 </r>
       <r>    12.4576     7.2047   432.9541 </r>
       <r>    12.5185     8.2710   433.4578 </r>
       <r>    12.5794     7.2568   433.8998 </r>
       <r>    12.6403     5.8836   434.2582 </r>
       <r>    12.7012     5.6357   434.6014 </r>
       <r>    12.7621     5.7410   434.9511 </r>
       <r>    12.8230     5.8785   435.3091 </r>
       <r>    12.8839     5.7627   435.6601 </r>
       <r>    12.9448     5.4444   435.9917 </r>
       <r>    13.0057     5.1436   436.3049 </r>
       <r>    13.0666     3.9270   436.5441 </r>
       <r>    13.1275     2.6828   436.7075 </r>
       <r>    13.1884     2.1317   436.8373 </r>
       <r>    13.2493     2.2718   436.9757 </r>
       <r>    13.3102     3.2441   437.1733 </r>
       <r>    13.3711     3.9960   437.4167 </r>
       <r>    13.4321     3.5684   437.6340 </r>
       <r>    13.4930     2.8516   437.8077 </r>
       <r>    13.5539     2.6062   437.9664 </r>
       <r>    13.6148     2.2811   438.1053 </r>
       <r>    13.6757     1.5614   438.2004 </r>
       <r>    13.7366     1.0183   438.2624 </r>
       <r>    13.7975     1.0330   438.3253 </r>
       <r>    13.8584     1.3415   438.4071 </r>
       <r>    13.9193     1.4528   438.4955 </r>
       <r>    13.9802     1.2858   438.5739 </r>
       <r>    14.0411     1.3429   438.6556 </r>
       <r>    14.1020     1.6134   438.7539 </r>
       <r>    14.1629     1.6943   438.8571 </r>
       <r>    14.2238     1.9344   438.9749 </r>
       <r>    14.2847     2.0328   439.0987 </r>
       <r>    14.3456     1.6244   439.1977 </r>
       <r>    14.4065     1.1709   439.2690 </r>
       <r>    14.4674     0.8733   439.3222 </r>
       <r>    14.5283     0.7077   439.3653 </r>
       <r>    14.5893     0.9139   439.4209 </r>
       <r>    14.6502     1.3609   439.5038 </r>
       <r>    14.7111     1.5474   439.5981 </r>
       <r>    14.7720     1.2880   439.6765 </r>
       <r>    14.8329     0.6955   439.7189 </r>
       <r>    14.8938     0.5138   439.7502 </r>
       <r>    14.9547     0.9041   439.8052 </r>
       <r>    15.0156     0.9600   439.8637 </r>
       <r>    15.0765     0.6393   439.9026 </r>
       <r>    15.1374     0.4369   439.9292 </r>
       <r>    15.1983     0.3008   439.9476 </r>
       <r>    15.2592     0.2338   439.9618 </r>
       <r>    15.3201     0.2158   439.9749 </r>
       <r>    15.3810     0.1785   439.9858 </r>
       <r>    15.4419     0.1560   439.9953 </r>
       <r>    15.5028     0.0811   440.0002 </r>
       <r>    15.5637     0.0049   440.0005 </r>
       <r>    15.6246    -0.0071   440.0001 </r>
       <r>    15.6855    -0.0017   440.0000 </r>
       <r>    15.7464    -0.0001   440.0000 </r>
       <r>    15.8074    -0.0000   440.0000 </r>
       <r>    15.8683    -0.0000   440.0000 </r>
       <r>    15.9292    -0.0000   440.0000 </r>
       <r>    15.9901    -0.0000   440.0000 </r>
       <r>    16.0510    -0.0000   440.0000 </r>
       <r>    16.1119     0.0000   440.0000 </r>
       <r>    16.1728     0.0000   440.0000 </r>
       <r>    16.2337     0.0000   440.0000 </r>
       <r>    16.2946     0.0000   440.0000 </r>
       <r>    16.3555     0.0000   440.0000 </r>
       <r>    16.4164     0.0000   440.0000 </r>
      </set>
     </set>
    </array>
   </total>
  </dos>
 </calculation>
 <structure name="finalpos" >
  <crystal>
   <varray name="basis" >
    <v>      -1.37355000      -2.37861000       0.00108000 </v>
    <v>      10.99177000      -4.76530000      -4.45480000 </v>
    <v>      -0.01048000       0.02192000      17.86424000 </v>
   </varray>
   <i name="volume">    583.74618118 </i>
   <varray name="rec_basis" >
    <v>      -0.14566402      -0.33629844       0.00032720 </v>
    <v>       0.07279205      -0.04203439       0.00009428 </v>
    <v>       0.01816094      -0.01046177       0.05600124 </v>
   </varray>
  </crystal>
  <varray name="positions" >
   <v>       0.82545000       0.58633000       0.14581750 </v>
   <v>       0.30653200       0.68138400       0.29746600 </v>
   <v>       0.40071600       0.79994200       0.20011800 </v>
   <v>       0.93406200       0.86662400       0.34179100 </v>
   <v>       0.60071600       0.19994200       0.05011800 </v>
   <v>       0.13406200       0.26662400       0.19179100 </v>
   <v>       0.20071600       0.39994200       0.10011800 </v>
   <v>       0.73406200       0.46662400       0.24179100 </v>
   <v>       0.00071600       0.99994200       0.00011800 </v>
   <v>       0.53406200       0.06662400       0.14179100 </v>
   <v>       0.80071600       0.59994200       0.40011800 </v>
   <v>       0.33406200       0.66662400       0.54179100 </v>
   <v>       0.40071600       0.79994200       0.45011800 </v>
   <v>       0.93406200       0.86662400       0.59179100 </v>
   <v>       0.60071600       0.19994200       0.30011800 </v>
   <v>       0.13406200       0.26662400       0.44179100 </v>
   <v>       0.19758600       0.39955200       0.35002050 </v>
   <v>       0.73406200       0.46662400       0.49179100 </v>
   <v>       0.00071600       0.99994200       0.25011800 </v>
   <v>       0.53406200       0.06662400       0.39179100 </v>
   <v>       0.79758600       0.59955200       0.65002050 </v>
   <v>       0.33406200       0.66662400       0.79179100 </v>
   <v>       0.38315200       0.80723400       0.69908350 </v>
   <v>       0.93406200       0.86662400       0.84179100 </v>
   <v>       0.60071600       0.19994200       0.55011800 </v>
   <v>       0.13406200       0.26662400       0.69179100 </v>
   <v>       0.20071600       0.39994200       0.60011800 </v>
   <v>       0.73406200       0.46662400       0.74179100 </v>
   <v>       0.00071600       0.99994200       0.50011800 </v>
   <v>       0.53406200       0.06662400       0.64179100 </v>
   <v>       0.80071600       0.59994200       0.90011800 </v>
   <v>       0.33406200       0.66662400       0.04179100 </v>
   <v>       0.40074000       0.79995000       0.95422250 </v>
   <v>       0.93403600       0.86662200       0.09248050 </v>
   <v>       0.60068200       0.19993400       0.79510850 </v>
   <v>       0.13412200       0.26663400       0.94588850 </v>
   <v>       0.17240600       0.39528200       0.84895550 </v>
   <v>       0.73406200       0.46662400       0.99179100 </v>
   <v>       0.00071600       0.99994200       0.75011800 </v>
   <v>       0.53406200       0.06662400       0.89179100 </v>
  </varray>
 </structure>
</modeling>
