  32  32   0   0
  0.1399902E+02  0.1041258E-08  0.1041227E-08  0.5115884E-09  0.5000000E-15
  1.000000000000000E-004
  CAR 
 Ir_Ru                                   
     14.21228199     -0.91242518  301      9.09978366      1.00000000
     -0.912  0.0000E+00  0.0000E+00
     -0.862  0.0000E+00  0.0000E+00
     -0.812  0.0000E+00  0.0000E+00
     -0.761  0.0000E+00  0.0000E+00
     -0.711  0.0000E+00  0.0000E+00
     -0.660  0.0000E+00  0.0000E+00
     -0.610  0.0000E+00  0.0000E+00
     -0.560  0.0000E+00  0.0000E+00
     -0.509  0.0000E+00  0.0000E+00
     -0.459  0.0000E+00  0.0000E+00
     -0.408  0.0000E+00  0.0000E+00
     -0.358  0.0000E+00  0.0000E+00
     -0.307  0.0000E+00  0.0000E+00
     -0.257  0.0000E+00  0.0000E+00
     -0.207  0.0000E+00  0.0000E+00
     -0.156  0.0000E+00  0.0000E+00
     -0.106  0.0000E+00  0.0000E+00
     -0.055  0.0000E+00  0.0000E+00
     -0.005  0.0000E+00  0.0000E+00
      0.045  0.0000E+00  0.0000E+00
      0.096  0.5906E-02  0.1637E-04
      0.146  0.2947E+00  0.5769E-02
      0.197  0.7634E+00  0.3368E-01
      0.247  0.9366E+00  0.7700E-01
      0.298  0.1154E+01  0.1292E+00
      0.348  0.1593E+01  0.1986E+00
      0.398  0.1775E+01  0.2852E+00
      0.449  0.1764E+01  0.3739E+00
      0.499  0.2116E+01  0.4694E+00
      0.550  0.2329E+01  0.5838E+00
      0.600  0.1998E+01  0.6943E+00
      0.650  0.1584E+01  0.7837E+00
      0.701  0.1496E+01  0.8607E+00
      0.751  0.1418E+01  0.9344E+00
      0.802  0.1295E+01  0.1003E+01
      0.852  0.1225E+01  0.1066E+01
      0.903  0.1718E+01  0.1138E+01
      0.953  0.2338E+01  0.1244E+01
      1.003  0.2191E+01  0.1359E+01
      1.054  0.2180E+01  0.1469E+01
      1.104  0.2257E+01  0.1581E+01
      1.155  0.2299E+01  0.1696E+01
      1.205  0.2530E+01  0.1815E+01
      1.255  0.3164E+01  0.1961E+01
      1.306  0.3177E+01  0.2122E+01
      1.356  0.3293E+01  0.2284E+01
      1.407  0.3512E+01  0.2455E+01
      1.457  0.3703E+01  0.2637E+01
      1.508  0.3694E+01  0.2824E+01
      1.558  0.3888E+01  0.3015E+01
      1.608  0.3938E+01  0.3212E+01
      1.659  0.3512E+01  0.3404E+01
      1.709  0.3602E+01  0.3580E+01
      1.760  0.4001E+01  0.3772E+01
      1.810  0.4414E+01  0.3983E+01
      1.860  0.5107E+01  0.4225E+01
      1.911  0.4406E+01  0.4461E+01
      1.961  0.3883E+01  0.4668E+01
      2.012  0.4088E+01  0.4869E+01
      2.062  0.5102E+01  0.5094E+01
      2.113  0.4239E+01  0.5317E+01
      2.163  0.1033E+02  0.5709E+01
      2.213  0.1086E+02  0.6230E+01
      2.264  0.9579E+01  0.6747E+01
      2.314  0.6780E+01  0.7144E+01
      2.365  0.9450E+01  0.7509E+01
      2.415  0.1632E+02  0.8251E+01
      2.465  0.1814E+02  0.9098E+01
      2.516  0.1560E+02  0.9963E+01
      2.566  0.1794E+02  0.1087E+02
      2.617  0.2554E+02  0.1189E+02
      2.667  0.1902E+02  0.1301E+02
      2.718  0.2166E+02  0.1410E+02
      2.768  0.2525E+02  0.1536E+02
      2.818  0.2031E+02  0.1637E+02
      2.869  0.3185E+02  0.1777E+02
      2.919  0.3060E+02  0.1937E+02
      2.970  0.3265E+02  0.2081E+02
      3.020  0.3634E+02  0.2251E+02
      3.070  0.2917E+02  0.2411E+02
      3.121  0.3756E+02  0.2573E+02
      3.171  0.4041E+02  0.2781E+02
      3.222  0.4218E+02  0.2991E+02
      3.272  0.3634E+02  0.3201E+02
      3.322  0.4343E+02  0.3430E+02
      3.373  0.4649E+02  0.3652E+02
      3.423  0.4210E+02  0.3899E+02
      3.474  0.4498E+02  0.4117E+02
      3.524  0.5672E+02  0.4356E+02
      3.575  0.4078E+02  0.4572E+02
      3.625  0.3959E+02  0.4778E+02
      3.675  0.4569E+02  0.4986E+02
      3.726  0.3904E+02  0.5208E+02
      3.776  0.3696E+02  0.5412E+02
      3.827  0.3697E+02  0.5593E+02
      3.877  0.3647E+02  0.5775E+02
      3.927  0.3212E+02  0.5950E+02
      3.978  0.3307E+02  0.6115E+02
      4.028  0.3545E+02  0.6291E+02
      4.079  0.3327E+02  0.6465E+02
      4.129  0.3633E+02  0.6646E+02
      4.180  0.3300E+02  0.6811E+02
      4.230  0.4422E+02  0.7001E+02
      4.280  0.4683E+02  0.7242E+02
      4.331  0.4877E+02  0.7463E+02
      4.381  0.4602E+02  0.7678E+02
      4.432  0.4420E+02  0.7900E+02
      4.482  0.4114E+02  0.8128E+02
      4.532  0.3809E+02  0.8325E+02
      4.583  0.3983E+02  0.8515E+02
      4.633  0.3629E+02  0.8708E+02
      4.684  0.3715E+02  0.8887E+02
      4.734  0.3413E+02  0.9078E+02
      4.785  0.3640E+02  0.9259E+02
      4.835  0.4063E+02  0.9459E+02
      4.885  0.4164E+02  0.9671E+02
      4.936  0.4430E+02  0.9886E+02
      4.986  0.4663E+02  0.1011E+03
      5.037  0.4460E+02  0.1034E+03
      5.087  0.4539E+02  0.1057E+03
      5.137  0.4516E+02  0.1080E+03
      5.188  0.4357E+02  0.1102E+03
      5.238  0.4540E+02  0.1124E+03
      5.289  0.3783E+02  0.1145E+03
      5.339  0.3561E+02  0.1163E+03
      5.390  0.3202E+02  0.1180E+03
      5.440  0.2205E+02  0.1194E+03
      5.490  0.2531E+02  0.1205E+03
      5.541  0.2530E+02  0.1217E+03
      5.591  0.2557E+02  0.1231E+03
      5.642  0.3967E+02  0.1246E+03
      5.692  0.4111E+02  0.1266E+03
      5.742  0.4459E+02  0.1288E+03
      5.793  0.4972E+02  0.1311E+03
      5.843  0.5217E+02  0.1336E+03
      5.894  0.5647E+02  0.1361E+03
      5.944  0.5362E+02  0.1388E+03
      5.995  0.5526E+02  0.1415E+03
      6.045  0.5017E+02  0.1442E+03
      6.095  0.5007E+02  0.1468E+03
      6.146  0.4855E+02  0.1492E+03
      6.196  0.4647E+02  0.1516E+03
      6.247  0.4525E+02  0.1540E+03
      6.297  0.4555E+02  0.1563E+03
      6.347  0.4791E+02  0.1587E+03
      6.398  0.5086E+02  0.1612E+03
      6.448  0.5047E+02  0.1638E+03
      6.499  0.4913E+02  0.1663E+03
      6.549  0.5275E+02  0.1689E+03
      6.600  0.5370E+02  0.1716E+03
      6.650  0.5575E+02  0.1743E+03
      6.700  0.5469E+02  0.1770E+03
      6.751  0.5279E+02  0.1797E+03
      6.801  0.4467E+02  0.1822E+03
      6.852  0.4464E+02  0.1845E+03
      6.902  0.4397E+02  0.1867E+03
      6.952  0.4928E+02  0.1890E+03
      7.003  0.4261E+02  0.1915E+03
      7.053  0.4600E+02  0.1937E+03
      7.104  0.5289E+02  0.1961E+03
      7.154  0.5163E+02  0.1988E+03
      7.205  0.5499E+02  0.2014E+03
      7.255  0.5170E+02  0.2041E+03
      7.305  0.5471E+02  0.2068E+03
      7.356  0.4888E+02  0.2095E+03
      7.406  0.4542E+02  0.2120E+03
      7.457  0.4332E+02  0.2143E+03
      7.507  0.3859E+02  0.2164E+03
      7.557  0.4073E+02  0.2183E+03
      7.608  0.4116E+02  0.2203E+03
      7.658  0.3984E+02  0.2223E+03
      7.709  0.3739E+02  0.2243E+03
      7.759  0.3162E+02  0.2260E+03
      7.809  0.2990E+02  0.2275E+03
      7.860  0.2912E+02  0.2290E+03
      7.910  0.3138E+02  0.2305E+03
      7.961  0.3456E+02  0.2322E+03
      8.011  0.3421E+02  0.2339E+03
      8.062  0.3066E+02  0.2355E+03
      8.112  0.3081E+02  0.2371E+03
      8.162  0.2711E+02  0.2386E+03
      8.213  0.2618E+02  0.2400E+03
      8.263  0.2655E+02  0.2413E+03
      8.314  0.2829E+02  0.2427E+03
      8.364  0.2981E+02  0.2442E+03
      8.414  0.2747E+02  0.2457E+03
      8.465  0.2640E+02  0.2470E+03
      8.515  0.2702E+02  0.2484E+03
      8.566  0.2854E+02  0.2498E+03
      8.616  0.2875E+02  0.2512E+03
      8.667  0.2502E+02  0.2525E+03
      8.717  0.2709E+02  0.2539E+03
      8.767  0.2643E+02  0.2552E+03
      8.818  0.2660E+02  0.2566E+03
      8.868  0.2739E+02  0.2580E+03
      8.919  0.2536E+02  0.2593E+03
      8.969  0.2388E+02  0.2605E+03
      9.019  0.2547E+02  0.2618E+03
      9.070  0.2832E+02  0.2632E+03
      9.120  0.2868E+02  0.2646E+03
      9.171  0.2814E+02  0.2660E+03
      9.221  0.2701E+02  0.2674E+03
      9.272  0.2876E+02  0.2688E+03
      9.322  0.2636E+02  0.2702E+03
      9.372  0.3099E+02  0.2716E+03
      9.423  0.3330E+02  0.2732E+03
      9.473  0.3159E+02  0.2747E+03
      9.524  0.3956E+02  0.2766E+03
      9.574  0.4020E+02  0.2785E+03
      9.624  0.4225E+02  0.2805E+03
      9.675  0.4327E+02  0.2826E+03
      9.725  0.4459E+02  0.2848E+03
      9.776  0.4050E+02  0.2869E+03
      9.826  0.4080E+02  0.2889E+03
      9.877  0.4694E+02  0.2911E+03
      9.927  0.4524E+02  0.2933E+03
      9.977  0.4689E+02  0.2956E+03
     10.028  0.5172E+02  0.2981E+03
     10.078  0.5847E+02  0.3010E+03
     10.129  0.4548E+02  0.3037E+03
     10.179  0.5223E+02  0.3062E+03
     10.229  0.4734E+02  0.3088E+03
     10.280  0.4786E+02  0.3112E+03
     10.330  0.3888E+02  0.3135E+03
     10.381  0.3581E+02  0.3154E+03
     10.431  0.2626E+02  0.3170E+03
     10.482  0.1798E+02  0.3182E+03
     10.532  0.7354E+01  0.3188E+03
     10.582  0.2315E+01  0.3190E+03
     10.633  0.1407E+01  0.3191E+03
     10.683  0.1195E+01  0.3192E+03
     10.734  0.1047E+01  0.3193E+03
     10.784  0.9412E+00  0.3193E+03
     10.834  0.8577E+00  0.3193E+03
     10.885  0.7929E+00  0.3194E+03
     10.935  0.7460E+00  0.3194E+03
     10.986  0.7107E+00  0.3195E+03
     11.036  0.6775E+00  0.3195E+03
     11.087  0.6455E+00  0.3195E+03
     11.137  0.6146E+00  0.3196E+03
     11.187  0.5847E+00  0.3196E+03
     11.238  0.5559E+00  0.3196E+03
     11.288  0.5282E+00  0.3196E+03
     11.339  0.5016E+00  0.3197E+03
     11.389  0.4761E+00  0.3197E+03
     11.439  0.4517E+00  0.3197E+03
     11.490  0.4283E+00  0.3197E+03
     11.540  0.4060E+00  0.3198E+03
     11.591  0.3844E+00  0.3198E+03
     11.641  0.3632E+00  0.3198E+03
     11.691  0.3424E+00  0.3198E+03
     11.742  0.3219E+00  0.3198E+03
     11.792  0.3017E+00  0.3199E+03
     11.843  0.2808E+00  0.3199E+03
     11.893  0.2592E+00  0.3199E+03
     11.944  0.2368E+00  0.3199E+03
     11.994  0.2142E+00  0.3199E+03
     12.044  0.1918E+00  0.3199E+03
     12.095  0.1698E+00  0.3199E+03
     12.145  0.1510E+00  0.3199E+03
     12.196  0.1361E+00  0.3199E+03
     12.246  0.1236E+00  0.3199E+03
     12.296  0.1126E+00  0.3200E+03
     12.347  0.1030E+00  0.3200E+03
     12.397  0.9415E-01  0.3200E+03
     12.448  0.8635E-01  0.3200E+03
     12.498  0.7904E-01  0.3200E+03
     12.549  0.7194E-01  0.3200E+03
     12.599  0.6523E-01  0.3200E+03
     12.649  0.5900E-01  0.3200E+03
     12.700  0.5717E-01  0.3200E+03
     12.750  0.6281E-01  0.3200E+03
     12.801  0.5977E-01  0.3200E+03
     12.851  0.4795E-01  0.3200E+03
     12.901  0.3144E-01  0.3200E+03
     12.952  0.1855E-01  0.3200E+03
     13.002  0.9268E-02  0.3200E+03
     13.053  0.3599E-02  0.3200E+03
     13.103  0.1449E-02  0.3200E+03
     13.154  0.5955E-03  0.3200E+03
     13.204  0.5821E-04  0.3200E+03
     13.254  0.0000E+00  0.3200E+03
     13.305  0.0000E+00  0.3200E+03
     13.355  0.0000E+00  0.3200E+03
     13.406  0.0000E+00  0.3200E+03
     13.456  0.0000E+00  0.3200E+03
     13.506  0.0000E+00  0.3200E+03
     13.557  0.0000E+00  0.3200E+03
     13.607  0.0000E+00  0.3200E+03
     13.658  0.0000E+00  0.3200E+03
     13.708  0.0000E+00  0.3200E+03
     13.759  0.0000E+00  0.3200E+03
     13.809  0.0000E+00  0.3200E+03
     13.859  0.0000E+00  0.3200E+03
     13.910  0.0000E+00  0.3200E+03
     13.960  0.0000E+00  0.3200E+03
     14.011  0.0000E+00  0.3200E+03
     14.061  0.0000E+00  0.3200E+03
     14.111  0.0000E+00  0.3200E+03
     14.162  0.0000E+00  0.3200E+03
     14.212  0.0000E+00  0.3200E+03
