       N       E                     dE             d eps       ncg     rms          rms(c)
DAV:   1     0.112830246569E+05    0.11283E+05   -0.55466E+05 95400   0.810E+02
DAV:   2    -0.143890831099E+04   -0.12722E+05   -0.12145E+05 95800   0.337E+02
DAV:   3    -0.241090515850E+04   -0.97200E+03   -0.89403E+03135300   0.780E+01
DAV:   4    -0.248226801068E+04   -0.71363E+02   -0.68940E+02132120   0.209E+01
DAV:   5    -0.248511468427E+04   -0.28467E+01   -0.27906E+01140000   0.331E+00    0.779E+01
RMM:   6    -0.241639589863E+04    0.68719E+02   -0.68049E+02105910   0.245E+01    0.622E+01
RMM:   7    -0.236998241099E+04    0.46413E+02   -0.35219E+02 97789   0.172E+01    0.455E+01
RMM:   8    -0.233983094174E+04    0.30151E+02   -0.15696E+02 97698   0.114E+01    0.321E+01
RMM:   9    -0.231562934196E+04    0.24202E+02   -0.34463E+01 98721   0.532E+00    0.619E+00
RMM:  10    -0.231542521585E+04    0.20413E+00   -0.73698E+00136539   0.153E+00    0.350E+00
RMM:  11    -0.231529923637E+04    0.12598E+00   -0.13324E+00120709   0.789E-01    0.392E+00
RMM:  12    -0.231489653160E+04    0.40270E+00   -0.51297E-01115880   0.577E-01    0.208E+00
RMM:  13    -0.231477669681E+04    0.11983E+00   -0.25536E-01111928   0.438E-01    0.131E+00
RMM:  14    -0.231474901032E+04    0.27686E-01   -0.15213E-01111655   0.327E-01    0.134E+00
RMM:  15    -0.231472880479E+04    0.20206E-01   -0.47179E-02119939   0.138E-01    0.950E-01
RMM:  16    -0.231471450336E+04    0.14301E-01   -0.18052E-02114008   0.104E-01    0.470E-01
RMM:  17    -0.231471163594E+04    0.28674E-02   -0.14130E-02120253   0.846E-02    0.224E-01
RMM:  18    -0.231471231745E+04   -0.68151E-03   -0.83966E-03133612   0.552E-02    0.232E-01
RMM:  19    -0.231471221805E+04    0.99403E-04   -0.22958E-03131627   0.277E-02    0.221E-01
RMM:  20    -0.231471150643E+04    0.71162E-03   -0.61273E-04111624   0.195E-02    0.135E-01
RMM:  21    -0.231471112058E+04    0.38586E-03   -0.10340E-03120540   0.230E-02    0.386E-02
RMM:  22    -0.231471109227E+04    0.28308E-04   -0.27942E-04136987   0.961E-03
   1 F= -.23147111E+04 E0= -.23147188E+04  d E =0.231053E-01
