       N       E                     dE             d eps       ncg     rms          rms(c)
DAV:   1     0.112830056324E+05    0.11283E+05   -0.55466E+05 95400   0.810E+02
DAV:   2    -0.143839904151E+04   -0.12721E+05   -0.12145E+05 95780   0.337E+02
DAV:   3    -0.241075162340E+04   -0.97235E+03   -0.89413E+03135080   0.780E+01
DAV:   4    -0.248227330017E+04   -0.71522E+02   -0.69085E+02132200   0.209E+01
DAV:   5    -0.248511337894E+04   -0.28401E+01   -0.27840E+01139800   0.331E+00    0.779E+01
RMM:   6    -0.241640003387E+04    0.68713E+02   -0.68048E+02105848   0.245E+01    0.622E+01
RMM:   7    -0.237000987344E+04    0.46390E+02   -0.35216E+02 97787   0.172E+01    0.455E+01
RMM:   8    -0.233986897492E+04    0.30141E+02   -0.15703E+02 97677   0.114E+01    0.321E+01
RMM:   9    -0.231566778210E+04    0.24201E+02   -0.34498E+01 98783   0.532E+00    0.631E+00
RMM:  10    -0.231551439205E+04    0.15339E+00   -0.73116E+00136970   0.150E+00    0.384E+00
RMM:  11    -0.231536466370E+04    0.14973E+00   -0.13307E+00123685   0.694E-01    0.392E+00
RMM:  12    -0.231488880276E+04    0.47586E+00   -0.61359E-01111187   0.750E-01    0.197E+00
RMM:  13    -0.231477641880E+04    0.11238E+00   -0.25393E-01112423   0.440E-01    0.130E+00
RMM:  14    -0.231474277176E+04    0.33647E-01   -0.15016E-01112168   0.324E-01    0.123E+00
RMM:  15    -0.231472572282E+04    0.17049E-01   -0.44649E-02118379   0.143E-01    0.812E-01
RMM:  16    -0.231471570965E+04    0.10013E-01   -0.14459E-02120606   0.813E-02    0.442E-01
RMM:  17    -0.231471294854E+04    0.27611E-02   -0.12299E-02117729   0.808E-02    0.197E-01
RMM:  18    -0.231471374133E+04   -0.79279E-03   -0.87655E-03130490   0.595E-02    0.220E-01
RMM:  19    -0.231471360465E+04    0.13669E-03   -0.16159E-03137579   0.201E-02    0.206E-01
RMM:  20    -0.231471301421E+04    0.59044E-03   -0.49677E-04114397   0.167E-02    0.132E-01
RMM:  21    -0.231471265151E+04    0.36270E-03   -0.90978E-04120189   0.216E-02    0.404E-02
RMM:  22    -0.231471262078E+04    0.30734E-04   -0.27633E-04137352   0.965E-03
   1 F= -.23147126E+04 E0= -.23147203E+04  d E =0.229311E-01
