 256 256   0   0
  0.1418917E+02  0.1588033E-08  0.1692661E-08  0.1693229E-08  0.5000000E-15
  1.000000000000000E-004
  CAR 
 Ir_Ru                                   
     14.28871098     -1.29174394  301      9.45697078      1.00000000
     -1.292  0.0000E+00  0.0000E+00
     -1.240  0.0000E+00  0.0000E+00
     -1.188  0.0000E+00  0.0000E+00
     -1.136 -0.2854E-30 -0.1482E-31
     -1.084 -0.1315E-26 -0.6829E-28
     -1.032 -0.3516E-23 -0.1827E-24
     -0.980 -0.5457E-20 -0.2836E-21
     -0.928 -0.4909E-17 -0.2553E-18
     -0.876 -0.2499E-14 -0.1300E-15
     -0.824 -0.7443E-12 -0.3879E-13
     -0.772 -0.1285E-09 -0.6714E-11
     -0.720 -0.1276E-07 -0.6692E-09
     -0.669 -0.7247E-06 -0.3830E-07
     -0.617 -0.2343E-04 -0.1255E-05
     -0.565 -0.4281E-03 -0.2349E-04
     -0.513 -0.4375E-02 -0.2507E-03
     -0.461 -0.2476E-01 -0.1537E-02
     -0.409 -0.7601E-01 -0.5484E-02
     -0.357 -0.1011E+00 -0.1074E-01
     -0.305  0.2171E+00  0.5414E-03
     -0.253  0.1677E+01  0.8763E-01
     -0.201  0.4448E+01  0.3186E+00
     -0.149  0.6369E+01  0.6494E+00
     -0.097  0.6420E+01  0.9828E+00
     -0.045  0.6989E+01  0.1346E+01
      0.007  0.8904E+01  0.1808E+01
      0.059  0.1123E+02  0.2392E+01
      0.110  0.1366E+02  0.3101E+01
      0.162  0.1432E+02  0.3845E+01
      0.214  0.1162E+02  0.4448E+01
      0.266  0.1010E+02  0.4972E+01
      0.318  0.1443E+02  0.5722E+01
      0.370  0.2046E+02  0.6784E+01
      0.422  0.2253E+02  0.7954E+01
      0.474  0.2273E+02  0.9135E+01
      0.526  0.2352E+02  0.1036E+02
      0.578  0.2245E+02  0.1152E+02
      0.630  0.2042E+02  0.1258E+02
      0.682  0.2105E+02  0.1368E+02
      0.734  0.2026E+02  0.1473E+02
      0.786  0.1435E+02  0.1547E+02
      0.838  0.8741E+01  0.1593E+02
      0.890  0.8069E+01  0.1635E+02
      0.941  0.1189E+02  0.1696E+02
      0.993  0.1924E+02  0.1796E+02
      1.045  0.2815E+02  0.1943E+02
      1.097  0.3342E+02  0.2116E+02
      1.149  0.3296E+02  0.2287E+02
      1.201  0.2860E+02  0.2436E+02
      1.253  0.2261E+02  0.2553E+02
      1.305  0.1945E+02  0.2654E+02
      1.357  0.2187E+02  0.2768E+02
      1.409  0.2738E+02  0.2910E+02
      1.461  0.3037E+02  0.3068E+02
      1.513  0.2977E+02  0.3222E+02
      1.565  0.2936E+02  0.3375E+02
      1.617  0.3048E+02  0.3533E+02
      1.669  0.3115E+02  0.3695E+02
      1.720  0.3214E+02  0.3862E+02
      1.772  0.3521E+02  0.4045E+02
      1.824  0.3931E+02  0.4249E+02
      1.876  0.4585E+02  0.4487E+02
      1.928  0.5503E+02  0.4773E+02
      1.980  0.5931E+02  0.5081E+02
      2.032  0.5442E+02  0.5364E+02
      2.084  0.5062E+02  0.5626E+02
      2.136  0.6261E+02  0.5952E+02
      2.188  0.8817E+02  0.6410E+02
      2.240  0.1095E+03  0.6978E+02
      2.292  0.1201E+03  0.7602E+02
      2.344  0.1261E+03  0.8257E+02
      2.396  0.1318E+03  0.8941E+02
      2.448  0.1379E+03  0.9658E+02
      2.500  0.1480E+03  0.1043E+03
      2.551  0.1655E+03  0.1129E+03
      2.603  0.1838E+03  0.1224E+03
      2.655  0.1954E+03  0.1325E+03
      2.707  0.2077E+03  0.1433E+03
      2.759  0.2245E+03  0.1550E+03
      2.811  0.2305E+03  0.1670E+03
      2.863  0.2242E+03  0.1786E+03
      2.915  0.2284E+03  0.1905E+03
      2.967  0.2462E+03  0.2033E+03
      3.019  0.2583E+03  0.2167E+03
      3.071  0.2600E+03  0.2302E+03
      3.123  0.2607E+03  0.2437E+03
      3.175  0.2644E+03  0.2574E+03
      3.227  0.2739E+03  0.2717E+03
      3.279  0.2893E+03  0.2867E+03
      3.330  0.3088E+03  0.3027E+03
      3.382  0.3253E+03  0.3196E+03
      3.434  0.3310E+03  0.3368E+03
      3.486  0.3276E+03  0.3538E+03
      3.538  0.3211E+03  0.3705E+03
      3.590  0.3182E+03  0.3870E+03
      3.642  0.3164E+03  0.4035E+03
      3.694  0.3107E+03  0.4196E+03
      3.746  0.3049E+03  0.4354E+03
      3.798  0.3008E+03  0.4511E+03
      3.850  0.2964E+03  0.4664E+03
      3.902  0.2931E+03  0.4817E+03
      3.954  0.2879E+03  0.4966E+03
      4.006  0.2749E+03  0.5109E+03
      4.058  0.2663E+03  0.5247E+03
      4.109  0.2770E+03  0.5391E+03
      4.161  0.2953E+03  0.5545E+03
      4.213  0.3029E+03  0.5702E+03
      4.265  0.3055E+03  0.5861E+03
      4.317  0.3130E+03  0.6023E+03
      4.369  0.3192E+03  0.6189E+03
      4.421  0.3215E+03  0.6356E+03
      4.473  0.3238E+03  0.6524E+03
      4.525  0.3204E+03  0.6690E+03
      4.577  0.3084E+03  0.6851E+03
      4.629  0.2964E+03  0.7004E+03
      4.681  0.2935E+03  0.7157E+03
      4.733  0.2988E+03  0.7312E+03
      4.785  0.3068E+03  0.7471E+03
      4.837  0.3193E+03  0.7637E+03
      4.889  0.3323E+03  0.7810E+03
      4.940  0.3381E+03  0.7985E+03
      4.992  0.3464E+03  0.8165E+03
      5.044  0.3596E+03  0.8352E+03
      5.096  0.3661E+03  0.8542E+03
      5.148  0.3638E+03  0.8731E+03
      5.200  0.3534E+03  0.8915E+03
      5.252  0.3316E+03  0.9087E+03
      5.304  0.2983E+03  0.9242E+03
      5.356  0.2566E+03  0.9375E+03
      5.408  0.2136E+03  0.9486E+03
      5.460  0.1815E+03  0.9580E+03
      5.512  0.1729E+03  0.9670E+03
      5.564  0.1927E+03  0.9770E+03
      5.616  0.2326E+03  0.9891E+03
      5.668  0.2817E+03  0.1004E+04
      5.719  0.3313E+03  0.1021E+04
      5.771  0.3716E+03  0.1040E+04
      5.823  0.3973E+03  0.1061E+04
      5.875  0.4115E+03  0.1082E+04
      5.927  0.4201E+03  0.1104E+04
      5.979  0.4264E+03  0.1126E+04
      6.031  0.4277E+03  0.1148E+04
      6.083  0.4138E+03  0.1170E+04
      6.135  0.3890E+03  0.1190E+04
      6.187  0.3701E+03  0.1209E+04
      6.239  0.3603E+03  0.1228E+04
      6.291  0.3550E+03  0.1246E+04
      6.343  0.3573E+03  0.1265E+04
      6.395  0.3710E+03  0.1284E+04
      6.447  0.3827E+03  0.1304E+04
      6.498  0.3847E+03  0.1324E+04
      6.550  0.3937E+03  0.1345E+04
      6.602  0.4122E+03  0.1366E+04
      6.654  0.4248E+03  0.1388E+04
      6.706  0.4280E+03  0.1410E+04
      6.758  0.4243E+03  0.1432E+04
      6.810  0.4110E+03  0.1454E+04
      6.862  0.3892E+03  0.1474E+04
      6.914  0.3720E+03  0.1493E+04
      6.966  0.3663E+03  0.1512E+04
      7.018  0.3635E+03  0.1531E+04
      7.070  0.3700E+03  0.1550E+04
      7.122  0.3951E+03  0.1571E+04
      7.174  0.4167E+03  0.1593E+04
      7.226  0.4224E+03  0.1614E+04
      7.278  0.4219E+03  0.1636E+04
      7.329  0.4109E+03  0.1658E+04
      7.381  0.3838E+03  0.1678E+04
      7.433  0.3555E+03  0.1696E+04
      7.485  0.3387E+03  0.1714E+04
      7.537  0.3324E+03  0.1731E+04
      7.589  0.3280E+03  0.1748E+04
      7.641  0.3143E+03  0.1764E+04
      7.693  0.2922E+03  0.1779E+04
      7.745  0.2754E+03  0.1794E+04
      7.797  0.2676E+03  0.1808E+04
      7.849  0.2628E+03  0.1821E+04
      7.901  0.2563E+03  0.1835E+04
      7.953  0.2472E+03  0.1847E+04
      8.005  0.2428E+03  0.1860E+04
      8.057  0.2431E+03  0.1873E+04
      8.108  0.2379E+03  0.1885E+04
      8.160  0.2303E+03  0.1897E+04
      8.212  0.2292E+03  0.1909E+04
      8.264  0.2343E+03  0.1921E+04
      8.316  0.2383E+03  0.1933E+04
      8.368  0.2392E+03  0.1946E+04
      8.420  0.2360E+03  0.1958E+04
      8.472  0.2271E+03  0.1970E+04
      8.524  0.2172E+03  0.1981E+04
      8.576  0.2114E+03  0.1992E+04
      8.628  0.2061E+03  0.2003E+04
      8.680  0.1985E+03  0.2013E+04
      8.732  0.1900E+03  0.2023E+04
      8.784  0.1821E+03  0.2033E+04
      8.836  0.1798E+03  0.2042E+04
      8.887  0.1913E+03  0.2052E+04
      8.939  0.2176E+03  0.2063E+04
      8.991  0.2371E+03  0.2075E+04
      9.043  0.2347E+03  0.2088E+04
      9.095  0.2209E+03  0.2099E+04
      9.147  0.2032E+03  0.2110E+04
      9.199  0.1843E+03  0.2119E+04
      9.251  0.1801E+03  0.2129E+04
      9.303  0.2027E+03  0.2139E+04
      9.355  0.2326E+03  0.2151E+04
      9.407  0.2435E+03  0.2164E+04
      9.459  0.2429E+03  0.2176E+04
      9.511  0.2452E+03  0.2189E+04
      9.563  0.2439E+03  0.2202E+04
      9.615  0.2490E+03  0.2215E+04
      9.667  0.2821E+03  0.2229E+04
      9.718  0.3233E+03  0.2246E+04
      9.770  0.3353E+03  0.2264E+04
      9.822  0.3241E+03  0.2280E+04
      9.874  0.3158E+03  0.2297E+04
      9.926  0.3157E+03  0.2313E+04
      9.978  0.3241E+03  0.2330E+04
     10.030  0.3489E+03  0.2348E+04
     10.082  0.3868E+03  0.2368E+04
     10.134  0.4169E+03  0.2390E+04
     10.186  0.4300E+03  0.2412E+04
     10.238  0.4381E+03  0.2435E+04
     10.290  0.4518E+03  0.2459E+04
     10.342  0.4709E+03  0.2483E+04
     10.394  0.4889E+03  0.2508E+04
     10.446  0.4977E+03  0.2534E+04
     10.497  0.4853E+03  0.2559E+04
     10.549  0.4420E+03  0.2582E+04
     10.601  0.3787E+03  0.2602E+04
     10.653  0.3071E+03  0.2618E+04
     10.705  0.2196E+03  0.2629E+04
     10.757  0.1192E+03  0.2636E+04
     10.809  0.3754E+02  0.2638E+04
     10.861 -0.1558E+00  0.2638E+04
     10.913 -0.5294E+01  0.2637E+04
     10.965 -0.2122E+01  0.2637E+04
     11.017 -0.4281E+00  0.2637E+04
     11.069 -0.5458E-01  0.2637E+04
     11.121 -0.4932E-02  0.2637E+04
     11.173 -0.3173E-03  0.2637E+04
     11.225 -0.1345E-04  0.2637E+04
     11.276 -0.3494E-06  0.2637E+04
     11.328 -0.5356E-08  0.2637E+04
     11.380 -0.4773E-10  0.2637E+04
     11.432 -0.2982E-11  0.2637E+04
     11.484 -0.4806E-09  0.2637E+04
     11.536 -0.4863E-07  0.2637E+04
     11.588 -0.2818E-05  0.2637E+04
     11.640 -0.9272E-04  0.2637E+04
     11.692 -0.1702E-02  0.2637E+04
     11.744 -0.1681E-01  0.2637E+04
     11.796 -0.8116E-01  0.2637E+04
     11.848 -0.1200E+00  0.2637E+04
     11.900  0.4060E+00  0.2637E+04
     11.952  0.1809E+01  0.2637E+04
     12.004  0.2658E+01  0.2637E+04
     12.056  0.1949E+01  0.2637E+04
     12.107  0.1121E+01  0.2638E+04
     12.159  0.9796E+00  0.2638E+04
     12.211  0.1147E+01  0.2638E+04
     12.263  0.1630E+01  0.2638E+04
     12.315  0.2383E+01  0.2638E+04
     12.367  0.2991E+01  0.2638E+04
     12.419  0.3147E+01  0.2638E+04
     12.471  0.2690E+01  0.2638E+04
     12.523  0.2137E+01  0.2638E+04
     12.575  0.2448E+01  0.2639E+04
     12.627  0.3338E+01  0.2639E+04
     12.679  0.3818E+01  0.2639E+04
     12.731  0.3573E+01  0.2639E+04
     12.783  0.2745E+01  0.2639E+04
     12.835  0.2180E+01  0.2639E+04
     12.886  0.2377E+01  0.2639E+04
     12.938  0.2294E+01  0.2640E+04
     12.990  0.1522E+01  0.2640E+04
     13.042  0.1025E+01  0.2640E+04
     13.094  0.1031E+01  0.2640E+04
     13.146  0.1061E+01  0.2640E+04
     13.198  0.9166E+00  0.2640E+04
     13.250  0.8113E+00  0.2640E+04
     13.302  0.8890E+00  0.2640E+04
     13.354  0.6612E+00  0.2640E+04
     13.406  0.1835E+00  0.2640E+04
     13.458 -0.3651E-01  0.2640E+04
     13.510 -0.3255E-01  0.2640E+04
     13.562 -0.7368E-02  0.2640E+04
     13.614 -0.7916E-03  0.2640E+04
     13.665 -0.4513E-04  0.2640E+04
     13.717 -0.1422E-05  0.2640E+04
     13.769 -0.2527E-07  0.2640E+04
     13.821 -0.2558E-09  0.2640E+04
     13.873 -0.1485E-11  0.2640E+04
     13.925 -0.5226E-14  0.2640E+04
     13.977  0.0000E+00  0.2640E+04
     14.029  0.0000E+00  0.2640E+04
     14.081  0.0000E+00  0.2640E+04
     14.133  0.0000E+00  0.2640E+04
     14.185  0.0000E+00  0.2640E+04
     14.237  0.0000E+00  0.2640E+04
     14.289  0.0000E+00  0.2640E+04
