 256 256   0   0
  0.1419206E+02  0.1537080E-08  0.1537218E-08  0.1537636E-08  0.5000000E-15
  1.000000000000000E-004
  CAR 
 Ir_Ru                                   
     12.68682215     -1.29519726  301      9.24212928      1.00000000
     -1.295  0.0000E+00  0.0000E+00
     -1.249  0.0000E+00  0.0000E+00
     -1.202  0.0000E+00  0.0000E+00
     -1.155  0.0000E+00  0.0000E+00
     -1.109 -0.2762E-28 -0.1287E-29
     -1.062 -0.4124E-25 -0.1923E-26
     -1.016 -0.3971E-22 -0.1853E-23
     -0.969 -0.2467E-19 -0.1152E-20
     -0.922 -0.9890E-17 -0.4621E-18
     -0.876 -0.2482E-14 -0.1161E-15
     -0.829 -0.4116E-12 -0.1930E-13
     -0.783 -0.4396E-10 -0.2068E-11
     -0.736 -0.3024E-08 -0.1430E-09
     -0.689 -0.1342E-06 -0.6396E-08
     -0.643 -0.3843E-05 -0.1855E-06
     -0.596 -0.7126E-04 -0.3507E-05
     -0.549 -0.8581E-03 -0.4350E-04
     -0.503 -0.6711E-02 -0.3563E-03
     -0.456 -0.3368E-01 -0.1926E-02
     -0.410 -0.1023E+00 -0.6692E-02
     -0.363 -0.1375E+00 -0.1310E-01
     -0.316  0.2262E+00 -0.2559E-02
     -0.270  0.1515E+01  0.6805E-01
     -0.223  0.3546E+01  0.2333E+00
     -0.177  0.5074E+01  0.4698E+00
     -0.130  0.5736E+01  0.7371E+00
     -0.083  0.7337E+01  0.1079E+01
     -0.037  0.1021E+02  0.1555E+01
      0.010  0.1102E+02  0.2068E+01
      0.056  0.9144E+01  0.2495E+01
      0.103  0.9396E+01  0.2932E+01
      0.150  0.1317E+02  0.3546E+01
      0.196  0.1592E+02  0.4288E+01
      0.243  0.1605E+02  0.5036E+01
      0.289  0.1674E+02  0.5817E+01
      0.336  0.1850E+02  0.6679E+01
      0.383  0.1833E+02  0.7534E+01
      0.429  0.1744E+02  0.8346E+01
      0.476  0.1984E+02  0.9271E+01
      0.522  0.2339E+02  0.1036E+02
      0.569  0.2405E+02  0.1148E+02
      0.616  0.2227E+02  0.1252E+02
      0.662  0.1870E+02  0.1339E+02
      0.709  0.1405E+02  0.1405E+02
      0.755  0.1113E+02  0.1457E+02
      0.802  0.1071E+02  0.1506E+02
      0.849  0.1113E+02  0.1558E+02
      0.895  0.1215E+02  0.1615E+02
      0.942  0.1463E+02  0.1683E+02
      0.989  0.1833E+02  0.1769E+02
      1.035  0.2289E+02  0.1875E+02
      1.082  0.2810E+02  0.2006E+02
      1.128  0.3126E+02  0.2152E+02
      1.175  0.2973E+02  0.2290E+02
      1.222  0.2588E+02  0.2411E+02
      1.268  0.2304E+02  0.2518E+02
      1.315  0.2095E+02  0.2616E+02
      1.361  0.2002E+02  0.2709E+02
      1.408  0.2163E+02  0.2810E+02
      1.455  0.2408E+02  0.2922E+02
      1.501  0.2566E+02  0.3042E+02
      1.548  0.2897E+02  0.3177E+02
      1.594  0.3512E+02  0.3341E+02
      1.641  0.3876E+02  0.3521E+02
      1.688  0.3790E+02  0.3698E+02
      1.734  0.3931E+02  0.3881E+02
      1.781  0.4554E+02  0.4093E+02
      1.827  0.4933E+02  0.4323E+02
      1.874  0.4781E+02  0.4546E+02
      1.921  0.4729E+02  0.4767E+02
      1.967  0.5092E+02  0.5004E+02
      2.014  0.5413E+02  0.5256E+02
      2.060  0.5552E+02  0.5515E+02
      2.107  0.6147E+02  0.5801E+02
      2.154  0.7469E+02  0.6150E+02
      2.200  0.8951E+02  0.6567E+02
      2.247  0.1032E+03  0.7048E+02
      2.294  0.1179E+03  0.7597E+02
      2.340  0.1311E+03  0.8208E+02
      2.387  0.1383E+03  0.8853E+02
      2.433  0.1432E+03  0.9520E+02
      2.480  0.1522E+03  0.1023E+03
      2.527  0.1608E+03  0.1098E+03
      2.573  0.1616E+03  0.1173E+03
      2.620  0.1614E+03  0.1248E+03
      2.666  0.1691E+03  0.1327E+03
      2.713  0.1786E+03  0.1411E+03
      2.760  0.1849E+03  0.1497E+03
      2.806  0.1980E+03  0.1589E+03
      2.853  0.2232E+03  0.1693E+03
      2.899  0.2478E+03  0.1809E+03
      2.946  0.2563E+03  0.1928E+03
      2.993  0.2496E+03  0.2044E+03
      3.039  0.2468E+03  0.2159E+03
      3.086  0.2624E+03  0.2282E+03
      3.132  0.2867E+03  0.2415E+03
      3.179  0.3013E+03  0.2556E+03
      3.226  0.3038E+03  0.2697E+03
      3.272  0.3050E+03  0.2839E+03
      3.319  0.3085E+03  0.2983E+03
      3.365  0.3111E+03  0.3128E+03
      3.412  0.3143E+03  0.3275E+03
      3.459  0.3215E+03  0.3425E+03
      3.505  0.3332E+03  0.3580E+03
      3.552  0.3440E+03  0.3740E+03
      3.599  0.3468E+03  0.3902E+03
      3.645  0.3448E+03  0.4062E+03
      3.692  0.3487E+03  0.4225E+03
      3.738  0.3577E+03  0.4392E+03
      3.785  0.3593E+03  0.4559E+03
      3.832  0.3522E+03  0.4723E+03
      3.878  0.3478E+03  0.4885E+03
      3.925  0.3497E+03  0.5048E+03
      3.971  0.3506E+03  0.5212E+03
      4.018  0.3413E+03  0.5371E+03
      4.065  0.3226E+03  0.5521E+03
      4.111  0.3066E+03  0.5664E+03
      4.158  0.2975E+03  0.5803E+03
      4.204  0.2873E+03  0.5937E+03
      4.251  0.2711E+03  0.6063E+03
      4.298  0.2536E+03  0.6181E+03
      4.344  0.2428E+03  0.6294E+03
      4.391  0.2454E+03  0.6409E+03
      4.437  0.2579E+03  0.6529E+03
      4.484  0.2617E+03  0.6651E+03
      4.531  0.2506E+03  0.6768E+03
      4.577  0.2478E+03  0.6883E+03
      4.624  0.2675E+03  0.7008E+03
      4.670  0.2921E+03  0.7144E+03
      4.717  0.3068E+03  0.7287E+03
      4.764  0.3135E+03  0.7433E+03
      4.810  0.3134E+03  0.7579E+03
      4.857  0.3048E+03  0.7721E+03
      4.903  0.2900E+03  0.7856E+03
      4.950  0.2784E+03  0.7986E+03
      4.997  0.2813E+03  0.8117E+03
      5.043  0.2953E+03  0.8255E+03
      5.090  0.3078E+03  0.8398E+03
      5.137  0.3090E+03  0.8542E+03
      5.183  0.2975E+03  0.8681E+03
      5.230  0.2856E+03  0.8814E+03
      5.276  0.2845E+03  0.8947E+03
      5.323  0.2905E+03  0.9082E+03
      5.370  0.2974E+03  0.9221E+03
      5.416  0.3019E+03  0.9361E+03
      5.463  0.2986E+03  0.9500E+03
      5.509  0.2887E+03  0.9635E+03
      5.556  0.2869E+03  0.9769E+03
      5.603  0.3031E+03  0.9910E+03
      5.649  0.3218E+03  0.1006E+04
      5.696  0.3252E+03  0.1021E+04
      5.742  0.3201E+03  0.1036E+04
      5.789  0.3200E+03  0.1051E+04
      5.836  0.3264E+03  0.1066E+04
      5.882  0.3369E+03  0.1082E+04
      5.929  0.3503E+03  0.1098E+04
      5.975  0.3655E+03  0.1115E+04
      6.022  0.3791E+03  0.1133E+04
      6.069  0.3855E+03  0.1151E+04
      6.115  0.3875E+03  0.1169E+04
      6.162  0.3917E+03  0.1187E+04
      6.208  0.3986E+03  0.1206E+04
      6.255  0.4097E+03  0.1225E+04
      6.302  0.4275E+03  0.1245E+04
      6.348  0.4468E+03  0.1266E+04
      6.395  0.4575E+03  0.1287E+04
      6.442  0.4572E+03  0.1308E+04
      6.488  0.4532E+03  0.1329E+04
      6.535  0.4500E+03  0.1350E+04
      6.581  0.4456E+03  0.1371E+04
      6.628  0.4391E+03  0.1392E+04
      6.675  0.4317E+03  0.1412E+04
      6.721  0.4246E+03  0.1432E+04
      6.768  0.4166E+03  0.1451E+04
      6.814  0.4009E+03  0.1470E+04
      6.861  0.3761E+03  0.1487E+04
      6.908  0.3539E+03  0.1504E+04
      6.954  0.3441E+03  0.1520E+04
      7.001  0.3391E+03  0.1535E+04
      7.047  0.3274E+03  0.1551E+04
      7.094  0.3147E+03  0.1565E+04
      7.141  0.3136E+03  0.1580E+04
      7.187  0.3194E+03  0.1595E+04
      7.234  0.3131E+03  0.1610E+04
      7.280  0.2869E+03  0.1623E+04
      7.327  0.2554E+03  0.1635E+04
      7.374  0.2400E+03  0.1646E+04
      7.420  0.2490E+03  0.1658E+04
      7.467  0.2716E+03  0.1670E+04
      7.513  0.2847E+03  0.1683E+04
      7.560  0.2762E+03  0.1696E+04
      7.607  0.2582E+03  0.1708E+04
      7.653  0.2482E+03  0.1720E+04
      7.700  0.2575E+03  0.1732E+04
      7.747  0.2834E+03  0.1745E+04
      7.793  0.3057E+03  0.1759E+04
      7.840  0.3120E+03  0.1774E+04
      7.886  0.3086E+03  0.1788E+04
      7.933  0.3029E+03  0.1802E+04
      7.980  0.2959E+03  0.1816E+04
      8.026  0.2910E+03  0.1830E+04
      8.073  0.2960E+03  0.1844E+04
      8.119  0.3095E+03  0.1858E+04
      8.166  0.3172E+03  0.1873E+04
      8.213  0.3179E+03  0.1888E+04
      8.259  0.3303E+03  0.1903E+04
      8.306  0.3541E+03  0.1920E+04
      8.352  0.3622E+03  0.1936E+04
      8.399  0.3391E+03  0.1952E+04
      8.446  0.2991E+03  0.1966E+04
      8.492  0.2664E+03  0.1979E+04
      8.539  0.2557E+03  0.1991E+04
      8.585  0.2715E+03  0.2003E+04
      8.632  0.2960E+03  0.2017E+04
      8.679  0.3001E+03  0.2031E+04
      8.725  0.2836E+03  0.2044E+04
      8.772  0.2673E+03  0.2057E+04
      8.818  0.2567E+03  0.2069E+04
      8.865  0.2488E+03  0.2080E+04
      8.912  0.2449E+03  0.2092E+04
      8.958  0.2453E+03  0.2103E+04
      9.005  0.2538E+03  0.2115E+04
      9.051  0.2739E+03  0.2128E+04
      9.098  0.2839E+03  0.2141E+04
      9.145  0.2654E+03  0.2153E+04
      9.191  0.2404E+03  0.2164E+04
      9.238  0.2281E+03  0.2175E+04
      9.285  0.2197E+03  0.2185E+04
      9.331  0.2138E+03  0.2195E+04
      9.378  0.2222E+03  0.2206E+04
      9.424  0.2430E+03  0.2217E+04
      9.471  0.2627E+03  0.2229E+04
      9.518  0.2737E+03  0.2242E+04
      9.564  0.2772E+03  0.2255E+04
      9.611  0.2761E+03  0.2268E+04
      9.657  0.2708E+03  0.2280E+04
      9.704  0.2607E+03  0.2293E+04
      9.751  0.2433E+03  0.2304E+04
      9.797  0.2239E+03  0.2314E+04
      9.844  0.2197E+03  0.2325E+04
      9.890  0.2372E+03  0.2336E+04
      9.937  0.2649E+03  0.2348E+04
      9.984  0.2960E+03  0.2362E+04
     10.030  0.3282E+03  0.2377E+04
     10.077  0.3495E+03  0.2393E+04
     10.123  0.3461E+03  0.2409E+04
     10.170  0.3234E+03  0.2424E+04
     10.217  0.3102E+03  0.2439E+04
     10.263  0.3302E+03  0.2454E+04
     10.310  0.3892E+03  0.2472E+04
     10.356  0.4685E+03  0.2494E+04
     10.403  0.5193E+03  0.2519E+04
     10.450  0.5080E+03  0.2542E+04
     10.496  0.4483E+03  0.2563E+04
     10.543  0.3716E+03  0.2580E+04
     10.590  0.3002E+03  0.2594E+04
     10.636  0.2468E+03  0.2606E+04
     10.683  0.2114E+03  0.2616E+04
     10.729  0.1799E+03  0.2624E+04
     10.776  0.1411E+03  0.2631E+04
     10.823  0.9641E+02  0.2635E+04
     10.869  0.5560E+02  0.2638E+04
     10.916  0.2646E+02  0.2639E+04
     10.962  0.9797E+01  0.2639E+04
     11.009  0.2687E+01  0.2640E+04
     11.056  0.1414E+01  0.2640E+04
     11.102  0.1949E+01  0.2640E+04
     11.149  0.1685E+01  0.2640E+04
     11.195  0.6653E+00  0.2640E+04
     11.242 -0.9692E-02  0.2640E+04
     11.289 -0.1173E+00  0.2640E+04
     11.335 -0.4932E-01  0.2640E+04
     11.382 -0.1043E-01  0.2640E+04
     11.428 -0.3420E-02  0.2640E+04
     11.475 -0.1352E-01  0.2640E+04
     11.522 -0.4293E-01  0.2640E+04
     11.568 -0.3402E-01  0.2640E+04
     11.615  0.2079E+00  0.2640E+04
     11.661  0.7257E+00  0.2640E+04
     11.708  0.1025E+01  0.2640E+04
     11.755  0.7121E+00  0.2640E+04
     11.801  0.1972E+00  0.2640E+04
     11.848 -0.3618E-01  0.2640E+04
     11.895 -0.4210E-01  0.2640E+04
     11.941 -0.1291E-01  0.2640E+04
     11.988 -0.2073E-02  0.2640E+04
     12.034 -0.1956E-03  0.2640E+04
     12.081 -0.1131E-04  0.2640E+04
     12.128 -0.4090E-06  0.2640E+04
     12.174 -0.9354E-08  0.2640E+04
     12.221 -0.1362E-09  0.2640E+04
     12.267 -0.1268E-11  0.2640E+04
     12.314 -0.7742E-14  0.2640E+04
     12.361  0.0000E+00  0.2640E+04
     12.407  0.0000E+00  0.2640E+04
     12.454  0.0000E+00  0.2640E+04
     12.500  0.0000E+00  0.2640E+04
     12.547  0.0000E+00  0.2640E+04
     12.594  0.0000E+00  0.2640E+04
     12.640  0.0000E+00  0.2640E+04
     12.687  0.0000E+00  0.2640E+04
