       N       E                     dE             d eps       ncg     rms          rms(c)
DAV:   1     0.112829394377E+05    0.11283E+05   -0.55466E+05 95400   0.810E+02
DAV:   2    -0.143842232338E+04   -0.12721E+05   -0.12145E+05 95780   0.337E+02
DAV:   3    -0.241072143527E+04   -0.97230E+03   -0.89406E+03135040   0.780E+01
DAV:   4    -0.248228245116E+04   -0.71561E+02   -0.69127E+02132340   0.209E+01
DAV:   5    -0.248512123154E+04   -0.28388E+01   -0.27826E+01139800   0.331E+00    0.779E+01
RMM:   6    -0.241648132965E+04    0.68640E+02   -0.68100E+02105906   0.245E+01    0.623E+01
RMM:   7    -0.236995099075E+04    0.46530E+02   -0.35220E+02 97767   0.172E+01    0.455E+01
RMM:   8    -0.233988261353E+04    0.30068E+02   -0.15692E+02 97696   0.114E+01    0.321E+01
RMM:   9    -0.231578157212E+04    0.24101E+02   -0.34468E+01 98900   0.531E+00    0.666E+00
RMM:  10    -0.231564429053E+04    0.13728E+00   -0.71810E+00137713   0.144E+00    0.431E+00
RMM:  11    -0.231534274642E+04    0.30154E+00   -0.13709E+00123824   0.723E-01    0.364E+00
RMM:  12    -0.231488846464E+04    0.45428E+00   -0.66116E-01109315   0.829E-01    0.195E+00
RMM:  13    -0.231479738484E+04    0.91080E-01   -0.24658E-01114177   0.414E-01    0.154E+00
RMM:  14    -0.231478839403E+04    0.89908E-02   -0.14607E-01119913   0.245E-01    0.169E+00
RMM:  15    -0.231472603094E+04    0.62363E-01   -0.88008E-02113017   0.230E-01    0.892E-01
RMM:  16    -0.231471445141E+04    0.11580E-01   -0.23198E-02112274   0.120E-01    0.404E-01
RMM:  17    -0.231471353913E+04    0.91228E-03   -0.10124E-02124169   0.622E-02    0.287E-01
RMM:  18    -0.231471282856E+04    0.71057E-03   -0.66483E-03124898   0.533E-02    0.182E-01
RMM:  19    -0.231471303985E+04   -0.21129E-03   -0.31375E-03128261   0.359E-02    0.190E-01
RMM:  20    -0.231471251774E+04    0.52211E-03   -0.51854E-04113040   0.174E-02    0.120E-01
RMM:  21    -0.231471219565E+04    0.32209E-03   -0.66714E-04117119   0.193E-02    0.399E-02
RMM:  22    -0.231471216131E+04    0.34337E-04   -0.23759E-04134288   0.934E-03
   1 F= -.23147122E+04 E0= -.23147198E+04  d E =0.228050E-01
