 256 256   0   0
  0.1419206E+02  0.1537080E-08  0.1537218E-08  0.1537636E-08  0.5000000E-15
  1.000000000000000E-004
  CAR 
 Ir_Ru                                   
     12.68427933     -1.29488953  301      9.24203866      1.00000000
     -1.295  0.0000E+00  0.0000E+00
     -1.248  0.0000E+00  0.0000E+00
     -1.202  0.0000E+00  0.0000E+00
     -1.155  0.0000E+00  0.0000E+00
     -1.109 -0.2745E-28 -0.1279E-29
     -1.062 -0.4095E-25 -0.1909E-26
     -1.015 -0.3939E-22 -0.1838E-23
     -0.969 -0.2446E-19 -0.1142E-20
     -0.922 -0.9799E-17 -0.4577E-18
     -0.876 -0.2458E-14 -0.1150E-15
     -0.829 -0.4076E-12 -0.1911E-13
     -0.782 -0.4353E-10 -0.2047E-11
     -0.736 -0.2995E-08 -0.1416E-09
     -0.689 -0.1329E-06 -0.6335E-08
     -0.643 -0.3809E-05 -0.1838E-06
     -0.596 -0.7068E-04 -0.3477E-05
     -0.549 -0.8518E-03 -0.4317E-04
     -0.503 -0.6668E-02 -0.3539E-03
     -0.456 -0.3351E-01 -0.1915E-02
     -0.410 -0.1019E+00 -0.6665E-02
     -0.363 -0.1378E+00 -0.1309E-01
     -0.316  0.2230E+00 -0.2696E-02
     -0.270  0.1507E+01  0.6752E-01
     -0.223  0.3536E+01  0.2323E+00
     -0.177  0.5069E+01  0.4685E+00
     -0.130  0.5731E+01  0.7355E+00
     -0.083  0.7322E+01  0.1077E+01
     -0.037  0.1019E+02  0.1552E+01
      0.010  0.1102E+02  0.2065E+01
      0.056  0.9151E+01  0.2492E+01
      0.103  0.9371E+01  0.2928E+01
      0.150  0.1314E+02  0.3541E+01
      0.196  0.1591E+02  0.4282E+01
      0.243  0.1604E+02  0.5030E+01
      0.289  0.1672E+02  0.5809E+01
      0.336  0.1849E+02  0.6670E+01
      0.383  0.1835E+02  0.7526E+01
      0.429  0.1744E+02  0.8338E+01
      0.476  0.1981E+02  0.9261E+01
      0.522  0.2338E+02  0.1035E+02
      0.569  0.2407E+02  0.1147E+02
      0.616  0.2229E+02  0.1251E+02
      0.662  0.1874E+02  0.1338E+02
      0.709  0.1410E+02  0.1404E+02
      0.755  0.1115E+02  0.1456E+02
      0.802  0.1072E+02  0.1506E+02
      0.849  0.1114E+02  0.1558E+02
      0.895  0.1215E+02  0.1615E+02
      0.942  0.1461E+02  0.1683E+02
      0.988  0.1828E+02  0.1768E+02
      1.035  0.2283E+02  0.1874E+02
      1.082  0.2806E+02  0.2005E+02
      1.128  0.3127E+02  0.2151E+02
      1.175  0.2974E+02  0.2289E+02
      1.221  0.2587E+02  0.2410E+02
      1.268  0.2302E+02  0.2517E+02
      1.315  0.2095E+02  0.2615E+02
      1.361  0.2004E+02  0.2708E+02
      1.408  0.2165E+02  0.2809E+02
      1.454  0.2411E+02  0.2921E+02
      1.501  0.2567E+02  0.3041E+02
      1.548  0.2892E+02  0.3176E+02
      1.594  0.3502E+02  0.3339E+02
      1.641  0.3872E+02  0.3519E+02
      1.687  0.3789E+02  0.3696E+02
      1.734  0.3926E+02  0.3879E+02
      1.781  0.4546E+02  0.4091E+02
      1.827  0.4931E+02  0.4320E+02
      1.874  0.4782E+02  0.4543E+02
      1.920  0.4725E+02  0.4763E+02
      1.967  0.5081E+02  0.5000E+02
      2.014  0.5402E+02  0.5252E+02
      2.060  0.5543E+02  0.5510E+02
      2.107  0.6131E+02  0.5796E+02
      2.153  0.7448E+02  0.6143E+02
      2.200  0.8929E+02  0.6559E+02
      2.246  0.1030E+03  0.7039E+02
      2.293  0.1177E+03  0.7587E+02
      2.340  0.1309E+03  0.8197E+02
      2.386  0.1382E+03  0.8841E+02
      2.433  0.1432E+03  0.9508E+02
      2.479  0.1521E+03  0.1022E+03
      2.526  0.1608E+03  0.1097E+03
      2.573  0.1616E+03  0.1172E+03
      2.619  0.1612E+03  0.1247E+03
      2.666  0.1688E+03  0.1326E+03
      2.712  0.1784E+03  0.1409E+03
      2.759  0.1849E+03  0.1495E+03
      2.806  0.1978E+03  0.1587E+03
      2.852  0.2228E+03  0.1691E+03
      2.899  0.2475E+03  0.1806E+03
      2.945  0.2564E+03  0.1926E+03
      2.992  0.2500E+03  0.2042E+03
      3.039  0.2470E+03  0.2157E+03
      3.085  0.2621E+03  0.2280E+03
      3.132  0.2864E+03  0.2413E+03
      3.178  0.3010E+03  0.2553E+03
      3.225  0.3035E+03  0.2695E+03
      3.272  0.3047E+03  0.2837E+03
      3.318  0.3082E+03  0.2980E+03
      3.365  0.3111E+03  0.3125E+03
      3.411  0.3145E+03  0.3272E+03
      3.458  0.3217E+03  0.3422E+03
      3.505  0.3333E+03  0.3577E+03
      3.551  0.3440E+03  0.3737E+03
      3.598  0.3469E+03  0.3899E+03
      3.644  0.3449E+03  0.4060E+03
      3.691  0.3487E+03  0.4222E+03
      3.738  0.3577E+03  0.4389E+03
      3.784  0.3594E+03  0.4556E+03
      3.831  0.3524E+03  0.4720E+03
      3.877  0.3480E+03  0.4883E+03
      3.924  0.3499E+03  0.5046E+03
      3.971  0.3509E+03  0.5209E+03
      4.017  0.3417E+03  0.5368E+03
      4.064  0.3230E+03  0.5519E+03
      4.110  0.3068E+03  0.5662E+03
      4.157  0.2976E+03  0.5801E+03
      4.204  0.2875E+03  0.5935E+03
      4.250  0.2714E+03  0.6061E+03
      4.297  0.2538E+03  0.6179E+03
      4.343  0.2429E+03  0.6292E+03
      4.390  0.2454E+03  0.6407E+03
      4.437  0.2578E+03  0.6527E+03
      4.483  0.2616E+03  0.6649E+03
      4.530  0.2504E+03  0.6766E+03
      4.576  0.2474E+03  0.6881E+03
      4.623  0.2669E+03  0.7005E+03
      4.670  0.2916E+03  0.7141E+03
      4.716  0.3065E+03  0.7284E+03
      4.763  0.3135E+03  0.7430E+03
      4.809  0.3136E+03  0.7576E+03
      4.856  0.3051E+03  0.7718E+03
      4.903  0.2904E+03  0.7854E+03
      4.949  0.2786E+03  0.7983E+03
      4.996  0.2810E+03  0.8114E+03
      5.042  0.2950E+03  0.8252E+03
      5.089  0.3077E+03  0.8395E+03
      5.136  0.3092E+03  0.8539E+03
      5.182  0.2979E+03  0.8678E+03
      5.229  0.2859E+03  0.8811E+03
      5.275  0.2846E+03  0.8944E+03
      5.322  0.2904E+03  0.9079E+03
      5.369  0.2973E+03  0.9218E+03
      5.415  0.3019E+03  0.9358E+03
      5.462  0.2988E+03  0.9498E+03
      5.508  0.2889E+03  0.9632E+03
      5.555  0.2866E+03  0.9766E+03
      5.602  0.3023E+03  0.9907E+03
      5.648  0.3213E+03  0.1006E+04
      5.695  0.3252E+03  0.1021E+04
      5.741  0.3202E+03  0.1036E+04
      5.788  0.3199E+03  0.1051E+04
      5.834  0.3262E+03  0.1066E+04
      5.881  0.3366E+03  0.1081E+04
      5.928  0.3499E+03  0.1098E+04
      5.974  0.3652E+03  0.1115E+04
      6.021  0.3789E+03  0.1132E+04
      6.067  0.3855E+03  0.1150E+04
      6.114  0.3875E+03  0.1168E+04
      6.161  0.3915E+03  0.1187E+04
      6.207  0.3984E+03  0.1205E+04
      6.254  0.4094E+03  0.1224E+04
      6.300  0.4269E+03  0.1244E+04
      6.347  0.4462E+03  0.1265E+04
      6.394  0.4571E+03  0.1286E+04
      6.440  0.4571E+03  0.1308E+04
      6.487  0.4532E+03  0.1329E+04
      6.533  0.4501E+03  0.1350E+04
      6.580  0.4458E+03  0.1371E+04
      6.627  0.4395E+03  0.1391E+04
      6.673  0.4321E+03  0.1411E+04
      6.720  0.4251E+03  0.1431E+04
      6.766  0.4171E+03  0.1450E+04
      6.813  0.4018E+03  0.1469E+04
      6.860  0.3771E+03  0.1487E+04
      6.906  0.3546E+03  0.1503E+04
      6.953  0.3444E+03  0.1519E+04
      6.999  0.3393E+03  0.1535E+04
      7.046  0.3278E+03  0.1550E+04
      7.093  0.3149E+03  0.1565E+04
      7.139  0.3134E+03  0.1580E+04
      7.186  0.3193E+03  0.1594E+04
      7.232  0.3136E+03  0.1609E+04
      7.279  0.2878E+03  0.1623E+04
      7.326  0.2561E+03  0.1634E+04
      7.372  0.2401E+03  0.1646E+04
      7.419  0.2485E+03  0.1657E+04
      7.465  0.2711E+03  0.1670E+04
      7.512  0.2846E+03  0.1683E+04
      7.559  0.2766E+03  0.1696E+04
      7.605  0.2586E+03  0.1708E+04
      7.652  0.2483E+03  0.1720E+04
      7.698  0.2569E+03  0.1732E+04
      7.745  0.2825E+03  0.1745E+04
      7.792  0.3053E+03  0.1759E+04
      7.838  0.3121E+03  0.1774E+04
      7.885  0.3089E+03  0.1788E+04
      7.931  0.3032E+03  0.1802E+04
      7.978  0.2961E+03  0.1816E+04
      8.025  0.2908E+03  0.1829E+04
      8.071  0.2954E+03  0.1843E+04
      8.118  0.3090E+03  0.1858E+04
      8.164  0.3171E+03  0.1872E+04
      8.211  0.3177E+03  0.1887E+04
      8.258  0.3295E+03  0.1902E+04
      8.304  0.3534E+03  0.1919E+04
      8.351  0.3626E+03  0.1936E+04
      8.397  0.3405E+03  0.1952E+04
      8.444  0.3005E+03  0.1966E+04
      8.491  0.2671E+03  0.1978E+04
      8.537  0.2555E+03  0.1990E+04
      8.584  0.2706E+03  0.2003E+04
      8.630  0.2954E+03  0.2016E+04
      8.677  0.3004E+03  0.2030E+04
      8.724  0.2842E+03  0.2044E+04
      8.770  0.2676E+03  0.2056E+04
      8.817  0.2570E+03  0.2068E+04
      8.863  0.2492E+03  0.2080E+04
      8.910  0.2452E+03  0.2091E+04
      8.957  0.2454E+03  0.2103E+04
      9.003  0.2532E+03  0.2114E+04
      9.050  0.2731E+03  0.2127E+04
      9.096  0.2841E+03  0.2140E+04
      9.143  0.2665E+03  0.2153E+04
      9.189  0.2411E+03  0.2164E+04
      9.236  0.2284E+03  0.2175E+04
      9.283  0.2201E+03  0.2185E+04
      9.329  0.2139E+03  0.2195E+04
      9.376  0.2216E+03  0.2205E+04
      9.422  0.2420E+03  0.2216E+04
      9.469  0.2620E+03  0.2229E+04
      9.516  0.2735E+03  0.2241E+04
      9.562  0.2773E+03  0.2254E+04
      9.609  0.2763E+03  0.2267E+04
      9.655  0.2711E+03  0.2280E+04
      9.702  0.2612E+03  0.2292E+04
      9.749  0.2441E+03  0.2303E+04
      9.795  0.2245E+03  0.2314E+04
      9.842  0.2194E+03  0.2324E+04
      9.888  0.2362E+03  0.2335E+04
      9.935  0.2636E+03  0.2347E+04
      9.982  0.2944E+03  0.2361E+04
     10.028  0.3268E+03  0.2376E+04
     10.075  0.3491E+03  0.2393E+04
     10.121  0.3467E+03  0.2409E+04
     10.168  0.3242E+03  0.2424E+04
     10.215  0.3100E+03  0.2438E+04
     10.261  0.3283E+03  0.2454E+04
     10.308  0.3858E+03  0.2472E+04
     10.354  0.4651E+03  0.2493E+04
     10.401  0.5182E+03  0.2517E+04
     10.448  0.5099E+03  0.2541E+04
     10.494  0.4517E+03  0.2562E+04
     10.541  0.3751E+03  0.2580E+04
     10.587  0.3030E+03  0.2594E+04
     10.634  0.2487E+03  0.2605E+04
     10.681  0.2128E+03  0.2615E+04
     10.727  0.1814E+03  0.2624E+04
     10.774  0.1427E+03  0.2630E+04
     10.820  0.9796E+02  0.2635E+04
     10.867  0.5711E+02  0.2638E+04
     10.914  0.2783E+02  0.2639E+04
     10.960  0.1067E+02  0.2639E+04
     11.007  0.2949E+01  0.2640E+04
     11.053  0.1284E+01  0.2640E+04
     11.100  0.1774E+01  0.2640E+04
     11.147  0.1640E+01  0.2640E+04
     11.193  0.6926E+00  0.2640E+04
     11.240  0.9656E-02  0.2640E+04
     11.286 -0.1151E+00  0.2640E+04
     11.333 -0.5077E-01  0.2640E+04
     11.380 -0.1114E-01  0.2640E+04
     11.426 -0.4538E-02  0.2640E+04
     11.473 -0.1990E-01  0.2640E+04
     11.519 -0.6393E-01  0.2640E+04
     11.566 -0.5281E-01  0.2640E+04
     11.613  0.3045E+00  0.2640E+04
     11.659  0.1080E+01  0.2640E+04
     11.706  0.1540E+01  0.2640E+04
     11.752  0.1077E+01  0.2640E+04
     11.799  0.3023E+00  0.2640E+04
     11.846 -0.5325E-01  0.2640E+04
     11.892 -0.6376E-01  0.2640E+04
     11.939 -0.1969E-01  0.2640E+04
     11.985 -0.3177E-02  0.2640E+04
     12.032 -0.3009E-03  0.2640E+04
     12.079 -0.1746E-04  0.2640E+04
     12.125 -0.6333E-06  0.2640E+04
     12.172 -0.1452E-07  0.2640E+04
     12.218 -0.2120E-09  0.2640E+04
     12.265 -0.1978E-11  0.2640E+04
     12.312 -0.1191E-13  0.2640E+04
     12.358  0.0000E+00  0.2640E+04
     12.405  0.0000E+00  0.2640E+04
     12.451  0.0000E+00  0.2640E+04
     12.498  0.0000E+00  0.2640E+04
     12.544  0.0000E+00  0.2640E+04
     12.591  0.0000E+00  0.2640E+04
     12.638  0.0000E+00  0.2640E+04
     12.684  0.0000E+00  0.2640E+04
