 256 256   0   0
  0.1419206E+02  0.1537080E-08  0.1537218E-08  0.1537636E-08  0.5000000E-15
  1.000000000000000E-004
  CAR 
 Ir_Ru                                   
     12.68334860     -1.29518505  301      9.24213919      1.00000000
     -1.295  0.0000E+00  0.0000E+00
     -1.249  0.0000E+00  0.0000E+00
     -1.202  0.0000E+00  0.0000E+00
     -1.155  0.0000E+00  0.0000E+00
     -1.109 -0.2742E-28 -0.1278E-29
     -1.062 -0.4088E-25 -0.1906E-26
     -1.016 -0.3933E-22 -0.1834E-23
     -0.969 -0.2441E-19 -0.1139E-20
     -0.922 -0.9779E-17 -0.4568E-18
     -0.876 -0.2452E-14 -0.1147E-15
     -0.829 -0.4067E-12 -0.1907E-13
     -0.783 -0.4343E-10 -0.2043E-11
     -0.736 -0.2989E-08 -0.1413E-09
     -0.689 -0.1326E-06 -0.6322E-08
     -0.643 -0.3802E-05 -0.1835E-06
     -0.596 -0.7056E-04 -0.3471E-05
     -0.550 -0.8505E-03 -0.4310E-04
     -0.503 -0.6660E-02 -0.3534E-03
     -0.456 -0.3348E-01 -0.1913E-02
     -0.410 -0.1019E+00 -0.6661E-02
     -0.363 -0.1379E+00 -0.1309E-01
     -0.317  0.2223E+00 -0.2726E-02
     -0.270  0.1505E+01  0.6742E-01
     -0.223  0.3534E+01  0.2321E+00
     -0.177  0.5069E+01  0.4683E+00
     -0.130  0.5731E+01  0.7353E+00
     -0.084  0.7321E+01  0.1076E+01
     -0.037  0.1019E+02  0.1551E+01
      0.009  0.1102E+02  0.2065E+01
      0.056  0.9156E+01  0.2492E+01
      0.103  0.9376E+01  0.2928E+01
      0.149  0.1314E+02  0.3541E+01
      0.196  0.1591E+02  0.4282E+01
      0.242  0.1605E+02  0.5030E+01
      0.289  0.1673E+02  0.5809E+01
      0.336  0.1849E+02  0.6671E+01
      0.382  0.1834E+02  0.7526E+01
      0.429  0.1743E+02  0.8338E+01
      0.475  0.1978E+02  0.9259E+01
      0.522  0.2336E+02  0.1035E+02
      0.569  0.2406E+02  0.1147E+02
      0.615  0.2229E+02  0.1251E+02
      0.662  0.1875E+02  0.1338E+02
      0.708  0.1411E+02  0.1404E+02
      0.755  0.1115E+02  0.1456E+02
      0.802  0.1071E+02  0.1506E+02
      0.848  0.1114E+02  0.1558E+02
      0.895  0.1215E+02  0.1614E+02
      0.941  0.1463E+02  0.1682E+02
      0.988  0.1831E+02  0.1768E+02
      1.035  0.2284E+02  0.1874E+02
      1.081  0.2804E+02  0.2005E+02
      1.128  0.3124E+02  0.2150E+02
      1.174  0.2977E+02  0.2289E+02
      1.221  0.2593E+02  0.2410E+02
      1.268  0.2307E+02  0.2517E+02
      1.314  0.2096E+02  0.2615E+02
      1.361  0.2001E+02  0.2708E+02
      1.407  0.2160E+02  0.2809E+02
      1.454  0.2406E+02  0.2921E+02
      1.501  0.2564E+02  0.3041E+02
      1.547  0.2890E+02  0.3175E+02
      1.594  0.3502E+02  0.3338E+02
      1.640  0.3872E+02  0.3519E+02
      1.687  0.3788E+02  0.3695E+02
      1.733  0.3922E+02  0.3878E+02
      1.780  0.4543E+02  0.4090E+02
      1.827  0.4932E+02  0.4320E+02
      1.873  0.4785E+02  0.4543E+02
      1.920  0.4728E+02  0.4763E+02
      1.966  0.5085E+02  0.5000E+02
      2.013  0.5408E+02  0.5252E+02
      2.060  0.5544E+02  0.5510E+02
      2.106  0.6124E+02  0.5795E+02
      2.153  0.7436E+02  0.6142E+02
      2.199  0.8919E+02  0.6557E+02
      2.246  0.1029E+03  0.7037E+02
      2.293  0.1176E+03  0.7585E+02
      2.339  0.1309E+03  0.8195E+02
      2.386  0.1382E+03  0.8839E+02
      2.432  0.1431E+03  0.9506E+02
      2.479  0.1521E+03  0.1021E+03
      2.526  0.1609E+03  0.1096E+03
      2.572  0.1617E+03  0.1172E+03
      2.619  0.1613E+03  0.1247E+03
      2.665  0.1688E+03  0.1326E+03
      2.712  0.1784E+03  0.1409E+03
      2.759  0.1847E+03  0.1495E+03
      2.805  0.1975E+03  0.1587E+03
      2.852  0.2225E+03  0.1691E+03
      2.898  0.2473E+03  0.1806E+03
      2.945  0.2563E+03  0.1925E+03
      2.992  0.2499E+03  0.2042E+03
      3.038  0.2468E+03  0.2157E+03
      3.085  0.2619E+03  0.2279E+03
      3.131  0.2863E+03  0.2412E+03
      3.178  0.3011E+03  0.2552E+03
      3.225  0.3037E+03  0.2694E+03
      3.271  0.3049E+03  0.2836E+03
      3.318  0.3083E+03  0.2980E+03
      3.364  0.3110E+03  0.3125E+03
      3.411  0.3142E+03  0.3271E+03
      3.458  0.3213E+03  0.3421E+03
      3.504  0.3329E+03  0.3576E+03
      3.551  0.3438E+03  0.3736E+03
      3.597  0.3469E+03  0.3898E+03
      3.644  0.3449E+03  0.4058E+03
      3.690  0.3485E+03  0.4221E+03
      3.737  0.3574E+03  0.4387E+03
      3.784  0.3593E+03  0.4555E+03
      3.830  0.3524E+03  0.4719E+03
      3.877  0.3479E+03  0.4881E+03
      3.923  0.3497E+03  0.5044E+03
      3.970  0.3507E+03  0.5207E+03
      4.017  0.3417E+03  0.5367E+03
      4.063  0.3232E+03  0.5517E+03
      4.110  0.3070E+03  0.5660E+03
      4.156  0.2977E+03  0.5799E+03
      4.203  0.2877E+03  0.5933E+03
      4.250  0.2716E+03  0.6059E+03
      4.296  0.2540E+03  0.6178E+03
      4.343  0.2429E+03  0.6291E+03
      4.389  0.2451E+03  0.6405E+03
      4.436  0.2575E+03  0.6525E+03
      4.483  0.2619E+03  0.6647E+03
      4.529  0.2510E+03  0.6764E+03
      4.576  0.2476E+03  0.6880E+03
      4.622  0.2667E+03  0.7004E+03
      4.669  0.2914E+03  0.7140E+03
      4.716  0.3064E+03  0.7282E+03
      4.762  0.3134E+03  0.7428E+03
      4.809  0.3135E+03  0.7574E+03
      4.855  0.3051E+03  0.7717E+03
      4.902  0.2903E+03  0.7852E+03
      4.949  0.2786E+03  0.7982E+03
      4.995  0.2809E+03  0.8113E+03
      5.042  0.2948E+03  0.8250E+03
      5.088  0.3075E+03  0.8393E+03
      5.135  0.3093E+03  0.8537E+03
      5.182  0.2981E+03  0.8676E+03
      5.228  0.2859E+03  0.8809E+03
      5.275  0.2844E+03  0.8942E+03
      5.321  0.2902E+03  0.9077E+03
      5.368  0.2971E+03  0.9216E+03
      5.415  0.3018E+03  0.9356E+03
      5.461  0.2989E+03  0.9495E+03
      5.508  0.2890E+03  0.9630E+03
      5.554  0.2867E+03  0.9764E+03
      5.601  0.3023E+03  0.9905E+03
      5.647  0.3213E+03  0.1005E+04
      5.694  0.3253E+03  0.1021E+04
      5.741  0.3203E+03  0.1036E+04
      5.787  0.3199E+03  0.1050E+04
      5.834  0.3261E+03  0.1066E+04
      5.880  0.3365E+03  0.1081E+04
      5.927  0.3498E+03  0.1098E+04
      5.974  0.3649E+03  0.1115E+04
      6.020  0.3787E+03  0.1132E+04
      6.067  0.3854E+03  0.1150E+04
      6.113  0.3875E+03  0.1168E+04
      6.160  0.3916E+03  0.1186E+04
      6.207  0.3985E+03  0.1205E+04
      6.253  0.4093E+03  0.1224E+04
      6.300  0.4268E+03  0.1244E+04
      6.346  0.4461E+03  0.1265E+04
      6.393  0.4571E+03  0.1286E+04
      6.440  0.4571E+03  0.1307E+04
      6.486  0.4532E+03  0.1329E+04
      6.533  0.4501E+03  0.1349E+04
      6.579  0.4458E+03  0.1370E+04
      6.626  0.4393E+03  0.1391E+04
      6.673  0.4320E+03  0.1411E+04
      6.719  0.4249E+03  0.1431E+04
      6.766  0.4172E+03  0.1450E+04
      6.812  0.4020E+03  0.1469E+04
      6.859  0.3773E+03  0.1486E+04
      6.906  0.3547E+03  0.1503E+04
      6.952  0.3444E+03  0.1519E+04
      6.999  0.3394E+03  0.1535E+04
      7.045  0.3281E+03  0.1550E+04
      7.092  0.3150E+03  0.1565E+04
      7.139  0.3133E+03  0.1579E+04
      7.185  0.3192E+03  0.1594E+04
      7.232  0.3139E+03  0.1609E+04
      7.278  0.2884E+03  0.1622E+04
      7.325  0.2566E+03  0.1634E+04
      7.372  0.2402E+03  0.1645E+04
      7.418  0.2481E+03  0.1657E+04
      7.465  0.2707E+03  0.1670E+04
      7.511  0.2846E+03  0.1683E+04
      7.558  0.2769E+03  0.1696E+04
      7.604  0.2589E+03  0.1708E+04
      7.651  0.2483E+03  0.1719E+04
      7.698  0.2566E+03  0.1731E+04
      7.744  0.2821E+03  0.1745E+04
      7.791  0.3050E+03  0.1759E+04
      7.837  0.3120E+03  0.1773E+04
      7.884  0.3090E+03  0.1788E+04
      7.931  0.3033E+03  0.1802E+04
      7.977  0.2962E+03  0.1816E+04
      8.024  0.2910E+03  0.1829E+04
      8.070  0.2954E+03  0.1843E+04
      8.117  0.3089E+03  0.1857E+04
      8.164  0.3170E+03  0.1872E+04
      8.210  0.3175E+03  0.1887E+04
      8.257  0.3290E+03  0.1902E+04
      8.303  0.3531E+03  0.1919E+04
      8.350  0.3627E+03  0.1936E+04
      8.397  0.3410E+03  0.1951E+04
      8.443  0.3012E+03  0.1965E+04
      8.490  0.2677E+03  0.1978E+04
      8.536  0.2557E+03  0.1990E+04
      8.583  0.2702E+03  0.2002E+04
      8.630  0.2950E+03  0.2016E+04
      8.676  0.3005E+03  0.2030E+04
      8.723  0.2847E+03  0.2043E+04
      8.769  0.2680E+03  0.2056E+04
      8.816  0.2572E+03  0.2068E+04
      8.863  0.2492E+03  0.2080E+04
      8.909  0.2451E+03  0.2091E+04
      8.956  0.2452E+03  0.2102E+04
      9.002  0.2529E+03  0.2114E+04
      9.049  0.2728E+03  0.2127E+04
      9.096  0.2842E+03  0.2140E+04
      9.142  0.2669E+03  0.2153E+04
      9.189  0.2414E+03  0.2164E+04
      9.235  0.2285E+03  0.2174E+04
      9.282  0.2202E+03  0.2185E+04
      9.329  0.2139E+03  0.2195E+04
      9.375  0.2213E+03  0.2205E+04
      9.422  0.2417E+03  0.2216E+04
      9.468  0.2618E+03  0.2228E+04
      9.515  0.2733E+03  0.2241E+04
      9.561  0.2772E+03  0.2254E+04
      9.608  0.2763E+03  0.2267E+04
      9.655  0.2712E+03  0.2280E+04
      9.701  0.2615E+03  0.2292E+04
      9.748  0.2446E+03  0.2303E+04
      9.794  0.2248E+03  0.2314E+04
      9.841  0.2192E+03  0.2324E+04
      9.888  0.2357E+03  0.2335E+04
      9.934  0.2631E+03  0.2347E+04
      9.981  0.2940E+03  0.2361E+04
     10.027  0.3264E+03  0.2376E+04
     10.074  0.3489E+03  0.2392E+04
     10.121  0.3470E+03  0.2408E+04
     10.167  0.3248E+03  0.2424E+04
     10.214  0.3101E+03  0.2438E+04
     10.260  0.3277E+03  0.2453E+04
     10.307  0.3845E+03  0.2471E+04
     10.354  0.4639E+03  0.2493E+04
     10.400  0.5179E+03  0.2517E+04
     10.447  0.5106E+03  0.2541E+04
     10.493  0.4530E+03  0.2562E+04
     10.540  0.3766E+03  0.2579E+04
     10.587  0.3043E+03  0.2594E+04
     10.633  0.2496E+03  0.2605E+04
     10.680  0.2135E+03  0.2615E+04
     10.726  0.1823E+03  0.2624E+04
     10.773  0.1437E+03  0.2630E+04
     10.820  0.9878E+02  0.2635E+04
     10.866  0.5718E+02  0.2638E+04
     10.913  0.2737E+02  0.2639E+04
     10.959  0.1055E+02  0.2639E+04
     11.006  0.3393E+01  0.2640E+04
     11.053  0.1810E+01  0.2640E+04
     11.099  0.2117E+01  0.2640E+04
     11.146  0.1852E+01  0.2640E+04
     11.192  0.7933E+00  0.2640E+04
     11.239  0.2107E-01  0.2640E+04
     11.285 -0.1288E+00  0.2640E+04
     11.332 -0.5814E-01  0.2640E+04
     11.379 -0.1272E-01  0.2640E+04
     11.425 -0.3593E-02  0.2640E+04
     11.472 -0.1289E-01  0.2640E+04
     11.518 -0.4195E-01  0.2640E+04
     11.565 -0.3699E-01  0.2640E+04
     11.612  0.1942E+00  0.2640E+04
     11.658  0.7089E+00  0.2640E+04
     11.705  0.1026E+01  0.2640E+04
     11.751  0.7296E+00  0.2640E+04
     11.798  0.2104E+00  0.2640E+04
     11.845 -0.3372E-01  0.2640E+04
     11.891 -0.4320E-01  0.2640E+04
     11.938 -0.1356E-01  0.2640E+04
     11.984 -0.2214E-02  0.2640E+04
     12.031 -0.2119E-03  0.2640E+04
     12.078 -0.1242E-04  0.2640E+04
     12.124 -0.4547E-06  0.2640E+04
     12.171 -0.1052E-07  0.2640E+04
     12.217 -0.1550E-09  0.2640E+04
     12.264 -0.1459E-11  0.2640E+04
     12.311 -0.8637E-14  0.2640E+04
     12.357  0.0000E+00  0.2640E+04
     12.404  0.0000E+00  0.2640E+04
     12.450  0.0000E+00  0.2640E+04
     12.497  0.0000E+00  0.2640E+04
     12.544  0.0000E+00  0.2640E+04
     12.590  0.0000E+00  0.2640E+04
     12.637  0.0000E+00  0.2640E+04
     12.683  0.0000E+00  0.2640E+04
