       N       E                     dE             d eps       ncg     rms          rms(c)
RMM:   1     0.136791334860E+05    0.13679E+05   -0.47218E+05 25080   0.725E+02
RMM:   2     0.131342032804E+04   -0.12366E+05   -0.13120E+05 25080   0.260E+02
RMM:   3    -0.104565177130E+04   -0.23591E+04   -0.22855E+04 25080   0.111E+02
RMM:   4    -0.184599516254E+04   -0.80034E+03   -0.57407E+03 25080   0.768E+01
RMM:   5    -0.212910517535E+04   -0.28311E+03   -0.24896E+03 25080   0.451E+01
RMM:   6    -0.227482450240E+04   -0.14572E+03   -0.12952E+03 25080   0.349E+01
RMM:   7    -0.235268789472E+04   -0.77863E+02   -0.73853E+02 25080   0.235E+01
RMM:   8    -0.240018476041E+04   -0.47497E+02   -0.44556E+02 25080   0.195E+01
RMM:   9    -0.247907833617E+04   -0.78894E+02   -0.77973E+02 71850   0.137E+01
RMM:  10    -0.248863268525E+04   -0.95543E+01   -0.11979E+02 79673   0.283E+00
RMM:  11    -0.249086925314E+04   -0.22366E+01   -0.17812E+01 77259   0.686E-01
RMM:  12    -0.249117635046E+04   -0.30710E+00   -0.19894E+00 79568   0.198E-01    0.782E+01
RMM:  13    -0.241359259157E+04    0.77584E+02   -0.68472E+02 57182   0.246E+01    0.583E+01
RMM:  14    -0.236778914241E+04    0.45803E+02   -0.34131E+02 51433   0.174E+01    0.416E+01
RMM:  15    -0.233560389795E+04    0.32185E+02   -0.11834E+02 53317   0.101E+01    0.255E+01
RMM:  16    -0.232135237347E+04    0.14252E+02   -0.25825E+01 56052   0.434E+00    0.455E+00
RMM:  17    -0.232158028509E+04   -0.22791E+00   -0.64814E+00 73995   0.128E+00    0.464E+00
RMM:  18    -0.232114077845E+04    0.43951E+00   -0.11737E+00 64840   0.706E-01    0.341E+00
RMM:  19    -0.232075304495E+04    0.38773E+00   -0.68906E-01 59371   0.789E-01    0.169E+00
RMM:  20    -0.232070890685E+04    0.44138E-01   -0.25157E-01 65119   0.339E-01    0.167E+00
RMM:  21    -0.232065988634E+04    0.49021E-01   -0.11995E-01 62490   0.250E-01    0.122E+00
RMM:  22    -0.232063518901E+04    0.24697E-01   -0.51985E-02 61223   0.166E-01    0.738E-01
RMM:  23    -0.232062880769E+04    0.63813E-02   -0.14629E-02 66775   0.732E-02    0.475E-01
RMM:  24    -0.232062568179E+04    0.31259E-02   -0.10101E-02 62321   0.742E-02    0.256E-01
RMM:  25    -0.232062625511E+04   -0.57333E-03   -0.10904E-02 67183   0.695E-02    0.246E-01
RMM:  26    -0.232062659771E+04   -0.34260E-03   -0.39191E-03 71609   0.362E-02    0.259E-01
RMM:  27    -0.232062579684E+04    0.80087E-03   -0.65363E-04 60338   0.192E-02    0.180E-01
RMM:  28    -0.232062524379E+04    0.55305E-03   -0.78330E-04 62711   0.208E-02    0.898E-02
RMM:  29    -0.232062508473E+04    0.15907E-03   -0.66250E-04 68300   0.175E-02    0.283E-02
RMM:  30    -0.232062506876E+04    0.15971E-04   -0.13705E-04 72306   0.646E-03
   1 F= -.23206251E+04 E0= -.23206251E+04  d E =-.533145E-05
