 256 256   0   0
  0.1418917E+02  0.1588033E-08  0.1692661E-08  0.1693229E-08  0.5000000E-15
  1.000000000000000E-004
  CAR 
 Ir_Ru                                   
     14.27894087     -1.29186110  301      9.45710737      1.00000000
     -1.292  0.0000E+00  0.0000E+00
     -1.240  0.0000E+00  0.0000E+00
     -1.188  0.0000E+00  0.0000E+00
     -1.136 -0.2810E-30 -0.1458E-31
     -1.084 -0.1289E-26 -0.6692E-28
     -1.032 -0.3437E-23 -0.1784E-24
     -0.980 -0.5319E-20 -0.2762E-21
     -0.929 -0.4775E-17 -0.2481E-18
     -0.877 -0.2425E-14 -0.1261E-15
     -0.825 -0.7226E-12 -0.3763E-13
     -0.773 -0.1248E-09 -0.6514E-11
     -0.721 -0.1239E-07 -0.6498E-09
     -0.669 -0.7051E-06 -0.3725E-07
     -0.617 -0.2285E-04 -0.1223E-05
     -0.565 -0.4187E-03 -0.2295E-04
     -0.513 -0.4296E-02 -0.2459E-03
     -0.461 -0.2442E-01 -0.1513E-02
     -0.410 -0.7540E-01 -0.5427E-02
     -0.358 -0.1017E+00 -0.1071E-01
     -0.306  0.2088E+00  0.1322E-03
     -0.254  0.1650E+01  0.8575E-01
     -0.202  0.4412E+01  0.3147E+00
     -0.150  0.6359E+01  0.6448E+00
     -0.098  0.6422E+01  0.9781E+00
     -0.046  0.6970E+01  0.1340E+01
      0.006  0.8871E+01  0.1800E+01
      0.058  0.1119E+02  0.2381E+01
      0.110  0.1362E+02  0.3088E+01
      0.161  0.1434E+02  0.3833E+01
      0.213  0.1168E+02  0.4439E+01
      0.265  0.1007E+02  0.4962E+01
      0.317  0.1431E+02  0.5705E+01
      0.369  0.2038E+02  0.6762E+01
      0.421  0.2253E+02  0.7932E+01
      0.473  0.2273E+02  0.9111E+01
      0.525  0.2352E+02  0.1033E+02
      0.577  0.2250E+02  0.1150E+02
      0.629  0.2044E+02  0.1256E+02
      0.680  0.2102E+02  0.1365E+02
      0.732  0.2034E+02  0.1471E+02
      0.784  0.1451E+02  0.1546E+02
      0.836  0.8807E+01  0.1592E+02
      0.888  0.7987E+01  0.1633E+02
      0.940  0.1171E+02  0.1694E+02
      0.992  0.1898E+02  0.1793E+02
      1.044  0.2792E+02  0.1937E+02
      1.096  0.3336E+02  0.2111E+02
      1.148  0.3305E+02  0.2282E+02
      1.199  0.2880E+02  0.2432E+02
      1.251  0.2281E+02  0.2550E+02
      1.303  0.1947E+02  0.2651E+02
      1.355  0.2174E+02  0.2764E+02
      1.407  0.2724E+02  0.2905E+02
      1.459  0.3035E+02  0.3063E+02
      1.511  0.2981E+02  0.3218E+02
      1.563  0.2935E+02  0.3370E+02
      1.615  0.3044E+02  0.3528E+02
      1.667  0.3113E+02  0.3689E+02
      1.718  0.3205E+02  0.3856E+02
      1.770  0.3506E+02  0.4038E+02
      1.822  0.3916E+02  0.4241E+02
      1.874  0.4557E+02  0.4478E+02
      1.926  0.5473E+02  0.4762E+02
      1.978  0.5935E+02  0.5070E+02
      2.030  0.5471E+02  0.5354E+02
      2.082  0.5058E+02  0.5616E+02
      2.134  0.6190E+02  0.5937E+02
      2.186  0.8724E+02  0.6390E+02
      2.238  0.1089E+03  0.6955E+02
      2.289  0.1196E+03  0.7576E+02
      2.341  0.1256E+03  0.8228E+02
      2.393  0.1314E+03  0.8910E+02
      2.445  0.1375E+03  0.9624E+02
      2.497  0.1473E+03  0.1039E+03
      2.549  0.1646E+03  0.1124E+03
      2.601  0.1831E+03  0.1219E+03
      2.653  0.1950E+03  0.1321E+03
      2.705  0.2071E+03  0.1428E+03
      2.757  0.2240E+03  0.1544E+03
      2.808  0.2307E+03  0.1664E+03
      2.860  0.2242E+03  0.1780E+03
      2.912  0.2277E+03  0.1899E+03
      2.964  0.2455E+03  0.2026E+03
      3.016  0.2582E+03  0.2160E+03
      3.068  0.2601E+03  0.2295E+03
      3.120  0.2604E+03  0.2430E+03
      3.172  0.2638E+03  0.2567E+03
      3.224  0.2729E+03  0.2709E+03
      3.276  0.2882E+03  0.2858E+03
      3.327  0.3078E+03  0.3018E+03
      3.379  0.3247E+03  0.3187E+03
      3.431  0.3307E+03  0.3358E+03
      3.483  0.3277E+03  0.3528E+03
      3.535  0.3214E+03  0.3695E+03
      3.587  0.3183E+03  0.3860E+03
      3.639  0.3165E+03  0.4025E+03
      3.691  0.3109E+03  0.4186E+03
      3.743  0.3050E+03  0.4344E+03
      3.795  0.3010E+03  0.4501E+03
      3.847  0.2967E+03  0.4655E+03
      3.898  0.2933E+03  0.4807E+03
      3.950  0.2886E+03  0.4957E+03
      4.002  0.2761E+03  0.5100E+03
      4.054  0.2665E+03  0.5238E+03
      4.106  0.2758E+03  0.5381E+03
      4.158  0.2943E+03  0.5534E+03
      4.210  0.3028E+03  0.5691E+03
      4.262  0.3052E+03  0.5850E+03
      4.314  0.3123E+03  0.6012E+03
      4.366  0.3188E+03  0.6177E+03
      4.417  0.3213E+03  0.6344E+03
      4.469  0.3238E+03  0.6512E+03
      4.521  0.3212E+03  0.6679E+03
      4.573  0.3095E+03  0.6839E+03
      4.625  0.2970E+03  0.6994E+03
      4.677  0.2933E+03  0.7146E+03
      4.729  0.2982E+03  0.7301E+03
      4.781  0.3059E+03  0.7459E+03
      4.833  0.3181E+03  0.7624E+03
      4.885  0.3316E+03  0.7797E+03
      4.936  0.3377E+03  0.7972E+03
      4.988  0.3451E+03  0.8151E+03
      5.040  0.3583E+03  0.8337E+03
      5.092  0.3657E+03  0.8527E+03
      5.144  0.3640E+03  0.8716E+03
      5.196  0.3545E+03  0.8900E+03
      5.248  0.3339E+03  0.9073E+03
      5.300  0.3016E+03  0.9229E+03
      5.352  0.2605E+03  0.9365E+03
      5.404  0.2173E+03  0.9477E+03
      5.455  0.1838E+03  0.9573E+03
      5.507  0.1726E+03  0.9662E+03
      5.559  0.1900E+03  0.9761E+03
      5.611  0.2287E+03  0.9880E+03
      5.663  0.2771E+03  0.1002E+04
      5.715  0.3270E+03  0.1019E+04
      5.767  0.3686E+03  0.1038E+04
      5.819  0.3957E+03  0.1059E+04
      5.871  0.4107E+03  0.1080E+04
      5.923  0.4196E+03  0.1102E+04
      5.975  0.4261E+03  0.1124E+04
      6.026  0.4282E+03  0.1146E+04
      6.078  0.4157E+03  0.1168E+04
      6.130  0.3912E+03  0.1188E+04
      6.182  0.3714E+03  0.1208E+04
      6.234  0.3610E+03  0.1226E+04
      6.286  0.3555E+03  0.1245E+04
      6.338  0.3569E+03  0.1263E+04
      6.390  0.3698E+03  0.1283E+04
      6.442  0.3821E+03  0.1302E+04
      6.494  0.3841E+03  0.1322E+04
      6.545  0.3918E+03  0.1343E+04
      6.597  0.4102E+03  0.1364E+04
      6.649  0.4241E+03  0.1386E+04
      6.701  0.4281E+03  0.1408E+04
      6.753  0.4250E+03  0.1430E+04
      6.805  0.4127E+03  0.1452E+04
      6.857  0.3914E+03  0.1472E+04
      6.909  0.3731E+03  0.1491E+04
      6.961  0.3665E+03  0.1510E+04
      7.013  0.3637E+03  0.1529E+04
      7.064  0.3684E+03  0.1548E+04
      7.116  0.3920E+03  0.1569E+04
      7.168  0.4154E+03  0.1590E+04
      7.220  0.4225E+03  0.1612E+04
      7.272  0.4224E+03  0.1634E+04
      7.324  0.4128E+03  0.1655E+04
      7.376  0.3868E+03  0.1676E+04
      7.428  0.3579E+03  0.1694E+04
      7.480  0.3399E+03  0.1712E+04
      7.532  0.3325E+03  0.1729E+04
      7.583  0.3285E+03  0.1746E+04
      7.635  0.3164E+03  0.1763E+04
      7.687  0.2949E+03  0.1778E+04
      7.739  0.2770E+03  0.1792E+04
      7.791  0.2685E+03  0.1806E+04
      7.843  0.2634E+03  0.1820E+04
      7.895  0.2572E+03  0.1833E+04
      7.947  0.2480E+03  0.1846E+04
      7.999  0.2427E+03  0.1859E+04
      8.051  0.2432E+03  0.1871E+04
      8.103  0.2390E+03  0.1884E+04
      8.154  0.2312E+03  0.1896E+04
      8.206  0.2291E+03  0.1908E+04
      8.258  0.2335E+03  0.1920E+04
      8.310  0.2378E+03  0.1932E+04
      8.362  0.2391E+03  0.1944E+04
      8.414  0.2368E+03  0.1957E+04
      8.466  0.2286E+03  0.1969E+04
      8.518  0.2181E+03  0.1980E+04
      8.570  0.2117E+03  0.1991E+04
      8.622  0.2067E+03  0.2002E+04
      8.673  0.1995E+03  0.2012E+04
      8.725  0.1912E+03  0.2022E+04
      8.777  0.1830E+03  0.2031E+04
      8.829  0.1795E+03  0.2041E+04
      8.881  0.1888E+03  0.2051E+04
      8.933  0.2140E+03  0.2062E+04
      8.985  0.2358E+03  0.2074E+04
      9.037  0.2361E+03  0.2086E+04
      9.089  0.2230E+03  0.2098E+04
      9.141  0.2057E+03  0.2108E+04
      9.192  0.1863E+03  0.2118E+04
      9.244  0.1791E+03  0.2127E+04
      9.296  0.1986E+03  0.2138E+04
      9.348  0.2293E+03  0.2150E+04
      9.400  0.2431E+03  0.2162E+04
      9.452  0.2429E+03  0.2175E+04
      9.504  0.2450E+03  0.2187E+04
      9.556  0.2444E+03  0.2200E+04
      9.608  0.2469E+03  0.2213E+04
      9.660  0.2763E+03  0.2227E+04
      9.712  0.3190E+03  0.2244E+04
      9.763  0.3355E+03  0.2261E+04
      9.815  0.3257E+03  0.2278E+04
      9.867  0.3163E+03  0.2295E+04
      9.919  0.3153E+03  0.2311E+04
      9.971  0.3222E+03  0.2328E+04
     10.023  0.3445E+03  0.2346E+04
     10.075  0.3817E+03  0.2365E+04
     10.127  0.4141E+03  0.2387E+04
     10.179  0.4288E+03  0.2409E+04
     10.231  0.4365E+03  0.2432E+04
     10.282  0.4495E+03  0.2455E+04
     10.334  0.4684E+03  0.2479E+04
     10.386  0.4871E+03  0.2505E+04
     10.438  0.4976E+03  0.2531E+04
     10.490  0.4890E+03  0.2556E+04
     10.542  0.4500E+03  0.2579E+04
     10.594  0.3887E+03  0.2599E+04
     10.646  0.3189E+03  0.2616E+04
     10.698  0.2342E+03  0.2628E+04
     10.750  0.1332E+03  0.2635E+04
     10.801  0.4593E+02  0.2637E+04
     10.853  0.2114E+01  0.2638E+04
     10.905 -0.5617E+01  0.2637E+04
     10.957 -0.2522E+01  0.2637E+04
     11.009 -0.5413E+00  0.2637E+04
     11.061 -0.7119E-01  0.2637E+04
     11.113 -0.6454E-02  0.2637E+04
     11.165 -0.4142E-03  0.2637E+04
     11.217 -0.1775E-04  0.2637E+04
     11.269 -0.4731E-06  0.2637E+04
     11.320 -0.7510E-08  0.2637E+04
     11.372 -0.6964E-10  0.2637E+04
     11.424 -0.2966E-11  0.2637E+04
     11.476 -0.4256E-09  0.2637E+04
     11.528 -0.4032E-07  0.2637E+04
     11.580 -0.2197E-05  0.2637E+04
     11.632 -0.6848E-04  0.2637E+04
     11.684 -0.1208E-02  0.2637E+04
     11.736 -0.1175E-01  0.2637E+04
     11.788 -0.5863E-01  0.2637E+04
     11.840 -0.1079E+00  0.2637E+04
     11.891  0.2136E+00  0.2637E+04
     11.943  0.1341E+01  0.2637E+04
     11.995  0.2462E+01  0.2637E+04
     12.047  0.2281E+01  0.2637E+04
     12.099  0.1369E+01  0.2637E+04
     12.151  0.6862E+00  0.2638E+04
     12.203  0.4528E+00  0.2638E+04
     12.255  0.1293E+01  0.2638E+04
     12.307  0.3076E+01  0.2638E+04
     12.359  0.4047E+01  0.2638E+04
     12.410  0.3307E+01  0.2638E+04
     12.462  0.2211E+01  0.2638E+04
     12.514  0.1831E+01  0.2638E+04
     12.566  0.2134E+01  0.2638E+04
     12.618  0.2751E+01  0.2639E+04
     12.670  0.3619E+01  0.2639E+04
     12.722  0.4231E+01  0.2639E+04
     12.774  0.3409E+01  0.2639E+04
     12.826  0.2222E+01  0.2639E+04
     12.878  0.2209E+01  0.2639E+04
     12.929  0.2330E+01  0.2640E+04
     12.981  0.1719E+01  0.2640E+04
     13.033  0.1129E+01  0.2640E+04
     13.085  0.9167E+00  0.2640E+04
     13.137  0.8808E+00  0.2640E+04
     13.189  0.9617E+00  0.2640E+04
     13.241  0.1021E+01  0.2640E+04
     13.293  0.9940E+00  0.2640E+04
     13.345  0.6565E+00  0.2640E+04
     13.397  0.1682E+00  0.2640E+04
     13.448 -0.4007E-01  0.2640E+04
     13.500 -0.3255E-01  0.2640E+04
     13.552 -0.7261E-02  0.2640E+04
     13.604 -0.7751E-03  0.2640E+04
     13.656 -0.4402E-04  0.2640E+04
     13.708 -0.1384E-05  0.2640E+04
     13.760 -0.2455E-07  0.2640E+04
     13.812 -0.2483E-09  0.2640E+04
     13.864 -0.1441E-11  0.2640E+04
     13.916 -0.4753E-14  0.2640E+04
     13.968  0.0000E+00  0.2640E+04
     14.019  0.0000E+00  0.2640E+04
     14.071  0.0000E+00  0.2640E+04
     14.123  0.0000E+00  0.2640E+04
     14.175  0.0000E+00  0.2640E+04
     14.227  0.0000E+00  0.2640E+04
     14.279  0.0000E+00  0.2640E+04
