  32  32   0   0
  0.1444564E+02  0.6695321E-09  0.6695321E-09  0.1093792E-08  0.5000000E-15
  1.000000000000000E-004
  CAR 
 Ir_Ru                                   
     18.27674728     -1.71194102  301      9.75409855      1.00000000
     -1.712  0.0000E+00  0.0000E+00
     -1.645  0.0000E+00  0.0000E+00
     -1.579  0.0000E+00  0.0000E+00
     -1.512  0.0000E+00  0.0000E+00
     -1.445  0.0000E+00  0.0000E+00
     -1.379  0.0000E+00  0.0000E+00
     -1.312  0.0000E+00  0.0000E+00
     -1.246  0.0000E+00  0.0000E+00
     -1.179  0.0000E+00  0.0000E+00
     -1.112  0.0000E+00  0.0000E+00
     -1.046  0.0000E+00  0.0000E+00
     -0.979  0.0000E+00  0.0000E+00
     -0.912  0.0000E+00  0.0000E+00
     -0.846  0.0000E+00  0.0000E+00
     -0.779  0.0000E+00  0.0000E+00
     -0.713  0.0000E+00  0.0000E+00
     -0.646  0.2858E+00  0.6293E-02
     -0.579  0.6458E+00  0.4098E-01
     -0.513  0.7787E+00  0.8717E-01
     -0.446  0.1051E+01  0.1466E+00
     -0.379  0.1421E+01  0.2306E+00
     -0.313  0.1274E+01  0.3166E+00
     -0.246  0.1312E+01  0.4028E+00
     -0.179  0.1338E+01  0.4912E+00
     -0.113  0.1327E+01  0.5797E+00
     -0.046  0.1359E+01  0.6692E+00
      0.020  0.1637E+01  0.7661E+00
      0.087  0.1760E+01  0.8831E+00
      0.154  0.1902E+01  0.1005E+01
      0.220  0.2039E+01  0.1136E+01
      0.287  0.2197E+01  0.1277E+01
      0.354  0.2487E+01  0.1433E+01
      0.420  0.2713E+01  0.1608E+01
      0.487  0.2626E+01  0.1785E+01
      0.553  0.2607E+01  0.1960E+01
      0.620  0.2535E+01  0.2131E+01
      0.687  0.2487E+01  0.2297E+01
      0.753  0.2677E+01  0.2469E+01
      0.820  0.2926E+01  0.2655E+01
      0.887  0.3224E+01  0.2863E+01
      0.953  0.3533E+01  0.3086E+01
      1.020  0.3542E+01  0.3328E+01
      1.086  0.3368E+01  0.3560E+01
      1.153  0.3501E+01  0.3787E+01
      1.220  0.3467E+01  0.4030E+01
      1.286  0.3386E+01  0.4258E+01
      1.353  0.3661E+01  0.4491E+01
      1.420  0.4171E+01  0.4757E+01
      1.486  0.4208E+01  0.5035E+01
      1.553  0.5167E+01  0.5358E+01
      1.620  0.5349E+01  0.5709E+01
      1.686  0.5226E+01  0.6064E+01
      1.753  0.6089E+01  0.6448E+01
      1.819  0.6108E+01  0.6860E+01
      1.886  0.6245E+01  0.7276E+01
      1.953  0.6093E+01  0.7683E+01
      2.019  0.7372E+01  0.8119E+01
      2.086  0.8515E+01  0.8659E+01
      2.153  0.1331E+02  0.9398E+01
      2.219  0.1753E+02  0.1045E+02
      2.286  0.1619E+02  0.1156E+02
      2.352  0.1539E+02  0.1262E+02
      2.419  0.1793E+02  0.1369E+02
      2.486  0.2263E+02  0.1507E+02
      2.552  0.2299E+02  0.1656E+02
      2.619  0.2053E+02  0.1804E+02
      2.686  0.2109E+02  0.1941E+02
      2.752  0.2710E+02  0.2103E+02
      2.819  0.3284E+02  0.2310E+02
      2.885  0.2872E+02  0.2512E+02
      2.952  0.3151E+02  0.2720E+02
      3.019  0.3063E+02  0.2929E+02
      3.085  0.3533E+02  0.3158E+02
      3.152  0.3536E+02  0.3390E+02
      3.219  0.4218E+02  0.3662E+02
      3.285  0.3897E+02  0.3933E+02
      3.352  0.4236E+02  0.4214E+02
      3.418  0.4429E+02  0.4500E+02
      3.485  0.4107E+02  0.4776E+02
      3.552  0.4727E+02  0.5060E+02
      3.618  0.4607E+02  0.5349E+02
      3.685  0.4096E+02  0.5631E+02
      3.752  0.3231E+02  0.5893E+02
      3.818  0.3028E+02  0.6099E+02
      3.885  0.3710E+02  0.6322E+02
      3.952  0.3703E+02  0.6571E+02
      4.018  0.3700E+02  0.6819E+02
      4.085  0.3806E+02  0.7082E+02
      4.151  0.3230E+02  0.7314E+02
      4.218  0.3039E+02  0.7535E+02
      4.285  0.2721E+02  0.7729E+02
      4.351  0.2511E+02  0.7907E+02
      4.418  0.2619E+02  0.8081E+02
      4.485  0.2903E+02  0.8267E+02
      4.551  0.3103E+02  0.8468E+02
      4.618  0.3284E+02  0.8674E+02
      4.684  0.3855E+02  0.8916E+02
      4.751  0.3483E+02  0.9161E+02
      4.818  0.3612E+02  0.9394E+02
      4.884  0.3640E+02  0.9639E+02
      4.951  0.3670E+02  0.9883E+02
      5.018  0.3929E+02  0.1014E+03
      5.084  0.3650E+02  0.1039E+03
      5.151  0.3815E+02  0.1065E+03
      5.217  0.3149E+02  0.1088E+03
      5.284  0.4291E+02  0.1112E+03
      5.351  0.2821E+02  0.1135E+03
      5.417  0.3975E+02  0.1161E+03
      5.484  0.4105E+02  0.1186E+03
      5.551  0.3825E+02  0.1213E+03
      5.617  0.4404E+02  0.1240E+03
      5.684  0.4152E+02  0.1267E+03
      5.751  0.4588E+02  0.1296E+03
      5.817  0.4381E+02  0.1326E+03
      5.884  0.4358E+02  0.1355E+03
      5.950  0.4343E+02  0.1384E+03
      6.017  0.4193E+02  0.1413E+03
      6.084  0.4495E+02  0.1442E+03
      6.150  0.4583E+02  0.1472E+03
      6.217  0.4750E+02  0.1504E+03
      6.284  0.5752E+02  0.1538E+03
      6.350  0.5533E+02  0.1576E+03
      6.417  0.5491E+02  0.1612E+03
      6.483  0.5175E+02  0.1648E+03
      6.550  0.5919E+02  0.1685E+03
      6.617  0.6574E+02  0.1727E+03
      6.683  0.6301E+02  0.1772E+03
      6.750  0.5853E+02  0.1810E+03
      6.817  0.4535E+02  0.1845E+03
      6.883  0.3776E+02  0.1872E+03
      6.950  0.3849E+02  0.1898E+03
      7.016  0.3741E+02  0.1924E+03
      7.083  0.3820E+02  0.1949E+03
      7.150  0.3597E+02  0.1974E+03
      7.216  0.3418E+02  0.1997E+03
      7.283  0.3066E+02  0.2018E+03
      7.350  0.3301E+02  0.2039E+03
      7.416  0.3631E+02  0.2062E+03
      7.483  0.3457E+02  0.2085E+03
      7.549  0.2934E+02  0.2107E+03
      7.616  0.3048E+02  0.2126E+03
      7.683  0.2895E+02  0.2146E+03
      7.749  0.3220E+02  0.2166E+03
      7.816  0.3369E+02  0.2188E+03
      7.883  0.3675E+02  0.2211E+03
      7.949  0.3546E+02  0.2236E+03
      8.016  0.3637E+02  0.2259E+03
      8.083  0.3934E+02  0.2285E+03
      8.149  0.4257E+02  0.2313E+03
      8.216  0.4090E+02  0.2342E+03
      8.282  0.3867E+02  0.2368E+03
      8.349  0.3585E+02  0.2394E+03
      8.416  0.3348E+02  0.2416E+03
      8.482  0.3322E+02  0.2438E+03
      8.549  0.3520E+02  0.2461E+03
      8.616  0.3612E+02  0.2485E+03
      8.682  0.3371E+02  0.2508E+03
      8.749  0.3721E+02  0.2532E+03
      8.815  0.3426E+02  0.2556E+03
      8.882  0.3199E+02  0.2578E+03
      8.949  0.3345E+02  0.2600E+03
      9.015  0.2963E+02  0.2622E+03
      9.082  0.2795E+02  0.2641E+03
      9.149  0.2516E+02  0.2658E+03
      9.215  0.2904E+02  0.2677E+03
      9.282  0.3121E+02  0.2696E+03
      9.348  0.2877E+02  0.2717E+03
      9.415  0.2772E+02  0.2736E+03
      9.482  0.2726E+02  0.2754E+03
      9.548  0.2994E+02  0.2773E+03
      9.615  0.3276E+02  0.2794E+03
      9.682  0.3484E+02  0.2817E+03
      9.748  0.3001E+02  0.2838E+03
      9.815  0.2758E+02  0.2857E+03
      9.881  0.2656E+02  0.2876E+03
      9.948  0.2924E+02  0.2894E+03
     10.015  0.3166E+02  0.2915E+03
     10.081  0.3210E+02  0.2936E+03
     10.148  0.3265E+02  0.2959E+03
     10.215  0.3752E+02  0.2981E+03
     10.281  0.4028E+02  0.3008E+03
     10.348  0.4519E+02  0.3037E+03
     10.415  0.4663E+02  0.3067E+03
     10.481  0.5160E+02  0.3100E+03
     10.548  0.5314E+02  0.3136E+03
     10.614  0.5406E+02  0.3172E+03
     10.681  0.5272E+02  0.3208E+03
     10.748  0.4570E+02  0.3243E+03
     10.814  0.4248E+02  0.3274E+03
     10.881  0.3824E+02  0.3300E+03
     10.948  0.3343E+02  0.3323E+03
     11.014  0.2960E+02  0.3344E+03
     11.081  0.2581E+02  0.3362E+03
     11.147  0.2083E+02  0.3377E+03
     11.214  0.1855E+02  0.3391E+03
     11.281  0.1337E+02  0.3401E+03
     11.347  0.1027E+02  0.3408E+03
     11.414  0.9126E+01  0.3415E+03
     11.481  0.8444E+01  0.3421E+03
     11.547  0.7989E+01  0.3426E+03
     11.614  0.7798E+01  0.3431E+03
     11.680  0.8107E+01  0.3437E+03
     11.747  0.8366E+01  0.3442E+03
     11.814  0.9499E+01  0.3448E+03
     11.880  0.9684E+01  0.3455E+03
     11.947  0.9228E+01  0.3461E+03
     12.014  0.9506E+01  0.3467E+03
     12.080  0.9194E+01  0.3473E+03
     12.147  0.8923E+01  0.3479E+03
     12.214  0.8444E+01  0.3485E+03
     12.280  0.7413E+01  0.3491E+03
     12.347  0.7032E+01  0.3495E+03
     12.413  0.6582E+01  0.3500E+03
     12.480  0.6724E+01  0.3504E+03
     12.547  0.6414E+01  0.3509E+03
     12.613  0.7137E+01  0.3513E+03
     12.680  0.7178E+01  0.3518E+03
     12.747  0.6372E+01  0.3523E+03
     12.813  0.5613E+01  0.3527E+03
     12.880  0.5285E+01  0.3530E+03
     12.946  0.4836E+01  0.3534E+03
     13.013  0.4945E+01  0.3537E+03
     13.080  0.5800E+01  0.3540E+03
     13.146  0.5785E+01  0.3544E+03
     13.213  0.5689E+01  0.3548E+03
     13.280  0.5095E+01  0.3552E+03
     13.346  0.5277E+01  0.3555E+03
     13.413  0.4916E+01  0.3559E+03
     13.479  0.4563E+01  0.3562E+03
     13.546  0.4341E+01  0.3565E+03
     13.613  0.4054E+01  0.3568E+03
     13.679  0.3679E+01  0.3570E+03
     13.746  0.3192E+01  0.3572E+03
     13.813  0.2929E+01  0.3574E+03
     13.879  0.2779E+01  0.3576E+03
     13.946  0.2571E+01  0.3578E+03
     14.012  0.2365E+01  0.3580E+03
     14.079  0.2154E+01  0.3581E+03
     14.146  0.1963E+01  0.3583E+03
     14.212  0.1801E+01  0.3584E+03
     14.279  0.1673E+01  0.3585E+03
     14.346  0.1540E+01  0.3586E+03
     14.412  0.1399E+01  0.3587E+03
     14.479  0.1262E+01  0.3588E+03
     14.546  0.1166E+01  0.3589E+03
     14.612  0.1089E+01  0.3590E+03
     14.679  0.1024E+01  0.3590E+03
     14.745  0.9614E+00  0.3591E+03
     14.812  0.8905E+00  0.3592E+03
     14.879  0.8459E+00  0.3592E+03
     14.945  0.8047E+00  0.3593E+03
     15.012  0.6845E+00  0.3593E+03
     15.079  0.6494E+00  0.3594E+03
     15.145  0.6222E+00  0.3594E+03
     15.212  0.5919E+00  0.3594E+03
     15.278  0.5507E+00  0.3595E+03
     15.345  0.5186E+00  0.3595E+03
     15.412  0.4966E+00  0.3596E+03
     15.478  0.5898E+00  0.3596E+03
     15.545  0.6398E+00  0.3596E+03
     15.612  0.6550E+00  0.3597E+03
     15.678  0.6101E+00  0.3597E+03
     15.745  0.5637E+00  0.3598E+03
     15.811  0.5053E+00  0.3598E+03
     15.878  0.4180E+00  0.3598E+03
     15.945  0.3681E+00  0.3598E+03
     16.011  0.3293E+00  0.3599E+03
     16.078  0.2923E+00  0.3599E+03
     16.145  0.2569E+00  0.3599E+03
     16.211  0.2232E+00  0.3599E+03
     16.278  0.1920E+00  0.3599E+03
     16.345  0.1625E+00  0.3599E+03
     16.411  0.1345E+00  0.3600E+03
     16.478  0.1113E+00  0.3600E+03
     16.544  0.9842E-01  0.3600E+03
     16.611  0.8479E-01  0.3600E+03
     16.678  0.7017E-01  0.3600E+03
     16.744  0.5657E-01  0.3600E+03
     16.811  0.4410E-01  0.3600E+03
     16.878  0.3265E-01  0.3600E+03
     16.944  0.2200E-01  0.3600E+03
     17.011  0.1213E-01  0.3600E+03
     17.077  0.5180E-02  0.3600E+03
     17.144  0.2296E-02  0.3600E+03
     17.211  0.5691E-03  0.3600E+03
     17.277  0.0000E+00  0.3600E+03
     17.344  0.0000E+00  0.3600E+03
     17.411  0.0000E+00  0.3600E+03
     17.477  0.0000E+00  0.3600E+03
     17.544  0.0000E+00  0.3600E+03
     17.610  0.0000E+00  0.3600E+03
     17.677  0.0000E+00  0.3600E+03
     17.744  0.0000E+00  0.3600E+03
     17.810  0.0000E+00  0.3600E+03
     17.877  0.0000E+00  0.3600E+03
     17.944  0.0000E+00  0.3600E+03
     18.010  0.0000E+00  0.3600E+03
     18.077  0.0000E+00  0.3600E+03
     18.143  0.0000E+00  0.3600E+03
     18.210  0.0000E+00  0.3600E+03
     18.277  0.0000E+00  0.3600E+03
