<?xml version="1.0" encoding="ISO-8859-1"?>
<modeling>
 <generator>
  <i name="program" type="string">vasp </i>
  <i name="version" type="string">5.4.1  </i>
  <i name="subversion" type="string">24Jun15 (build Feb 03 2017 16:24:58) complex                          parallel </i>
  <i name="platform" type="string">IFC91_ompi </i>
  <i name="date" type="string">2018 06 22 </i>
  <i name="time" type="string">16:51:52 </i>
 </generator>
 <incar>
  <i type="string" name="SYSTEM"> Ir_Ru</i>
  <i type="int" name="ISTART">     0</i>
  <i type="string" name="PREC">accurate</i>
  <i type="string" name="ALGO"> Very_Fast</i>
  <i type="int" name="ICHARG">     2</i>
  <i type="int" name="NELMIN">     5</i>
  <i type="int" name="IBRION">    -1</i>
  <i name="EDIFFG">      0.00001000</i>
  <i type="int" name="ISIF">     2</i>
  <i type="int" name="ISMEAR">    -5</i>
  <i name="SIGMA">      0.10000000</i>
  <v type="int" name="KPOINT_BSE">    -1     0     0     0</v>
 </incar>
 <kpoints>
  <generation param="Gamma">
   <v type="int" name="divisions">       8        8        5 </v>
   <v name="usershift">      0.00000000       0.00000000       0.00000000 </v>
   <v name="genvec1">      0.12500000       0.00000000       0.00000000 </v>
   <v name="genvec2">      0.00000000       0.12500000       0.00000000 </v>
   <v name="genvec3">      0.00000000       0.00000000       0.20000000 </v>
   <v name="shift">      0.00000000       0.00000000       0.00000000 </v>
  </generation>
  <varray name="kpointlist" >
   <v>       0.00000000       0.00000000       0.00000000 </v>
   <v>       0.12500000       0.00000000       0.00000000 </v>
   <v>       0.25000000       0.00000000       0.00000000 </v>
   <v>       0.37500000      -0.00000000       0.00000000 </v>
   <v>       0.50000000       0.00000000       0.00000000 </v>
   <v>       0.12500000       0.12500000       0.00000000 </v>
   <v>       0.25000000       0.12500000       0.00000000 </v>
   <v>       0.37500000       0.12500000       0.00000000 </v>
   <v>       0.50000000       0.12500000       0.00000000 </v>
   <v>      -0.37500000       0.12500000       0.00000000 </v>
   <v>      -0.25000000       0.12500000       0.00000000 </v>
   <v>      -0.12500000       0.12500000       0.00000000 </v>
   <v>       0.25000000       0.25000000       0.00000000 </v>
   <v>       0.37500000       0.25000000       0.00000000 </v>
   <v>       0.50000000       0.25000000       0.00000000 </v>
   <v>      -0.37500000       0.25000000       0.00000000 </v>
   <v>      -0.25000000       0.25000000       0.00000000 </v>
   <v>       0.37500000       0.37500000       0.00000000 </v>
   <v>       0.50000000       0.37500000       0.00000000 </v>
   <v>      -0.37500000       0.37500000       0.00000000 </v>
   <v>       0.50000000       0.50000000       0.00000000 </v>
   <v>       0.00000000       0.00000000       0.20000000 </v>
   <v>       0.12500000       0.00000000       0.20000000 </v>
   <v>       0.25000000       0.00000000       0.20000000 </v>
   <v>       0.37500000      -0.00000000       0.20000000 </v>
   <v>       0.50000000       0.00000000       0.20000000 </v>
   <v>       0.12500000       0.12500000       0.20000000 </v>
   <v>       0.25000000       0.12500000       0.20000000 </v>
   <v>       0.37500000       0.12500000       0.20000000 </v>
   <v>       0.50000000       0.12500000       0.20000000 </v>
   <v>      -0.37500000       0.12500000       0.20000000 </v>
   <v>      -0.25000000       0.12500000       0.20000000 </v>
   <v>      -0.12500000       0.12500000       0.20000000 </v>
   <v>       0.25000000       0.25000000       0.20000000 </v>
   <v>       0.37500000       0.25000000       0.20000000 </v>
   <v>       0.50000000       0.25000000       0.20000000 </v>
   <v>      -0.37500000       0.25000000       0.20000000 </v>
   <v>      -0.25000000       0.25000000       0.20000000 </v>
   <v>       0.37500000       0.37500000       0.20000000 </v>
   <v>       0.50000000       0.37500000       0.20000000 </v>
   <v>      -0.37500000       0.37500000       0.20000000 </v>
   <v>       0.50000000       0.50000000       0.20000000 </v>
   <v>       0.00000000       0.00000000       0.40000000 </v>
   <v>       0.12500000      -0.00000000       0.40000000 </v>
   <v>       0.25000000       0.00000000       0.40000000 </v>
   <v>       0.37500000      -0.00000000       0.40000000 </v>
   <v>       0.50000000       0.00000000       0.40000000 </v>
   <v>       0.12500000       0.12500000       0.40000000 </v>
   <v>       0.25000000       0.12500000       0.40000000 </v>
   <v>       0.37500000       0.12500000       0.40000000 </v>
   <v>       0.50000000       0.12500000       0.40000000 </v>
   <v>      -0.37500000       0.12500000       0.40000000 </v>
   <v>      -0.25000000       0.12500000       0.40000000 </v>
   <v>      -0.12500000       0.12500000       0.40000000 </v>
   <v>       0.25000000       0.25000000       0.40000000 </v>
   <v>       0.37500000       0.25000000       0.40000000 </v>
   <v>       0.50000000       0.25000000       0.40000000 </v>
   <v>      -0.37500000       0.25000000       0.40000000 </v>
   <v>      -0.25000000       0.25000000       0.40000000 </v>
   <v>       0.37500000       0.37500000       0.40000000 </v>
   <v>       0.50000000       0.37500000       0.40000000 </v>
   <v>      -0.37500000       0.37500000       0.40000000 </v>
   <v>       0.50000000       0.50000000       0.40000000 </v>
  </varray>
  <varray name="weights" >
   <v>       0.00312500 </v>
   <v>       0.01250000 </v>
   <v>       0.01250000 </v>
   <v>       0.01250000 </v>
   <v>       0.00625000 </v>
   <v>       0.00625000 </v>
   <v>       0.01250000 </v>
   <v>       0.01250000 </v>
   <v>       0.01250000 </v>
   <v>       0.01250000 </v>
   <v>       0.01250000 </v>
   <v>       0.00625000 </v>
   <v>       0.00625000 </v>
   <v>       0.01250000 </v>
   <v>       0.01250000 </v>
   <v>       0.01250000 </v>
   <v>       0.00625000 </v>
   <v>       0.00625000 </v>
   <v>       0.01250000 </v>
   <v>       0.00625000 </v>
   <v>       0.00312500 </v>
   <v>       0.00625000 </v>
   <v>       0.02500000 </v>
   <v>       0.02500000 </v>
   <v>       0.02500000 </v>
   <v>       0.01250000 </v>
   <v>       0.01250000 </v>
   <v>       0.02500000 </v>
   <v>       0.02500000 </v>
   <v>       0.02500000 </v>
   <v>       0.02500000 </v>
   <v>       0.02500000 </v>
   <v>       0.01250000 </v>
   <v>       0.01250000 </v>
   <v>       0.02500000 </v>
   <v>       0.02500000 </v>
   <v>       0.02500000 </v>
   <v>       0.01250000 </v>
   <v>       0.01250000 </v>
   <v>       0.02500000 </v>
   <v>       0.01250000 </v>
   <v>       0.00625000 </v>
   <v>       0.00625000 </v>
   <v>       0.02500000 </v>
   <v>       0.02500000 </v>
   <v>       0.02500000 </v>
   <v>       0.01250000 </v>
   <v>       0.01250000 </v>
   <v>       0.02500000 </v>
   <v>       0.02500000 </v>
   <v>       0.02500000 </v>
   <v>       0.02500000 </v>
   <v>       0.02500000 </v>
   <v>       0.01250000 </v>
   <v>       0.01250000 </v>
   <v>       0.02500000 </v>
   <v>       0.02500000 </v>
   <v>       0.02500000 </v>
   <v>       0.01250000 </v>
   <v>       0.01250000 </v>
   <v>       0.02500000 </v>
   <v>       0.01250000 </v>
   <v>       0.00625000 </v>
  </varray>
  <varray name="tetrahedronlist"  type="int" >
   <v type="int" >        4        1        2        2       23 </v>
   <v type="int" >        4        2        2        6       23 </v>
   <v type="int" >        4        2        6       23       27 </v>
   <v type="int" >        4        1        2       22       23 </v>
   <v type="int" >        4        2       22       23       23 </v>
   <v type="int" >        4        2       23       23       27 </v>
   <v type="int" >        4        2        3        6       24 </v>
   <v type="int" >        4        3        6        7       24 </v>
   <v type="int" >        4        6        7       24       28 </v>
   <v type="int" >        4        2        6       23       24 </v>
   <v type="int" >        4        6       23       24       27 </v>
   <v type="int" >        4        6       24       27       28 </v>
   <v type="int" >        4        3        4        7       25 </v>
   <v type="int" >        4        4        7        8       25 </v>
   <v type="int" >        4        7        8       25       29 </v>
   <v type="int" >        4        3        7       24       25 </v>
   <v type="int" >        4        7       24       25       28 </v>
   <v type="int" >        4        7       25       28       29 </v>
   <v type="int" >        4        4        5        8       26 </v>
   <v type="int" >        4        5        8        9       26 </v>
   <v type="int" >        4        8        9       26       30 </v>
   <v type="int" >        4        4        8       25       26 </v>
   <v type="int" >        4        8       25       26       29 </v>
   <v type="int" >        4        8       26       29       30 </v>
   <v type="int" >        4        4        5        9       25 </v>
   <v type="int" >        4        4        9       10       25 </v>
   <v type="int" >        4        9       10       25       31 </v>
   <v type="int" >        4        5        9       25       26 </v>
   <v type="int" >        4        9       25       26       30 </v>
   <v type="int" >        4        9       25       30       31 </v>
   <v type="int" >        4        3        4       10       24 </v>
   <v type="int" >        4        3       10       11       24 </v>
   <v type="int" >        4       10       11       24       32 </v>
   <v type="int" >        4        4       10       24       25 </v>
   <v type="int" >        4       10       24       25       31 </v>
   <v type="int" >        4       10       24       31       32 </v>
   <v type="int" >        4        2        3       11       23 </v>
   <v type="int" >        4        2       11       12       23 </v>
   <v type="int" >        4       11       12       23       33 </v>
   <v type="int" >        4        3       11       23       24 </v>
   <v type="int" >        4       11       23       24       32 </v>
   <v type="int" >        4       11       23       32       33 </v>
   <v type="int" >        4        1        2       12       22 </v>
   <v type="int" >        4        2       12       22       23 </v>
   <v type="int" >        4       12       22       23       33 </v>
   <v type="int" >        4        2        3        6       27 </v>
   <v type="int" >        4        3        6        7       27 </v>
   <v type="int" >        4        3        7       27       28 </v>
   <v type="int" >        4        2        3       23       27 </v>
   <v type="int" >        4        3       23       24       27 </v>
   <v type="int" >        4        3       24       27       28 </v>
   <v type="int" >        4        6        7        7       28 </v>
   <v type="int" >        4        7        7       13       28 </v>
   <v type="int" >        4        7       13       28       34 </v>
   <v type="int" >        4        6        7       27       28 </v>
   <v type="int" >        4        7       27       28       28 </v>
   <v type="int" >        4        7       28       28       34 </v>
   <v type="int" >        4        7        8       13       29 </v>
   <v type="int" >        4        8       13       14       29 </v>
   <v type="int" >        4       13       14       29       35 </v>
   <v type="int" >        4        7       13       28       29 </v>
   <v type="int" >        4       13       28       29       34 </v>
   <v type="int" >        4       13       29       34       35 </v>
   <v type="int" >        4        8        9       14       30 </v>
   <v type="int" >        4        9       14       15       30 </v>
   <v type="int" >        4       14       15       30       36 </v>
   <v type="int" >        4        8       14       29       30 </v>
   <v type="int" >        4       14       29       30       35 </v>
   <v type="int" >        4       14       30       35       36 </v>
   <v type="int" >        4        9       10       15       31 </v>
   <v type="int" >        4       10       15       16       31 </v>
   <v type="int" >        4       15       16       31       37 </v>
   <v type="int" >        4        9       15       30       31 </v>
   <v type="int" >        4       15       30       31       36 </v>
   <v type="int" >        4       15       31       36       37 </v>
   <v type="int" >        4       10       11       16       32 </v>
   <v type="int" >        4       11       16       17       32 </v>
   <v type="int" >        4       16       17       32       38 </v>
   <v type="int" >        4       10       16       31       32 </v>
   <v type="int" >        4       16       31       32       37 </v>
   <v type="int" >        4       16       32       37       38 </v>
   <v type="int" >        4       11       12       17       33 </v>
   <v type="int" >        4       11       17       32       33 </v>
   <v type="int" >        4       17       32       33       38 </v>
   <v type="int" >        4        3        4        7       28 </v>
   <v type="int" >        4        4        7        8       28 </v>
   <v type="int" >        4        4        8       28       29 </v>
   <v type="int" >        4        3        4       24       28 </v>
   <v type="int" >        4        4       24       25       28 </v>
   <v type="int" >        4        4       25       28       29 </v>
   <v type="int" >        4        7        8       13       34 </v>
   <v type="int" >        4        8       13       14       34 </v>
   <v type="int" >        4        8       14       34       35 </v>
   <v type="int" >        4        7        8       28       34 </v>
   <v type="int" >        4        8       28       29       34 </v>
   <v type="int" >        4        8       29       34       35 </v>
   <v type="int" >        4       13       14       14       35 </v>
   <v type="int" >        4       14       14       18       35 </v>
   <v type="int" >        4       14       18       35       39 </v>
   <v type="int" >        4       13       14       34       35 </v>
   <v type="int" >        4       14       34       35       35 </v>
   <v type="int" >        4       14       35       35       39 </v>
   <v type="int" >        4       14       15       18       36 </v>
   <v type="int" >        4       15       18       19       36 </v>
   <v type="int" >        4       18       19       36       40 </v>
   <v type="int" >        4       14       18       35       36 </v>
   <v type="int" >        4       18       35       36       39 </v>
   <v type="int" >        4       18       36       39       40 </v>
   <v type="int" >        4       15       16       19       37 </v>
   <v type="int" >        4       16       19       20       37 </v>
   <v type="int" >        4       19       20       37       41 </v>
   <v type="int" >        4       15       19       36       37 </v>
   <v type="int" >        4       19       36       37       40 </v>
   <v type="int" >        4       19       37       40       41 </v>
   <v type="int" >        4       16       17       20       38 </v>
   <v type="int" >        4       16       20       37       38 </v>
   <v type="int" >        4       20       37       38       41 </v>
   <v type="int" >        4        4        5        8       29 </v>
   <v type="int" >        4        5        8        9       29 </v>
   <v type="int" >        4        5        9       29       30 </v>
   <v type="int" >        4        4        5       25       29 </v>
   <v type="int" >        4        5       25       26       29 </v>
   <v type="int" >        4        5       26       29       30 </v>
   <v type="int" >        4        8        9       14       35 </v>
   <v type="int" >        4        9       14       15       35 </v>
   <v type="int" >        4        9       15       35       36 </v>
   <v type="int" >        4        8        9       29       35 </v>
   <v type="int" >        4        9       29       30       35 </v>
   <v type="int" >        4        9       30       35       36 </v>
   <v type="int" >        4       14       15       18       39 </v>
   <v type="int" >        4       15       18       19       39 </v>
   <v type="int" >        4       15       19       39       40 </v>
   <v type="int" >        4       14       15       35       39 </v>
   <v type="int" >        4       15       35       36       39 </v>
   <v type="int" >        4       15       36       39       40 </v>
   <v type="int" >        4       18       19       19       40 </v>
   <v type="int" >        4       19       19       21       40 </v>
   <v type="int" >        4       19       21       40       42 </v>
   <v type="int" >        4       18       19       39       40 </v>
   <v type="int" >        4       19       39       40       40 </v>
   <v type="int" >        4       19       40       40       42 </v>
   <v type="int" >        4       19       20       21       41 </v>
   <v type="int" >        4       19       21       40       41 </v>
   <v type="int" >        4       21       40       41       42 </v>
   <v type="int" >        4        4        5        9       30 </v>
   <v type="int" >        4        4        9       10       30 </v>
   <v type="int" >        4        4       10       30       31 </v>
   <v type="int" >        4        4        5       26       30 </v>
   <v type="int" >        4        4       25       26       30 </v>
   <v type="int" >        4        4       25       30       31 </v>
   <v type="int" >        4        9       10       15       36 </v>
   <v type="int" >        4       10       15       16       36 </v>
   <v type="int" >        4       10       16       36       37 </v>
   <v type="int" >        4        9       10       30       36 </v>
   <v type="int" >        4       10       30       31       36 </v>
   <v type="int" >        4       10       31       36       37 </v>
   <v type="int" >        4       15       16       19       40 </v>
   <v type="int" >        4       16       19       20       40 </v>
   <v type="int" >        4       16       20       40       41 </v>
   <v type="int" >        4       15       16       36       40 </v>
   <v type="int" >        4       16       36       37       40 </v>
   <v type="int" >        4       16       37       40       41 </v>
   <v type="int" >        4       19       20       21       42 </v>
   <v type="int" >        4       19       20       40       42 </v>
   <v type="int" >        4       20       40       41       42 </v>
   <v type="int" >        4        3        4       10       31 </v>
   <v type="int" >        4        3       10       11       31 </v>
   <v type="int" >        4        3       11       31       32 </v>
   <v type="int" >        4        3        4       25       31 </v>
   <v type="int" >        4        3       24       25       31 </v>
   <v type="int" >        4        3       24       31       32 </v>
   <v type="int" >        4       10       11       16       37 </v>
   <v type="int" >        4       11       16       17       37 </v>
   <v type="int" >        4       11       17       37       38 </v>
   <v type="int" >        4       10       11       31       37 </v>
   <v type="int" >        4       11       31       32       37 </v>
   <v type="int" >        4       11       32       37       38 </v>
   <v type="int" >        4       16       17       20       41 </v>
   <v type="int" >        4       16       17       37       41 </v>
   <v type="int" >        4       17       37       38       41 </v>
   <v type="int" >        4        2        3       11       32 </v>
   <v type="int" >        4        2       11       12       32 </v>
   <v type="int" >        4        2       12       32       33 </v>
   <v type="int" >        4        2        3       24       32 </v>
   <v type="int" >        4        2       23       24       32 </v>
   <v type="int" >        4        2       23       32       33 </v>
   <v type="int" >        4       11       12       17       38 </v>
   <v type="int" >        4       11       12       32       38 </v>
   <v type="int" >        4       12       32       33       38 </v>
   <v type="int" >        4        1        2       12       33 </v>
   <v type="int" >        4        1        2       23       33 </v>
   <v type="int" >        4        1       22       23       33 </v>
   <v type="int" >        4       22       23       23       44 </v>
   <v type="int" >        4       23       23       27       44 </v>
   <v type="int" >        4       23       27       44       48 </v>
   <v type="int" >        4       22       23       43       44 </v>
   <v type="int" >        4       23       43       44       44 </v>
   <v type="int" >        4       23       44       44       48 </v>
   <v type="int" >        4       23       24       27       45 </v>
   <v type="int" >        4       24       27       28       45 </v>
   <v type="int" >        4       27       28       45       49 </v>
   <v type="int" >        4       23       27       44       45 </v>
   <v type="int" >        4       27       44       45       48 </v>
   <v type="int" >        4       27       45       48       49 </v>
   <v type="int" >        4       24       25       28       46 </v>
   <v type="int" >        4       25       28       29       46 </v>
   <v type="int" >        4       28       29       46       50 </v>
   <v type="int" >        4       24       28       45       46 </v>
   <v type="int" >        4       28       45       46       49 </v>
   <v type="int" >        4       28       46       49       50 </v>
   <v type="int" >        4       25       26       29       47 </v>
   <v type="int" >        4       26       29       30       47 </v>
   <v type="int" >        4       29       30       47       51 </v>
   <v type="int" >        4       25       29       46       47 </v>
   <v type="int" >        4       29       46       47       50 </v>
   <v type="int" >        4       29       47       50       51 </v>
   <v type="int" >        4       25       26       30       46 </v>
   <v type="int" >        4       25       30       31       46 </v>
   <v type="int" >        4       30       31       46       52 </v>
   <v type="int" >        4       26       30       46       47 </v>
   <v type="int" >        4       30       46       47       51 </v>
   <v type="int" >        4       30       46       51       52 </v>
   <v type="int" >        4       24       25       31       45 </v>
   <v type="int" >        4       24       31       32       45 </v>
   <v type="int" >        4       31       32       45       53 </v>
   <v type="int" >        4       25       31       45       46 </v>
   <v type="int" >        4       31       45       46       52 </v>
   <v type="int" >        4       31       45       52       53 </v>
   <v type="int" >        4       23       24       32       44 </v>
   <v type="int" >        4       23       32       33       44 </v>
   <v type="int" >        4       32       33       44       54 </v>
   <v type="int" >        4       24       32       44       45 </v>
   <v type="int" >        4       32       44       45       53 </v>
   <v type="int" >        4       32       44       53       54 </v>
   <v type="int" >        4       22       23       33       43 </v>
   <v type="int" >        4       23       33       43       44 </v>
   <v type="int" >        4       33       43       44       54 </v>
   <v type="int" >        4       23       24       27       48 </v>
   <v type="int" >        4       24       27       28       48 </v>
   <v type="int" >        4       24       28       48       49 </v>
   <v type="int" >        4       23       24       44       48 </v>
   <v type="int" >        4       24       44       45       48 </v>
   <v type="int" >        4       24       45       48       49 </v>
   <v type="int" >        4       27       28       28       49 </v>
   <v type="int" >        4       28       28       34       49 </v>
   <v type="int" >        4       28       34       49       55 </v>
   <v type="int" >        4       27       28       48       49 </v>
   <v type="int" >        4       28       48       49       49 </v>
   <v type="int" >        4       28       49       49       55 </v>
   <v type="int" >        4       28       29       34       50 </v>
   <v type="int" >        4       29       34       35       50 </v>
   <v type="int" >        4       34       35       50       56 </v>
   <v type="int" >        4       28       34       49       50 </v>
   <v type="int" >        4       34       49       50       55 </v>
   <v type="int" >        4       34       50       55       56 </v>
   <v type="int" >        4       29       30       35       51 </v>
   <v type="int" >        4       30       35       36       51 </v>
   <v type="int" >        4       35       36       51       57 </v>
   <v type="int" >        4       29       35       50       51 </v>
   <v type="int" >        4       35       50       51       56 </v>
   <v type="int" >        4       35       51       56       57 </v>
   <v type="int" >        4       30       31       36       52 </v>
   <v type="int" >        4       31       36       37       52 </v>
   <v type="int" >        4       36       37       52       58 </v>
   <v type="int" >        4       30       36       51       52 </v>
   <v type="int" >        4       36       51       52       57 </v>
   <v type="int" >        4       36       52       57       58 </v>
   <v type="int" >        4       31       32       37       53 </v>
   <v type="int" >        4       32       37       38       53 </v>
   <v type="int" >        4       37       38       53       59 </v>
   <v type="int" >        4       31       37       52       53 </v>
   <v type="int" >        4       37       52       53       58 </v>
   <v type="int" >        4       37       53       58       59 </v>
   <v type="int" >        4       32       33       38       54 </v>
   <v type="int" >        4       32       38       53       54 </v>
   <v type="int" >        4       38       53       54       59 </v>
   <v type="int" >        4       24       25       28       49 </v>
   <v type="int" >        4       25       28       29       49 </v>
   <v type="int" >        4       25       29       49       50 </v>
   <v type="int" >        4       24       25       45       49 </v>
   <v type="int" >        4       25       45       46       49 </v>
   <v type="int" >        4       25       46       49       50 </v>
   <v type="int" >        4       28       29       34       55 </v>
   <v type="int" >        4       29       34       35       55 </v>
   <v type="int" >        4       29       35       55       56 </v>
   <v type="int" >        4       28       29       49       55 </v>
   <v type="int" >        4       29       49       50       55 </v>
   <v type="int" >        4       29       50       55       56 </v>
   <v type="int" >        4       34       35       35       56 </v>
   <v type="int" >        4       35       35       39       56 </v>
   <v type="int" >        4       35       39       56       60 </v>
   <v type="int" >        4       34       35       55       56 </v>
   <v type="int" >        4       35       55       56       56 </v>
   <v type="int" >        4       35       56       56       60 </v>
   <v type="int" >        4       35       36       39       57 </v>
   <v type="int" >        4       36       39       40       57 </v>
   <v type="int" >        4       39       40       57       61 </v>
   <v type="int" >        4       35       39       56       57 </v>
   <v type="int" >        4       39       56       57       60 </v>
   <v type="int" >        4       39       57       60       61 </v>
   <v type="int" >        4       36       37       40       58 </v>
   <v type="int" >        4       37       40       41       58 </v>
   <v type="int" >        4       40       41       58       62 </v>
   <v type="int" >        4       36       40       57       58 </v>
   <v type="int" >        4       40       57       58       61 </v>
   <v type="int" >        4       40       58       61       62 </v>
   <v type="int" >        4       37       38       41       59 </v>
   <v type="int" >        4       37       41       58       59 </v>
   <v type="int" >        4       41       58       59       62 </v>
   <v type="int" >        4       25       26       29       50 </v>
   <v type="int" >        4       26       29       30       50 </v>
   <v type="int" >        4       26       30       50       51 </v>
   <v type="int" >        4       25       26       46       50 </v>
   <v type="int" >        4       26       46       47       50 </v>
   <v type="int" >        4       26       47       50       51 </v>
   <v type="int" >        4       29       30       35       56 </v>
   <v type="int" >        4       30       35       36       56 </v>
   <v type="int" >        4       30       36       56       57 </v>
   <v type="int" >        4       29       30       50       56 </v>
   <v type="int" >        4       30       50       51       56 </v>
   <v type="int" >        4       30       51       56       57 </v>
   <v type="int" >        4       35       36       39       60 </v>
   <v type="int" >        4       36       39       40       60 </v>
   <v type="int" >        4       36       40       60       61 </v>
   <v type="int" >        4       35       36       56       60 </v>
   <v type="int" >        4       36       56       57       60 </v>
   <v type="int" >        4       36       57       60       61 </v>
   <v type="int" >        4       39       40       40       61 </v>
   <v type="int" >        4       40       40       42       61 </v>
   <v type="int" >        4       40       42       61       63 </v>
   <v type="int" >        4       39       40       60       61 </v>
   <v type="int" >        4       40       60       61       61 </v>
   <v type="int" >        4       40       61       61       63 </v>
   <v type="int" >        4       40       41       42       62 </v>
   <v type="int" >        4       40       42       61       62 </v>
   <v type="int" >        4       42       61       62       63 </v>
   <v type="int" >        4       25       26       30       51 </v>
   <v type="int" >        4       25       30       31       51 </v>
   <v type="int" >        4       25       31       51       52 </v>
   <v type="int" >        4       25       26       47       51 </v>
   <v type="int" >        4       25       46       47       51 </v>
   <v type="int" >        4       25       46       51       52 </v>
   <v type="int" >        4       30       31       36       57 </v>
   <v type="int" >        4       31       36       37       57 </v>
   <v type="int" >        4       31       37       57       58 </v>
   <v type="int" >        4       30       31       51       57 </v>
   <v type="int" >        4       31       51       52       57 </v>
   <v type="int" >        4       31       52       57       58 </v>
   <v type="int" >        4       36       37       40       61 </v>
   <v type="int" >        4       37       40       41       61 </v>
   <v type="int" >        4       37       41       61       62 </v>
   <v type="int" >        4       36       37       57       61 </v>
   <v type="int" >        4       37       57       58       61 </v>
   <v type="int" >        4       37       58       61       62 </v>
   <v type="int" >        4       40       41       42       63 </v>
   <v type="int" >        4       40       41       61       63 </v>
   <v type="int" >        4       41       61       62       63 </v>
   <v type="int" >        4       24       25       31       52 </v>
   <v type="int" >        4       24       31       32       52 </v>
   <v type="int" >        4       24       32       52       53 </v>
   <v type="int" >        4       24       25       46       52 </v>
   <v type="int" >        4       24       45       46       52 </v>
   <v type="int" >        4       24       45       52       53 </v>
   <v type="int" >        4       31       32       37       58 </v>
   <v type="int" >        4       32       37       38       58 </v>
   <v type="int" >        4       32       38       58       59 </v>
   <v type="int" >        4       31       32       52       58 </v>
   <v type="int" >        4       32       52       53       58 </v>
   <v type="int" >        4       32       53       58       59 </v>
   <v type="int" >        4       37       38       41       62 </v>
   <v type="int" >        4       37       38       58       62 </v>
   <v type="int" >        4       38       58       59       62 </v>
   <v type="int" >        4       23       24       32       53 </v>
   <v type="int" >        4       23       32       33       53 </v>
   <v type="int" >        4       23       33       53       54 </v>
   <v type="int" >        4       23       24       45       53 </v>
   <v type="int" >        4       23       44       45       53 </v>
   <v type="int" >        4       23       44       53       54 </v>
   <v type="int" >        4       32       33       38       59 </v>
   <v type="int" >        4       32       33       53       59 </v>
   <v type="int" >        4       33       53       54       59 </v>
   <v type="int" >        4       22       23       33       54 </v>
   <v type="int" >        4       22       23       44       54 </v>
   <v type="int" >        4       22       43       44       54 </v>
   <v type="int" >        4       43       44       44       44 </v>
   <v type="int" >        4       44       44       44       48 </v>
   <v type="int" >        2       44       44       48       48 </v>
   <v type="int" >        2       43       43       44       44 </v>
   <v type="int" >        4       44       45       45       48 </v>
   <v type="int" >        4       45       45       48       49 </v>
   <v type="int" >        4       45       48       49       49 </v>
   <v type="int" >        4       44       44       45       48 </v>
   <v type="int" >        4       44       45       48       48 </v>
   <v type="int" >        4       45       48       48       49 </v>
   <v type="int" >        4       45       46       46       49 </v>
   <v type="int" >        4       46       46       49       50 </v>
   <v type="int" >        4       46       49       50       50 </v>
   <v type="int" >        4       45       45       46       49 </v>
   <v type="int" >        4       45       46       49       49 </v>
   <v type="int" >        4       46       49       49       50 </v>
   <v type="int" >        4       46       47       47       50 </v>
   <v type="int" >        4       47       47       50       51 </v>
   <v type="int" >        4       47       50       51       51 </v>
   <v type="int" >        4       46       46       47       50 </v>
   <v type="int" >        4       46       47       50       50 </v>
   <v type="int" >        4       47       50       50       51 </v>
   <v type="int" >        4       46       46       47       51 </v>
   <v type="int" >        4       46       46       51       52 </v>
   <v type="int" >        4       46       51       52       52 </v>
   <v type="int" >        4       46       47       47       51 </v>
   <v type="int" >        4       46       47       51       51 </v>
   <v type="int" >        4       46       51       51       52 </v>
   <v type="int" >        4       45       45       46       52 </v>
   <v type="int" >        4       45       45       52       53 </v>
   <v type="int" >        4       45       52       53       53 </v>
   <v type="int" >        4       45       46       46       52 </v>
   <v type="int" >        4       45       46       52       52 </v>
   <v type="int" >        4       45       52       52       53 </v>
   <v type="int" >        4       44       44       45       53 </v>
   <v type="int" >        4       44       44       53       54 </v>
   <v type="int" >        4       44       53       54       54 </v>
   <v type="int" >        4       44       45       45       53 </v>
   <v type="int" >        4       44       45       53       53 </v>
   <v type="int" >        4       44       53       53       54 </v>
   <v type="int" >        4       43       43       44       54 </v>
   <v type="int" >        4       43       44       44       54 </v>
   <v type="int" >        4       43       44       54       54 </v>
   <v type="int" >        4       48       49       49       49 </v>
   <v type="int" >        4       49       49       49       55 </v>
   <v type="int" >        2       49       49       55       55 </v>
   <v type="int" >        2       48       48       49       49 </v>
   <v type="int" >        4       49       50       50       55 </v>
   <v type="int" >        4       50       50       55       56 </v>
   <v type="int" >        4       50       55       56       56 </v>
   <v type="int" >        4       49       49       50       55 </v>
   <v type="int" >        4       49       50       55       55 </v>
   <v type="int" >        4       50       55       55       56 </v>
   <v type="int" >        4       50       51       51       56 </v>
   <v type="int" >        4       51       51       56       57 </v>
   <v type="int" >        4       51       56       57       57 </v>
   <v type="int" >        4       50       50       51       56 </v>
   <v type="int" >        4       50       51       56       56 </v>
   <v type="int" >        4       51       56       56       57 </v>
   <v type="int" >        4       51       52       52       57 </v>
   <v type="int" >        4       52       52       57       58 </v>
   <v type="int" >        4       52       57       58       58 </v>
   <v type="int" >        4       51       51       52       57 </v>
   <v type="int" >        4       51       52       57       57 </v>
   <v type="int" >        4       52       57       57       58 </v>
   <v type="int" >        4       52       53       53       58 </v>
   <v type="int" >        4       53       53       58       59 </v>
   <v type="int" >        4       53       58       59       59 </v>
   <v type="int" >        4       52       52       53       58 </v>
   <v type="int" >        4       52       53       58       58 </v>
   <v type="int" >        4       53       58       58       59 </v>
   <v type="int" >        4       53       54       54       59 </v>
   <v type="int" >        4       53       53       54       59 </v>
   <v type="int" >        4       53       54       59       59 </v>
   <v type="int" >        4       55       56       56       56 </v>
   <v type="int" >        4       56       56       56       60 </v>
   <v type="int" >        2       56       56       60       60 </v>
   <v type="int" >        2       55       55       56       56 </v>
   <v type="int" >        4       56       57       57       60 </v>
   <v type="int" >        4       57       57       60       61 </v>
   <v type="int" >        4       57       60       61       61 </v>
   <v type="int" >        4       56       56       57       60 </v>
   <v type="int" >        4       56       57       60       60 </v>
   <v type="int" >        4       57       60       60       61 </v>
   <v type="int" >        4       57       58       58       61 </v>
   <v type="int" >        4       58       58       61       62 </v>
   <v type="int" >        4       58       61       62       62 </v>
   <v type="int" >        4       57       57       58       61 </v>
   <v type="int" >        4       57       58       61       61 </v>
   <v type="int" >        4       58       61       61       62 </v>
   <v type="int" >        4       58       59       59       62 </v>
   <v type="int" >        4       58       58       59       62 </v>
   <v type="int" >        4       58       59       62       62 </v>
   <v type="int" >        4       60       61       61       61 </v>
   <v type="int" >        4       61       61       61       63 </v>
   <v type="int" >        2       61       61       63       63 </v>
   <v type="int" >        2       60       60       61       61 </v>
   <v type="int" >        4       61       62       62       63 </v>
   <v type="int" >        4       61       61       62       63 </v>
   <v type="int" >        4       61       62       63       63 </v>
  </varray>
  <i name="volumeweight">      0.00052083 </i>
 </kpoints>
 <parameters>
  <separator name="general" >
   <i type="string" name="SYSTEM">Ir_Ru</i>
   <i type="logical" name="LCOMPAT"> F  </i>
  </separator>
  <separator name="electronic" >
   <i type="string" name="PREC">accura</i>
   <i name="ENMAX">    213.27600000</i>
   <i name="ENAUG">    333.49400000</i>
   <i name="EDIFF">      0.00010000</i>
   <i type="int" name="IALGO">    48</i>
   <i type="int" name="IWAVPR">    10</i>
   <i type="int" name="NBANDS">   180</i>
   <i name="NELECT">    284.00000000</i>
   <i type="int" name="TURBO">     0</i>
   <i type="int" name="IRESTART">     0</i>
   <i type="int" name="NREBOOT">     0</i>
   <i type="int" name="NMIN">     0</i>
   <i name="EREF">      0.00000000</i>
   <separator name="electronic smearing" >
    <i type="int" name="ISMEAR">    -5</i>
    <i name="SIGMA">      0.10000000</i>
    <i name="KSPACING">      0.50000000</i>
    <i type="logical" name="KGAMMA"> T  </i>
   </separator>
   <separator name="electronic projectors" >
    <i type="logical" name="LREAL"> F  </i>
    <v name="ROPT">      0.00000000      0.00000000</v>
    <i type="int" name="LMAXPAW">  -100</i>
    <i type="int" name="LMAXMIX">     2</i>
    <i type="logical" name="NLSPLINE"> F  </i>
   </separator>
   <separator name="electronic startup" >
    <i type="int" name="ISTART">     0</i>
    <i type="int" name="ICHARG">     2</i>
    <i type="int" name="INIWAV">     1</i>
   </separator>
   <separator name="electronic spin" >
    <i type="int" name="ISPIN">     1</i>
    <i type="logical" name="LNONCOLLINEAR"> F  </i>
    <v name="MAGMOM">      1.00000000      1.00000000      1.00000000      1.00000000      1.00000000      1.00000000      1.00000000      1.00000000      1.00000000      1.00000000      1.00000000      1.00000000      1.00000000      1.00000000      1.00000000      1.00000000      1.00000000      1.00000000      1.00000000      1.00000000
      1.00000000      1.00000000      1.00000000      1.00000000      1.00000000      1.00000000      1.00000000      1.00000000      1.00000000      1.00000000      1.00000000      1.00000000</v>
    <i name="NUPDOWN">     -1.00000000</i>
    <i type="logical" name="LSORBIT"> F  </i>
    <v name="SAXIS">      0.00000000      0.00000000      1.00000000</v>
    <i type="logical" name="LSPIRAL"> F  </i>
    <v name="QSPIRAL">      0.00000000      0.00000000      0.00000000</v>
    <i type="logical" name="LZEROZ"> F  </i>
   </separator>
   <separator name="electronic exchange-correlation" >
    <i type="logical" name="LASPH"> F  </i>
    <i type="logical" name="LMETAGGA"> F  </i>
   </separator>
   <separator name="electronic convergence" >
    <i type="int" name="NELM">    60</i>
    <i type="int" name="NELMDL">   -12</i>
    <i type="int" name="NELMIN">     5</i>
    <i name="ENINI">    213.27600000</i>
    <separator name="electronic convergence detail" >
     <i type="logical" name="LDIAG"> T  </i>
     <i type="logical" name="LSUBROT"> F  </i>
     <i name="WEIMIN">      0.00000000</i>
     <i name="EBREAK">      0.00000000</i>
     <i name="DEPER">      0.30000000</i>
     <i type="int" name="NRMM">     4</i>
     <i name="TIME">      0.40000000</i>
    </separator>
   </separator>
   <separator name="electronic mixer" >
    <i name="AMIX">      0.40000000</i>
    <i name="BMIX">      1.00000000</i>
    <i name="AMIN">      0.10000000</i>
    <i name="AMIX_MAG">      1.60000000</i>
    <i name="BMIX_MAG">      1.00000000</i>
    <separator name="electronic mixer details" >
     <i type="int" name="IMIX">     4</i>
     <i type="logical" name="MIXFIRST"> F  </i>
     <i type="int" name="MAXMIX">   -45</i>
     <i name="WC">    100.00000000</i>
     <i type="int" name="INIMIX">     1</i>
     <i type="int" name="MIXPRE">     1</i>
     <i type="int" name="MREMOVE">     5</i>
    </separator>
   </separator>
   <separator name="electronic dipolcorrection" >
    <i type="logical" name="LDIPOL"> F  </i>
    <i type="logical" name="LMONO"> F  </i>
    <i type="int" name="IDIPOL">     0</i>
    <i name="EPSILON">      1.00000000</i>
    <v name="DIPOL">   -100.00000000   -100.00000000   -100.00000000</v>
    <i name="EFIELD">      0.00000000</i>
   </separator>
  </separator>
  <separator name="grids" >
   <i type="int" name="NGX">    32</i>
   <i type="int" name="NGY">    32</i>
   <i type="int" name="NGZ">    54</i>
   <i type="int" name="NGXF">    64</i>
   <i type="int" name="NGYF">    64</i>
   <i type="int" name="NGZF">   108</i>
   <i type="logical" name="ADDGRID"> F  </i>
  </separator>
  <separator name="ionic" >
   <i type="int" name="NSW">     0</i>
   <i type="int" name="IBRION">    -1</i>
   <i type="int" name="ISIF">     2</i>
   <i name="PSTRESS">      0.00000000</i>
   <i name="EDIFFG">      0.00001000</i>
   <i type="int" name="NFREE">     0</i>
   <i name="POTIM">      0.50000000</i>
   <i name="SMASS">     -3.00000000</i>
   <i name="SCALEE">      1.00000000</i>
  </separator>
  <separator name="ionic md" >
   <i name="TEBEG">      0.00010000</i>
   <i name="TEEND">      0.00010000</i>
   <i type="int" name="NBLOCK">     1</i>
   <i type="int" name="KBLOCK">     1</i>
   <i type="int" name="NPACO">   256</i>
   <i name="APACO">     16.00000000</i>
  </separator>
  <separator name="symmetry" >
   <i type="int" name="ISYM">     2</i>
   <i name="SYMPREC">      0.00001000</i>
  </separator>
  <separator name="dos" >
   <i type="logical" name="LORBIT"> F  </i>
   <v name="RWIGS">     -1.00000000     -1.00000000</v>
   <i type="int" name="NEDOS">   301</i>
   <i name="EMIN">     10.00000000</i>
   <i name="EMAX">    -10.00000000</i>
   <i name="EFERMI">      0.00000000</i>
  </separator>
  <separator name="writing" >
   <i type="int" name="NWRITE">     2</i>
   <i type="logical" name="LWAVE"> T  </i>
   <i type="logical" name="LCHARG"> T  </i>
   <i type="logical" name="LPARD"> F  </i>
   <i type="logical" name="LVTOT"> F  </i>
   <i type="logical" name="LVHAR"> F  </i>
   <i type="logical" name="LELF"> F  </i>
   <i type="logical" name="LOPTICS"> F  </i>
   <v name="STM">      0.00000000      0.00000000      0.00000000      0.00000000      0.00000000      0.00000000      0.00000000</v>
  </separator>
  <separator name="performance" >
   <i type="int" name="NPAR">    20</i>
   <i type="int" name="NSIM">     4</i>
   <i type="int" name="NBLK">    -1</i>
   <i type="logical" name="LPLANE"> T  </i>
   <i type="logical" name="LSCALAPACK"> T  </i>
   <i type="logical" name="LSCAAWARE"> F  </i>
   <i type="logical" name="LSCALU"> F  </i>
   <i type="logical" name="LASYNC"> F  </i>
   <i type="logical" name="LORBITALREAL"> F  </i>
  </separator>
  <separator name="miscellaneous" >
   <i type="int" name="IDIOT">     3</i>
   <i type="logical" name="LMUSIC"> F  </i>
   <v name="POMASS">    192.22000000    101.07000000</v>
   <v name="DARWINR">      0.00000000      0.00000000</v>
   <v name="DARWINV">      1.00000000      1.00000000</v>
   <i type="logical" name="LCORR"> T  </i>
  </separator>
  <i type="logical" name="GGA_COMPAT"> T  </i>
  <i type="logical" name="LBERRY"> F  </i>
  <i type="int" name="ICORELEVEL">     0</i>
  <i type="logical" name="LDAU"> F  </i>
  <i type="int" name="I_CONSTRAINED_M">     0</i>
  <separator name="electronic exchange-correlation" >
   <i type="string" name="GGA">--</i>
   <i type="int" name="VOSKOWN">     0</i>
   <i type="logical" name="LHFCALC"> F  </i>
   <i type="string" name="PRECFOCK"></i>
   <i type="logical" name="LSYMGRAD"> F  </i>
   <i type="logical" name="LHFONE"> F  </i>
   <i type="logical" name="LRHFCALC"> F  </i>
   <i type="logical" name="LTHOMAS"> F  </i>
   <i type="logical" name="LMODELHF"> F  </i>
   <i name="ENCUT4O">     -1.00000000</i>
   <i type="int" name="EXXOEP">     0</i>
   <i type="int" name="FOURORBIT">     0</i>
   <i name="AEXX">      0.00000000</i>
   <i name="HFALPHA">      0.00000000</i>
   <i name="MCALPHA">      0.00000000</i>
   <i name="ALDAX">      1.00000000</i>
   <i name="AGGAX">      1.00000000</i>
   <i name="ALDAC">      1.00000000</i>
   <i name="AGGAC">      1.00000000</i>
   <i type="int" name="NKREDX">     1</i>
   <i type="int" name="NKREDY">     1</i>
   <i type="int" name="NKREDZ">     1</i>
   <i type="logical" name="SHIFTRED"> F  </i>
   <i type="logical" name="ODDONLY"> F  </i>
   <i type="logical" name="EVENONLY"> F  </i>
   <i type="int" name="LMAXFOCK">     0</i>
   <i type="int" name="NMAXFOCKAE">     0</i>
   <i type="logical" name="LFOCKAEDFT"> F  </i>
   <i name="HFSCREEN">      0.00000000</i>
   <i name="HFSCREENC">      0.00000000</i>
   <i type="int" name="NBANDSGWLOW">     0</i>
  </separator>
  <separator name="vdW DFT" >
   <i type="logical" name="LUSE_VDW"> F  </i>
   <i name="Zab_VDW">     -0.84910000</i>
   <i name="PARAM1">      0.12340000</i>
   <i name="PARAM2">      1.00000000</i>
   <i name="PARAM3">      0.00000000</i>
  </separator>
  <separator name="model GW" >
   <i type="int" name="MODEL_GW">     0</i>
   <i name="MODEL_EPS0">      8.66738418</i>
   <i name="MODEL_ALPHA">      1.00000000</i>
  </separator>
  <separator name="linear response parameters" >
   <i type="logical" name="LEPSILON"> F  </i>
   <i type="logical" name="LRPA"> F  </i>
   <i type="logical" name="LNABLA"> F  </i>
   <i type="logical" name="LVEL"> F  </i>
   <i type="int" name="KINTER">     0</i>
   <i name="CSHIFT">      0.10000000</i>
   <i name="OMEGAMAX">     -1.00000000</i>
   <i name="DEG_THRESHOLD">      0.00200000</i>
  </separator>
  <separator name="orbital magnetization" >
   <i type="logical" name="NUCIND"> F  </i>
   <v name="MAGPOS">      0.00000000      0.00000000      0.00000000</v>
   <i type="logical" name="LNICSALL"> T  </i>
   <i type="logical" name="ORBITALMAG"> F  </i>
   <i type="logical" name="LMAGBLOCH"> F  </i>
   <i type="logical" name="LCHIMAG"> F  </i>
   <i type="logical" name="LGAUGE"> T  </i>
   <i type="int" name="MAGATOM">     0</i>
   <v name="MAGDIPOL">      0.00000000      0.00000000      0.00000000</v>
   <v name="AVECCONST">      0.00000000      0.00000000      0.00000000</v>
  </separator>
  <separator name="response functions" >
   <i type="logical" name="LADDER"> F  </i>
   <i type="logical" name="LFXC"> F  </i>
   <i type="logical" name="LHARTREE"> T  </i>
   <i type="int" name="IBSE">     0</i>
   <v type="int" name="KPOINT">    -1     0     0     0</v>
   <i type="logical" name="LTCTE"> F  </i>
   <i type="logical" name="LTETE"> F  </i>
   <i type="logical" name="LTRIPLET"> F  </i>
   <i type="logical" name="LFXCEPS"> F  </i>
   <i type="logical" name="LFXHEG"> F  </i>
   <i type="int" name="NATURALO">     0</i>
   <i type="logical" name="L2ORDER"> F  </i>
   <i type="logical" name="LUSEW"> F  </i>
   <i name="ENCUTGW">     -2.00000000</i>
   <i name="ENCUTGWSOFT">     -2.00000000</i>
   <i name="ENCUTLF">     -1.00000000</i>
   <i type="int" name="LMAXMP2">    -1</i>
   <i name="SCISSOR">      0.00000000</i>
   <i type="int" name="NOMEGA">     0</i>
   <i type="int" name="NOMEGAR">     0</i>
   <i type="int" name="NBANDSGW">    -1</i>
   <i type="int" name="NBANDSO">    -1</i>
   <i type="int" name="NBANDSV">    -1</i>
   <i type="int" name="NELM">     1</i>
   <i type="int" name="NELMHF">     1</i>
   <i type="int" name="DIM">     3</i>
   <i type="int" name="ANTIRES">     0</i>
   <i name="OMEGAMAX">    -30.00000000</i>
   <i name="OMEGAMIN">    -30.00000000</i>
   <i name="OMEGATL">   -200.00000000</i>
   <i type="int" name="OMEGAGRID">     0</i>
   <i name="CSHIFT">     -0.10000000</i>
   <i type="logical" name="SELFENERGY"> F  </i>
   <i type="logical" name="LSPECTRAL"> F  </i>
   <i type="logical" name="LSPECTRALGW"> F  </i>
   <i type="logical" name="LSINGLES"> F  </i>
   <i type="logical" name="LFERMIGW"> F  </i>
   <i type="logical" name="ODDONLYGW"> F  </i>
   <i type="logical" name="EVENONLYGW"> F  </i>
   <i type="int" name="NKREDLFX">     1</i>
   <i type="int" name="NKREDLFY">     1</i>
   <i type="int" name="NKREDLFZ">     1</i>
   <i type="int" name="MAXMEM">  1800</i>
   <i type="int" name="TELESCOPE">     0</i>
   <i type="int" name="TAUPAR">     1</i>
   <i type="int" name="OMEGAPAR">    -1</i>
   <i name="LAMBDA">      1.00000000</i>
  </separator>
  <separator name="External order field" >
   <i name="OFIELD_KAPPA">      0.00000000</i>
   <v name="OFIELD_K">      0.00000000      0.00000000      0.00000000</v>
   <i name="OFIELD_Q6_NEAR">      0.00000000</i>
   <i name="OFIELD_Q6_FAR">      0.00000000</i>
   <i name="OFIELD_A">      0.00000000</i>
  </separator>
 </parameters>
 <atominfo>
  <atoms>      32 </atoms>
  <types>       2 </types>
  <array name="atoms" >
   <dimension dim="1">ion</dimension>
   <field type="string">element</field>
   <field type="int">atomtype</field>
   <set>
    <rc><c>Ir</c><c>   1</c></rc>
    <rc><c>Ir</c><c>   1</c></rc>
    <rc><c>Ir</c><c>   1</c></rc>
    <rc><c>Ir</c><c>   1</c></rc>
    <rc><c>Ir</c><c>   1</c></rc>
    <rc><c>Ir</c><c>   1</c></rc>
    <rc><c>Ir</c><c>   1</c></rc>
    <rc><c>Ir</c><c>   1</c></rc>
    <rc><c>Ir</c><c>   1</c></rc>
    <rc><c>Ir</c><c>   1</c></rc>
    <rc><c>Ir</c><c>   1</c></rc>
    <rc><c>Ir</c><c>   1</c></rc>
    <rc><c>Ir</c><c>   1</c></rc>
    <rc><c>Ir</c><c>   1</c></rc>
    <rc><c>Ir</c><c>   1</c></rc>
    <rc><c>Ir</c><c>   1</c></rc>
    <rc><c>Ir</c><c>   1</c></rc>
    <rc><c>Ir</c><c>   1</c></rc>
    <rc><c>Ir</c><c>   1</c></rc>
    <rc><c>Ir</c><c>   1</c></rc>
    <rc><c>Ir</c><c>   1</c></rc>
    <rc><c>Ir</c><c>   1</c></rc>
    <rc><c>Ir</c><c>   1</c></rc>
    <rc><c>Ir</c><c>   1</c></rc>
    <rc><c>Ir</c><c>   1</c></rc>
    <rc><c>Ir</c><c>   1</c></rc>
    <rc><c>Ir</c><c>   1</c></rc>
    <rc><c>Ir</c><c>   1</c></rc>
    <rc><c>Ru</c><c>   2</c></rc>
    <rc><c>Ru</c><c>   2</c></rc>
    <rc><c>Ru</c><c>   2</c></rc>
    <rc><c>Ru</c><c>   2</c></rc>
   </set>
  </array>
  <array name="atomtypes" >
   <dimension dim="1">type</dimension>
   <field type="int">atomspertype</field>
   <field type="string">element</field>
   <field>mass</field>
   <field>valence</field>
   <field type="string">pseudopotential</field>
   <set>
    <rc><c>  28</c><c>Ir</c><c>    192.22000000</c><c>      9.00000000</c><c> PAW_PBE Ir 06Sep2000                   </c></rc>
    <rc><c>   4</c><c>Ru</c><c>    101.07000000</c><c>      8.00000000</c><c> PAW_PBE Ru 06Sep2000                   </c></rc>
   </set>
  </array>
 </atominfo>
 <structure name="initialpos" >
  <crystal>
   <varray name="basis" >
    <v>      -3.86567496       3.86567496      -3.86528649 </v>
    <v>       3.86567496      -3.86567496      -3.86528649 </v>
    <v>      -7.73427770      -7.73427770       0.00000000 </v>
   </varray>
   <i name="volume">    462.26048971 </i>
   <varray name="rec_basis" >
    <v>      -0.06467176       0.06467176      -0.12935652 </v>
    <v>       0.06467176      -0.06467176      -0.12935652 </v>
    <v>      -0.06464728      -0.06464728       0.00000000 </v>
   </varray>
  </crystal>
  <varray name="positions" >
   <v>       0.25085113       0.74914887       0.75000000 </v>
   <v>       0.74914887       0.25085113       0.75000000 </v>
   <v>       0.00000000       0.00000000       0.50009018 </v>
   <v>       0.00000000       0.00000000       0.99990982 </v>
   <v>       0.12632243       0.37553737       0.62407351 </v>
   <v>       0.62446263       0.87367757       0.62407351 </v>
   <v>       0.37638699       0.12554412       0.37407557 </v>
   <v>       0.12554412       0.37638699       0.12592443 </v>
   <v>       0.62361301       0.87445588       0.12592443 </v>
   <v>       0.37553737       0.12632243       0.87592649 </v>
   <v>       0.87445588       0.62361301       0.37407557 </v>
   <v>       0.87367757       0.62446263       0.87592649 </v>
   <v>       0.87367757       0.62446263       0.62407351 </v>
   <v>       0.37553737       0.12632243       0.62407351 </v>
   <v>       0.12554412       0.37638699       0.37407557 </v>
   <v>       0.87445588       0.62361301       0.12592443 </v>
   <v>       0.37638699       0.12554412       0.12592443 </v>
   <v>       0.12632243       0.37553737       0.87592649 </v>
   <v>       0.62361301       0.87445588       0.37407557 </v>
   <v>       0.62446263       0.87367757       0.87592649 </v>
   <v>       0.25068088       0.74931912       0.49851556 </v>
   <v>       0.74931912       0.25068088       0.49851556 </v>
   <v>       0.50000000       0.50000000       0.25000000 </v>
   <v>       0.25068088       0.74931912       0.00148444 </v>
   <v>       0.74931912       0.25068088       0.00148444 </v>
   <v>       0.50000000       0.50000000       0.75000000 </v>
   <v>       0.00000000       0.00000000       0.25000000 </v>
   <v>       0.00000000       0.00000000       0.75000000 </v>
   <v>       0.50000000       0.50000000       0.50027623 </v>
   <v>       0.25101056       0.74898944       0.25000000 </v>
   <v>       0.74898944       0.25101056       0.25000000 </v>
   <v>       0.50000000       0.50000000       0.99972377 </v>
  </varray>
 </structure>
 <calculation>
  <scstep>
   <time name="diag">    3.04    3.05</time>
   <time name="diis">    4.32    4.32</time>
   <time name="orth">    0.51    0.52</time>
   <time name="total">    8.08    8.09</time>
   <energy>
    <i name="alphaZ">   2438.04940209 </i>
    <i name="ewald"> -21534.72466978 </i>
    <i name="hartreedc">  -1300.52837887 </i>
    <i name="XCdc">   -603.02955687 </i>
    <i name="pawpsdc">  14330.81783551 </i>
    <i name="pawaedc"> -12993.64689275 </i>
    <i name="eentropy">      0.00000000 </i>
    <i name="bandstr">   3962.38900568 </i>
    <i name="atom">  17504.15418565 </i>
    <i name="e_fr_energy">   1803.48093067 </i>
    <i name="e_wo_entrp">   1803.48093067 </i>
    <i name="e_0_energy">   1803.48093067 </i>
   </energy>
  </scstep>
  <scstep>
   <time name="diag">    3.42    3.69</time>
   <time name="diis">    4.31    4.31</time>
   <time name="orth">    0.51    0.52</time>
   <time name="total">    8.43    8.70</time>
   <energy>
    <i name="e_fr_energy">    191.55264859 </i>
    <i name="e_wo_entrp">    191.55264859 </i>
    <i name="e_0_energy">    191.55264859 </i>
   </energy>
  </scstep>
  <scstep>
   <time name="diag">    3.03    3.03</time>
   <time name="diis">    4.30    4.30</time>
   <time name="orth">    0.52    0.52</time>
   <time name="total">    8.03    8.02</time>
   <energy>
    <i name="e_fr_energy">   -126.99416963 </i>
    <i name="e_wo_entrp">   -126.99416963 </i>
    <i name="e_0_energy">   -126.99416963 </i>
   </energy>
  </scstep>
  <scstep>
   <time name="diag">    3.32    3.47</time>
   <time name="diis">    4.34    4.34</time>
   <time name="orth">    0.52    0.52</time>
   <time name="total">    8.34    8.49</time>
   <energy>
    <i name="e_fr_energy">   -234.82042055 </i>
    <i name="e_wo_entrp">   -234.82042055 </i>
    <i name="e_0_energy">   -234.82042055 </i>
   </energy>
  </scstep>
  <scstep>
   <time name="diag">    3.03    3.03</time>
   <time name="diis">    4.31    4.31</time>
   <time name="orth">    0.89    1.14</time>
   <time name="total">    8.38    8.63</time>
   <energy>
    <i name="e_fr_energy">   -269.13696571 </i>
    <i name="e_wo_entrp">   -269.13696571 </i>
    <i name="e_0_energy">   -269.13696571 </i>
   </energy>
  </scstep>
  <scstep>
   <time name="diag">    3.03    3.03</time>
   <time name="diis">    4.31    4.31</time>
   <time name="orth">    0.51    0.51</time>
   <time name="total">    8.01    8.01</time>
   <energy>
    <i name="e_fr_energy">   -285.72869990 </i>
    <i name="e_wo_entrp">   -285.72869990 </i>
    <i name="e_0_energy">   -285.72869990 </i>
   </energy>
  </scstep>
  <scstep>
   <time name="diag">    3.03    3.03</time>
   <time name="diis">    4.27    4.61</time>
   <time name="orth">    0.51    0.51</time>
   <time name="total">    7.97    8.30</time>
   <energy>
    <i name="e_fr_energy">   -293.75027200 </i>
    <i name="e_wo_entrp">   -293.75027200 </i>
    <i name="e_0_energy">   -293.75027200 </i>
   </energy>
  </scstep>
  <scstep>
   <time name="diag">    3.03    3.03</time>
   <time name="diis">    4.31    4.31</time>
   <time name="orth">    0.51    0.51</time>
   <time name="total">    8.00    7.99</time>
   <energy>
    <i name="e_fr_energy">   -298.21246569 </i>
    <i name="e_wo_entrp">   -298.21246569 </i>
    <i name="e_0_energy">   -298.21246569 </i>
   </energy>
  </scstep>
  <scstep>
   <time name="diag">    3.03    3.03</time>
   <time name="diis">   10.87   11.09</time>
   <time name="orth">    0.52    0.52</time>
   <time name="total">   14.58   14.79</time>
   <energy>
    <i name="e_fr_energy">   -303.66335470 </i>
    <i name="e_wo_entrp">   -303.66335470 </i>
    <i name="e_0_energy">   -303.66335470 </i>
   </energy>
  </scstep>
  <scstep>
   <time name="diag">    3.03    3.03</time>
   <time name="diis">   11.40   11.63</time>
   <time name="orth">    0.51    0.51</time>
   <time name="total">   15.08   15.32</time>
   <energy>
    <i name="e_fr_energy">   -304.21238920 </i>
    <i name="e_wo_entrp">   -304.21238920 </i>
    <i name="e_0_energy">   -304.21238920 </i>
   </energy>
  </scstep>
  <scstep>
   <time name="diag">    3.04    3.03</time>
   <time name="diis">   11.40   11.64</time>
   <time name="orth">    0.52    0.52</time>
   <time name="total">   15.10   15.34</time>
   <energy>
    <i name="e_fr_energy">   -304.28270750 </i>
    <i name="e_wo_entrp">   -304.28270750 </i>
    <i name="e_0_energy">   -304.28270750 </i>
   </energy>
  </scstep>
  <scstep>
   <time name="diag">    3.03    3.03</time>
   <time name="diis">   11.43   11.68</time>
   <time name="orth">    0.51    0.52</time>
   <time name="total">   15.49   15.73</time>
   <energy>
    <i name="e_fr_energy">   -304.29043310 </i>
    <i name="e_wo_entrp">   -304.29043310 </i>
    <i name="e_0_energy">   -304.29043310 </i>
   </energy>
  </scstep>
  <scstep>
   <time name="diag">    3.03    3.03</time>
   <time name="diis">    8.98    9.24</time>
   <time name="orth">    0.51    0.51</time>
   <time name="total">   13.07   13.33</time>
   <energy>
    <i name="e_fr_energy">   -292.99212982 </i>
    <i name="e_wo_entrp">   -292.99212982 </i>
    <i name="e_0_energy">   -292.99212982 </i>
   </energy>
  </scstep>
  <scstep>
   <time name="diag">    3.02    3.02</time>
   <time name="diis">    9.12    9.24</time>
   <time name="orth">    0.51    0.52</time>
   <time name="total">   13.20   13.32</time>
   <energy>
    <i name="e_fr_energy">   -292.54605027 </i>
    <i name="e_wo_entrp">   -292.54605027 </i>
    <i name="e_0_energy">   -292.54605027 </i>
   </energy>
  </scstep>
  <scstep>
   <time name="diag">    3.03    3.03</time>
   <time name="diis">    9.09    9.28</time>
   <time name="orth">    0.51    0.51</time>
   <time name="total">   13.18   13.37</time>
   <energy>
    <i name="e_fr_energy">   -287.41472071 </i>
    <i name="e_wo_entrp">   -287.41472071 </i>
    <i name="e_0_energy">   -287.41472071 </i>
   </energy>
  </scstep>
  <scstep>
   <time name="diag">    3.02    3.03</time>
   <time name="diis">    9.09    9.26</time>
   <time name="orth">    0.51    0.51</time>
   <time name="total">   13.18   13.34</time>
   <energy>
    <i name="e_fr_energy">   -285.56775721 </i>
    <i name="e_wo_entrp">   -285.56775721 </i>
    <i name="e_0_energy">   -285.56775721 </i>
   </energy>
  </scstep>
  <scstep>
   <time name="diag">    3.03    3.03</time>
   <time name="diis">    9.77    9.96</time>
   <time name="orth">    0.51    0.52</time>
   <time name="total">   13.85   14.04</time>
   <energy>
    <i name="e_fr_energy">   -285.49004590 </i>
    <i name="e_wo_entrp">   -285.49004590 </i>
    <i name="e_0_energy">   -285.49004590 </i>
   </energy>
  </scstep>
  <scstep>
   <time name="diag">    3.02    3.02</time>
   <time name="diis">    9.34    9.58</time>
   <time name="orth">    0.52    0.52</time>
   <time name="total">   13.41   13.65</time>
   <energy>
    <i name="e_fr_energy">   -285.42592917 </i>
    <i name="e_wo_entrp">   -285.42592917 </i>
    <i name="e_0_energy">   -285.42592917 </i>
   </energy>
  </scstep>
  <scstep>
   <time name="diag">    3.03    3.03</time>
   <time name="diis">    9.61    9.70</time>
   <time name="orth">    0.82    0.85</time>
   <time name="total">   14.01   14.13</time>
   <energy>
    <i name="e_fr_energy">   -285.40565001 </i>
    <i name="e_wo_entrp">   -285.40565001 </i>
    <i name="e_0_energy">   -285.40565001 </i>
   </energy>
  </scstep>
  <scstep>
   <time name="diag">    3.03    3.03</time>
   <time name="diis">    9.37    9.38</time>
   <time name="orth">    0.51    0.51</time>
   <time name="total">   13.45   13.69</time>
   <energy>
    <i name="e_fr_energy">   -285.39456476 </i>
    <i name="e_wo_entrp">   -285.39456476 </i>
    <i name="e_0_energy">   -285.39456476 </i>
   </energy>
  </scstep>
  <scstep>
   <time name="diag">    3.23    3.24</time>
   <time name="diis">    9.81    9.81</time>
   <time name="orth">    0.51    0.52</time>
   <time name="total">   14.09   14.11</time>
   <energy>
    <i name="e_fr_energy">   -285.39356515 </i>
    <i name="e_wo_entrp">   -285.39356515 </i>
    <i name="e_0_energy">   -285.39356515 </i>
   </energy>
  </scstep>
  <scstep>
   <time name="diag">    3.59    3.68</time>
   <time name="diis">   10.38   10.39</time>
   <time name="orth">    0.52    0.52</time>
   <time name="total">   15.02   15.12</time>
   <energy>
    <i name="e_fr_energy">   -285.39323670 </i>
    <i name="e_wo_entrp">   -285.39323670 </i>
    <i name="e_0_energy">   -285.39323670 </i>
   </energy>
  </scstep>
  <scstep>
   <time name="diag">    3.24    3.47</time>
   <time name="diis">   10.17   10.18</time>
   <time name="orth">    0.51    0.52</time>
   <time name="total">   14.09   14.32</time>
   <energy>
    <i name="alphaZ">   2438.04940209 </i>
    <i name="ewald"> -21534.72466978 </i>
    <i name="hartreedc">   -999.43007783 </i>
    <i name="XCdc">   -606.14936758 </i>
    <i name="pawpsdc">  16165.54530866 </i>
    <i name="pawaedc"> -14922.63687084 </i>
    <i name="eentropy">      0.00000000 </i>
    <i name="bandstr">   1669.79887840 </i>
    <i name="atom">  17504.15418565 </i>
    <i name="e_fr_energy">   -285.39321121 </i>
    <i name="e_wo_entrp">   -285.39321121 </i>
    <i name="e_0_energy">   -285.39321121 </i>
   </energy>
  </scstep>
  <structure>
   <crystal>
    <varray name="basis" >
     <v>      -3.86567496       3.86567496      -3.86528649 </v>
     <v>       3.86567496      -3.86567496      -3.86528649 </v>
     <v>      -7.73427770      -7.73427770       0.00000000 </v>
    </varray>
    <i name="volume">    462.26048971 </i>
    <varray name="rec_basis" >
     <v>      -0.06467176       0.06467176      -0.12935652 </v>
     <v>       0.06467176      -0.06467176      -0.12935652 </v>
     <v>      -0.06464728      -0.06464728       0.00000000 </v>
    </varray>
   </crystal>
   <varray name="positions" >
    <v>       0.25085113       0.74914887       0.75000000 </v>
    <v>       0.74914887       0.25085113       0.75000000 </v>
    <v>       0.00000000       0.00000000       0.50009018 </v>
    <v>       0.00000000       0.00000000       0.99990982 </v>
    <v>       0.12632243       0.37553737       0.62407351 </v>
    <v>       0.62446263       0.87367757       0.62407351 </v>
    <v>       0.37638699       0.12554412       0.37407557 </v>
    <v>       0.12554412       0.37638699       0.12592443 </v>
    <v>       0.62361301       0.87445588       0.12592443 </v>
    <v>       0.37553737       0.12632243       0.87592649 </v>
    <v>       0.87445588       0.62361301       0.37407557 </v>
    <v>       0.87367757       0.62446263       0.87592649 </v>
    <v>       0.87367757       0.62446263       0.62407351 </v>
    <v>       0.37553737       0.12632243       0.62407351 </v>
    <v>       0.12554412       0.37638699       0.37407557 </v>
    <v>       0.87445588       0.62361301       0.12592443 </v>
    <v>       0.37638699       0.12554412       0.12592443 </v>
    <v>       0.12632243       0.37553737       0.87592649 </v>
    <v>       0.62361301       0.87445588       0.37407557 </v>
    <v>       0.62446263       0.87367757       0.87592649 </v>
    <v>       0.25068088       0.74931912       0.49851556 </v>
    <v>       0.74931912       0.25068088       0.49851556 </v>
    <v>       0.50000000       0.50000000       0.25000000 </v>
    <v>       0.25068088       0.74931912       0.00148444 </v>
    <v>       0.74931912       0.25068088       0.00148444 </v>
    <v>       0.50000000       0.50000000       0.75000000 </v>
    <v>       0.00000000       0.00000000       0.25000000 </v>
    <v>       0.00000000       0.00000000       0.75000000 </v>
    <v>       0.50000000       0.50000000       0.50027623 </v>
    <v>       0.25101056       0.74898944       0.25000000 </v>
    <v>       0.74898944       0.25101056       0.25000000 </v>
    <v>       0.50000000       0.50000000       0.99972377 </v>
   </varray>
  </structure>
  <varray name="forces" >
   <v>      -0.00193067       0.00193067       0.00000000 </v>
   <v>       0.00193067      -0.00193067       0.00000000 </v>
   <v>      -0.00418562      -0.00418562       0.00000000 </v>
   <v>       0.00418562       0.00418562       0.00000000 </v>
   <v>       0.00361851       0.00035769      -0.00827965 </v>
   <v>       0.00361851       0.00035769       0.00827965 </v>
   <v>      -0.00385667       0.00771388      -0.00901470 </v>
   <v>       0.00385667      -0.00771388      -0.00901470 </v>
   <v>       0.00385667      -0.00771388       0.00901470 </v>
   <v>      -0.00361851      -0.00035769      -0.00827965 </v>
   <v>      -0.00385667       0.00771388       0.00901470 </v>
   <v>      -0.00361851      -0.00035769       0.00827965 </v>
   <v>       0.00035769       0.00361851       0.00827965 </v>
   <v>       0.00035769       0.00361851      -0.00827965 </v>
   <v>       0.00771388      -0.00385667      -0.00901470 </v>
   <v>      -0.00771388       0.00385667       0.00901470 </v>
   <v>      -0.00771388       0.00385667      -0.00901470 </v>
   <v>      -0.00035769      -0.00361851      -0.00827965 </v>
   <v>       0.00771388      -0.00385667       0.00901470 </v>
   <v>      -0.00035769      -0.00361851       0.00827965 </v>
   <v>       0.00144912       0.00511321       0.00000000 </v>
   <v>       0.00511321       0.00144912       0.00000000 </v>
   <v>       0.00000000       0.00000000       0.00000000 </v>
   <v>      -0.00511321      -0.00144912       0.00000000 </v>
   <v>      -0.00144912      -0.00511321       0.00000000 </v>
   <v>       0.00000000       0.00000000       0.00000000 </v>
   <v>       0.00000000       0.00000000       0.00000000 </v>
   <v>       0.00000000       0.00000000       0.00000000 </v>
   <v>      -0.00450609      -0.00450609       0.00000000 </v>
   <v>      -0.00372098       0.00372098       0.00000000 </v>
   <v>       0.00372098      -0.00372098       0.00000000 </v>
   <v>       0.00450609       0.00450609       0.00000000 </v>
  </varray>
  <varray name="stress" >
   <v>     -25.59771138       0.18365149       0.00000000 </v>
   <v>       0.18365149     -25.59771138       0.00000000 </v>
   <v>      -0.00000000       0.00000000     -26.13209958 </v>
  </varray>
  <energy>
   <i name="e_fr_energy">   -285.39321121 </i>
   <i name="e_wo_entrp">   -285.39321121 </i>
   <i name="e_0_energy">      0.00000000 </i>
  </energy>
  <time name="totalsc">  301.53  305.70</time>
  <eigenvalues>
   <array>
    <dimension dim="1">band</dimension>
    <dimension dim="2">kpoint</dimension>
    <dimension dim="3">spin</dimension>
    <field>eigene</field>
    <field>occ</field>
    <set>
     <set comment="spin 1">
      <set comment="kpoint 1">
       <r>   -0.7119    1.0000 </r>
       <r>    0.9291    1.0000 </r>
       <r>    0.9563    1.0000 </r>
       <r>    2.2503    1.0000 </r>
       <r>    2.3631    1.0000 </r>
       <r>    2.3637    1.0000 </r>
       <r>    2.4554    1.0000 </r>
       <r>    2.4676    1.0000 </r>
       <r>    2.6530    1.0000 </r>
       <r>    2.6951    1.0000 </r>
       <r>    2.8457    1.0000 </r>
       <r>    2.8725    1.0000 </r>
       <r>    2.8856    1.0000 </r>
       <r>    3.2185    1.0000 </r>
       <r>    3.2445    1.0000 </r>
       <r>    3.3329    1.0000 </r>
       <r>    3.3594    1.0000 </r>
       <r>    3.3640    1.0000 </r>
       <r>    3.3758    1.0000 </r>
       <r>    3.5223    1.0000 </r>
       <r>    3.5414    1.0000 </r>
       <r>    3.5957    1.0000 </r>
       <r>    3.6030    1.0000 </r>
       <r>    3.7055    1.0000 </r>
       <r>    3.7237    1.0000 </r>
       <r>    3.7371    1.0000 </r>
       <r>    3.7499    1.0000 </r>
       <r>    3.7511    1.0000 </r>
       <r>    3.7539    1.0000 </r>
       <r>    3.7584    1.0000 </r>
       <r>    3.7666    1.0000 </r>
       <r>    3.8001    1.0000 </r>
       <r>    3.8138    1.0000 </r>
       <r>    3.9055    1.0000 </r>
       <r>    3.9609    1.0000 </r>
       <r>    4.0357    1.0000 </r>
       <r>    4.1681    1.0000 </r>
       <r>    4.2056    1.0000 </r>
       <r>    4.3115    1.0000 </r>
       <r>    4.3357    1.0000 </r>
       <r>    4.3564    1.0000 </r>
       <r>    4.8240    1.0000 </r>
       <r>    4.8284    1.0000 </r>
       <r>    4.9283    1.0000 </r>
       <r>    4.9579    1.0000 </r>
       <r>    5.0340    1.0000 </r>
       <r>    5.0360    1.0000 </r>
       <r>    5.0368    1.0000 </r>
       <r>    5.1243    1.0000 </r>
       <r>    5.1305    1.0000 </r>
       <r>    5.1363    1.0000 </r>
       <r>    5.1909    1.0000 </r>
       <r>    5.2062    1.0000 </r>
       <r>    5.2087    1.0000 </r>
       <r>    5.2333    1.0000 </r>
       <r>    5.2338    1.0000 </r>
       <r>    5.2383    1.0000 </r>
       <r>    5.4033    1.0000 </r>
       <r>    5.4489    1.0000 </r>
       <r>    5.4724    1.0000 </r>
       <r>    5.4795    1.0000 </r>
       <r>    5.4884    1.0000 </r>
       <r>    5.4913    1.0000 </r>
       <r>    5.4914    1.0000 </r>
       <r>    5.4920    1.0000 </r>
       <r>    5.4933    1.0000 </r>
       <r>    5.5182    1.0000 </r>
       <r>    5.5565    1.0000 </r>
       <r>    5.5578    1.0000 </r>
       <r>    5.5715    1.0000 </r>
       <r>    5.7040    1.0000 </r>
       <r>    5.7078    1.0000 </r>
       <r>    5.8104    1.0000 </r>
       <r>    5.8368    1.0000 </r>
       <r>    5.8966    1.0000 </r>
       <r>    6.0038    1.0000 </r>
       <r>    6.0143    1.0000 </r>
       <r>    6.1477    1.0000 </r>
       <r>    6.1790    1.0000 </r>
       <r>    6.1810    1.0000 </r>
       <r>    6.2027    1.0000 </r>
       <r>    6.2765    1.0000 </r>
       <r>    6.4479    1.0000 </r>
       <r>    6.4513    1.0000 </r>
       <r>    6.5601    1.0000 </r>
       <r>    6.5612    1.0000 </r>
       <r>    6.5629    1.0000 </r>
       <r>    6.5771    1.0000 </r>
       <r>    6.6691    1.0000 </r>
       <r>    6.6779    1.0000 </r>
       <r>    6.8602    1.0000 </r>
       <r>    6.8792    1.0000 </r>
       <r>    6.8815    1.0000 </r>
       <r>    6.8832    1.0000 </r>
       <r>    6.9217    1.0000 </r>
       <r>    6.9434    1.0000 </r>
       <r>    6.9468    1.0000 </r>
       <r>    6.9688    1.0000 </r>
       <r>    7.1799    1.0000 </r>
       <r>    7.1815    1.0000 </r>
       <r>    7.3520    1.0000 </r>
       <r>    7.3568    1.0000 </r>
       <r>    7.4481    1.0000 </r>
       <r>    7.4949    1.0000 </r>
       <r>    7.5053    1.0000 </r>
       <r>    7.5083    1.0000 </r>
       <r>    7.5087    1.0000 </r>
       <r>    7.5102    1.0000 </r>
       <r>    7.5102    1.0000 </r>
       <r>    7.5115    1.0000 </r>
       <r>    7.5209    1.0000 </r>
       <r>    7.5345    1.0000 </r>
       <r>    7.5752    1.0000 </r>
       <r>    7.8019    1.0000 </r>
       <r>    7.8770    1.0000 </r>
       <r>    7.9189    1.0000 </r>
       <r>    8.0337    1.0000 </r>
       <r>    8.0590    1.0000 </r>
       <r>    8.5079    1.0000 </r>
       <r>    8.5104    1.0000 </r>
       <r>    8.5136    1.0000 </r>
       <r>    8.5540    1.0000 </r>
       <r>    8.5542    1.0000 </r>
       <r>    8.5580    1.0000 </r>
       <r>    8.6759    1.0000 </r>
       <r>    8.6771    1.0000 </r>
       <r>    8.6786    1.0000 </r>
       <r>    8.6852    1.0000 </r>
       <r>    8.6885    1.0000 </r>
       <r>    8.6960    1.0000 </r>
       <r>    8.7583    1.0000 </r>
       <r>    8.7660    1.0000 </r>
       <r>    9.0752    1.0000 </r>
       <r>    9.0773    1.0000 </r>
       <r>    9.2348    1.0000 </r>
       <r>    9.2510    1.0000 </r>
       <r>    9.5061    1.0000 </r>
       <r>    9.5173    1.0000 </r>
       <r>    9.5259    1.0000 </r>
       <r>    9.5298    1.0000 </r>
       <r>   10.0435    0.2793 </r>
       <r>   10.0470   -0.4679 </r>
       <r>   10.0654   -0.0842 </r>
       <r>   10.0667   -0.0314 </r>
       <r>   10.0761    0.0000 </r>
       <r>   10.0778    0.0000 </r>
       <r>   10.1041    0.0000 </r>
       <r>   10.1083    0.0000 </r>
       <r>   10.3182    0.0000 </r>
       <r>   10.3195    0.0000 </r>
       <r>   10.3379    0.0000 </r>
       <r>   10.3468    0.0000 </r>
       <r>   10.4233    0.0000 </r>
       <r>   10.4245    0.0000 </r>
       <r>   10.4741    0.0000 </r>
       <r>   10.4804    0.0000 </r>
       <r>   10.4809    0.0000 </r>
       <r>   10.4952    0.0000 </r>
       <r>   10.6733    0.0000 </r>
       <r>   10.7360    0.0000 </r>
       <r>   10.7384    0.0000 </r>
       <r>   11.2445    0.0000 </r>
       <r>   11.2446    0.0000 </r>
       <r>   11.2457    0.0000 </r>
       <r>   11.3113    0.0000 </r>
       <r>   11.3124    0.0000 </r>
       <r>   11.3151    0.0000 </r>
       <r>   11.7577    0.0000 </r>
       <r>   11.7607    0.0000 </r>
       <r>   11.7720    0.0000 </r>
       <r>   12.6296    0.0000 </r>
       <r>   12.6335    0.0000 </r>
       <r>   12.6456    0.0000 </r>
       <r>   12.6613    0.0000 </r>
       <r>   12.6776    0.0000 </r>
       <r>   12.6975    0.0000 </r>
       <r>   12.7148    0.0000 </r>
       <r>   12.7823    0.0000 </r>
       <r>   12.8408    0.0000 </r>
       <r>   12.8720    0.0000 </r>
      </set>
      <set comment="kpoint 2">
       <r>   -0.6282    1.0000 </r>
       <r>    0.9842    1.0000 </r>
       <r>    1.0122    1.0000 </r>
       <r>    2.1782    1.0000 </r>
       <r>    2.2324    1.0000 </r>
       <r>    2.3721    1.0000 </r>
       <r>    2.4158    1.0000 </r>
       <r>    2.4235    1.0000 </r>
       <r>    2.7673    1.0000 </r>
       <r>    2.8600    1.0000 </r>
       <r>    2.8955    1.0000 </r>
       <r>    2.9312    1.0000 </r>
       <r>    2.9616    1.0000 </r>
       <r>    3.1738    1.0000 </r>
       <r>    3.2015    1.0000 </r>
       <r>    3.2734    1.0000 </r>
       <r>    3.2756    1.0000 </r>
       <r>    3.2980    1.0000 </r>
       <r>    3.3009    1.0000 </r>
       <r>    3.4069    1.0000 </r>
       <r>    3.4182    1.0000 </r>
       <r>    3.4525    1.0000 </r>
[...]
       <r>    8.7312    1.0000 </r>
       <r>    8.7341    1.0000 </r>
       <r>    8.7856    1.0000 </r>
       <r>    8.8422    1.0000 </r>
       <r>    8.8827    1.0000 </r>
       <r>    8.8863    1.0000 </r>
       <r>    8.9798    1.0000 </r>
       <r>    9.0024    1.0000 </r>
       <r>    9.0408    1.0000 </r>
       <r>    9.0997    1.0000 </r>
       <r>    9.1933    1.0000 </r>
       <r>    9.1973    1.0000 </r>
       <r>    9.2945    1.0000 </r>
       <r>    9.2973    1.0000 </r>
       <r>    9.2989    1.0000 </r>
       <r>    9.3080    1.0002 </r>
       <r>    9.3720    1.0493 </r>
       <r>    9.4222    1.0852 </r>
       <r>    9.4826    1.0991 </r>
       <r>    9.4891    1.1809 </r>
       <r>    9.8120    0.0082 </r>
       <r>    9.8826    0.0000 </r>
       <r>    9.9860    0.0000 </r>
       <r>   10.0650    0.0000 </r>
       <r>   10.2238    0.0000 </r>
       <r>   10.2256    0.0000 </r>
       <r>   10.5237    0.0000 </r>
       <r>   10.5519    0.0000 </r>
       <r>   10.5782    0.0000 </r>
       <r>   10.5822    0.0000 </r>
       <r>   10.6022    0.0000 </r>
       <r>   10.6338    0.0000 </r>
       <r>   10.6343    0.0000 </r>
       <r>   10.6712    0.0000 </r>
       <r>   10.6807    0.0000 </r>
       <r>   10.6908    0.0000 </r>
       <r>   10.7121    0.0000 </r>
       <r>   10.7423    0.0000 </r>
       <r>   10.7514    0.0000 </r>
       <r>   10.7528    0.0000 </r>
       <r>   10.8143    0.0000 </r>
       <r>   10.8190    0.0000 </r>
       <r>   10.8354    0.0000 </r>
       <r>   10.8398    0.0000 </r>
       <r>   10.8449    0.0000 </r>
       <r>   10.8671    0.0000 </r>
       <r>   10.8778    0.0000 </r>
       <r>   10.9415    0.0000 </r>
       <r>   11.0073    0.0000 </r>
       <r>   11.0089    0.0000 </r>
       <r>   11.0903    0.0000 </r>
       <r>   11.0916    0.0000 </r>
       <r>   12.0481    0.0000 </r>
       <r>   12.9484    0.0000 </r>
       <r>   15.2294    0.0000 </r>
       <r>   16.4796    0.0000 </r>
      </set>
     </set>
    </set>
   </array>
  </eigenvalues>
  <separator name="orbital magnetization" >
   <v name="MAGDIPOLOUT">      0.00000000      0.00000000      0.00000000</v>
  </separator>
  <dos>
   <i name="efermi">      9.75409855 </i>
   <total>
    <array>
     <dimension dim="1">gridpoints</dimension>
     <dimension dim="2">spin</dimension>
     <field>energy</field>
     <field>total</field>
     <field>integrated</field>
     <set>
      <set comment="spin 1">
       <r>    -1.7119     0.0000     0.0000 </r>
       <r>    -1.6453     0.0000     0.0000 </r>
       <r>    -1.5787     0.0000     0.0000 </r>
       <r>    -1.5121     0.0000     0.0000 </r>
       <r>    -1.4454     0.0000     0.0000 </r>
       <r>    -1.3788     0.0000     0.0000 </r>
       <r>    -1.3122     0.0000     0.0000 </r>
       <r>    -1.2455     0.0000     0.0000 </r>
       <r>    -1.1789     0.0000     0.0000 </r>
       <r>    -1.1123     0.0000     0.0000 </r>
       <r>    -1.0457     0.0000     0.0000 </r>
       <r>    -0.9790     0.0000     0.0000 </r>
       <r>    -0.9124     0.0000     0.0000 </r>
       <r>    -0.8458     0.0000     0.0000 </r>
       <r>    -0.7791     0.0000     0.0000 </r>
       <r>    -0.7125     0.0000     0.0000 </r>
       <r>    -0.6459     0.2858     0.0063 </r>
       <r>    -0.5792     0.6458     0.0410 </r>
       <r>    -0.5126     0.7787     0.0872 </r>
       <r>    -0.4460     1.0512     0.1466 </r>
       <r>    -0.3794     1.4209     0.2306 </r>
       <r>    -0.3127     1.2741     0.3166 </r>
       <r>    -0.2461     1.3120     0.4028 </r>
       <r>    -0.1795     1.3385     0.4912 </r>
       <r>    -0.1128     1.3271     0.5797 </r>
       <r>    -0.0462     1.3587     0.6692 </r>
       <r>     0.0204     1.6373     0.7661 </r>
       <r>     0.0870     1.7596     0.8831 </r>
       <r>     0.1537     1.9017     1.0050 </r>
       <r>     0.2203     2.0393     1.1363 </r>
       <r>     0.2869     2.1969     1.2773 </r>
       <r>     0.3536     2.4874     1.4330 </r>
       <r>     0.4202     2.7128     1.6082 </r>
       <r>     0.4868     2.6257     1.7854 </r>
       <r>     0.5534     2.6071     1.9602 </r>
       <r>     0.6201     2.5353     2.1313 </r>
       <r>     0.6867     2.4871     2.2969 </r>
       <r>     0.7533     2.6773     2.4687 </r>
       <r>     0.8200     2.9257     2.6547 </r>
       <r>     0.8866     3.2236     2.8631 </r>
       <r>     0.9532     3.5334     3.0861 </r>
       <r>     1.0198     3.5425     3.3284 </r>
       <r>     1.0865     3.3679     3.5597 </r>
       <r>     1.1531     3.5006     3.7869 </r>
       <r>     1.2197     3.4667     4.0300 </r>
       <r>     1.2864     3.3861     4.2579 </r>
       <r>     1.3530     3.6607     4.4906 </r>
       <r>     1.4196     4.1713     4.7569 </r>
       <r>     1.4862     4.2084     5.0355 </r>
       <r>     1.5529     5.1675     5.3584 </r>
       <r>     1.6195     5.3485     5.7092 </r>
       <r>     1.6861     5.2265     6.0636 </r>
       <r>     1.7528     6.0891     6.4476 </r>
       <r>     1.8194     6.1077     6.8602 </r>
       <r>     1.8860     6.2449     7.2761 </r>
       <r>     1.9527     6.0926     7.6826 </r>
       <r>     2.0193     7.3716     8.1186 </r>
       <r>     2.0859     8.5154     8.6589 </r>
       <r>     2.1525    13.3089     9.3980 </r>
       <r>     2.2192    17.5254    10.4486 </r>
       <r>     2.2858    16.1870    11.5609 </r>
       <r>     2.3524    15.3913    12.6151 </r>
       <r>     2.4191    17.9312    13.6918 </r>
       <r>     2.4857    22.6252    15.0670 </r>
       <r>     2.5523    22.9902    16.5624 </r>
       <r>     2.6189    20.5339    18.0439 </r>
       <r>     2.6856    21.0886    19.4123 </r>
       <r>     2.7522    27.0968    21.0307 </r>
       <r>     2.8188    32.8413    23.1028 </r>
       <r>     2.8855    28.7188    25.1183 </r>
       <r>     2.9521    31.5106    27.1978 </r>
       <r>     3.0187    30.6323    29.2934 </r>
       <r>     3.0853    35.3299    31.5751 </r>
       <r>     3.1520    35.3625    33.9023 </r>
       <r>     3.2186    42.1849    36.6194 </r>
       <r>     3.2852    38.9707    39.3255 </r>
       <r>     3.3519    42.3589    42.1371 </r>
       <r>     3.4185    44.2918    45.0029 </r>
       <r>     3.4851    41.0749    47.7570 </r>
       <r>     3.5517    47.2663    50.6011 </r>
       <r>     3.6184    46.0703    53.4916 </r>
       <r>     3.6850    40.9565    56.3149 </r>
       <r>     3.7516    32.3149    58.9298 </r>
       <r>     3.8183    30.2814    60.9880 </r>
       <r>     3.8849    37.1016    63.2217 </r>
       <r>     3.9515    37.0314    65.7071 </r>
       <r>     4.0181    36.9987    68.1926 </r>
       <r>     4.0848    38.0601    70.8248 </r>
       <r>     4.1514    32.3010    73.1445 </r>
       <r>     4.2180    30.3878    75.3482 </r>
       <r>     4.2847    27.2080    77.2857 </r>
       <r>     4.3513    25.1050    79.0724 </r>
       <r>     4.4179    26.1944    80.8121 </r>
       <r>     4.4846    29.0304    82.6740 </r>
       <r>     4.5512    31.0306    84.6759 </r>
       <r>     4.6178    32.8415    86.7423 </r>
       <r>     4.6844    38.5452    89.1604 </r>
       <r>     4.7511    34.8277    91.6140 </r>
       <r>     4.8177    36.1221    93.9436 </r>
       <r>     4.8843    36.3992    96.3858 </r>
       <r>     4.9510    36.6963    98.8344 </r>
       <r>     5.0176    39.2872   101.3605 </r>
       <r>     5.0842    36.5045   103.9140 </r>
       <r>     5.1508    38.1518   106.4522 </r>
       <r>     5.2175    31.4886   108.7812 </r>
       <r>     5.2841    42.9111   111.2057 </r>
       <r>     5.3507    28.2111   113.5443 </r>
       <r>     5.4174    39.7483   116.0519 </r>
       <r>     5.4840    41.0480   118.6232 </r>
       <r>     5.5506    38.2472   121.2993 </r>
       <r>     5.6172    44.0447   123.9628 </r>
       <r>     5.6839    41.5235   126.7260 </r>
       <r>     5.7505    45.8786   129.6046 </r>
       <r>     5.8171    43.8050   132.5592 </r>
       <r>     5.8838    43.5756   135.4790 </r>
       <r>     5.9504    43.4346   138.3773 </r>
       <r>     6.0170    41.9285   141.2696 </r>
       <r>     6.0836    44.9538   144.1655 </r>
       <r>     6.1503    45.8349   147.2441 </r>
       <r>     6.2169    47.4983   150.3854 </r>
       <r>     6.2835    57.5237   153.7930 </r>
       <r>     6.3502    55.3343   157.6461 </r>
       <r>     6.4168    54.9102   161.2232 </r>
       <r>     6.4834    51.7521   164.7907 </r>
       <r>     6.5501    59.1941   168.4824 </r>
       <r>     6.6167    65.7380   172.7305 </r>
       <r>     6.6833    63.0131   177.2080 </r>
       <r>     6.7499    58.5336   181.0033 </r>
       <r>     6.8166    45.3476   184.4744 </r>
       <r>     6.8832    37.7596   187.2257 </r>
       <r>     6.9498    38.4946   189.7606 </r>
       <r>     7.0165    37.4060   192.3758 </r>
       <r>     7.0831    38.2013   194.8573 </r>
       <r>     7.1497    35.9704   197.3620 </r>
       <r>     7.2163    34.1847   199.7032 </r>
       <r>     7.2830    30.6636   201.8059 </r>
       <r>     7.3496    33.0123   203.8980 </r>
       <r>     7.4162    36.3054   206.2201 </r>
       <r>     7.4829    34.5735   208.5493 </r>
       <r>     7.5495    29.3425   210.6608 </r>
       <r>     7.6161    30.4803   212.6184 </r>
       <r>     7.6827    28.9520   214.6399 </r>
       <r>     7.7494    32.2047   216.6361 </r>
       <r>     7.8160    33.6924   218.8227 </r>
       <r>     7.8826    36.7543   221.1350 </r>
       <r>     7.9493    35.4617   223.5658 </r>
       <r>     8.0159    36.3741   225.9459 </r>
       <r>     8.0825    39.3425   228.4735 </r>
       <r>     8.1491    42.5741   231.2873 </r>
       <r>     8.2158    40.9044   234.2342 </r>
       <r>     8.2824    38.6730   236.7999 </r>
       <r>     8.3490    35.8456   239.3638 </r>
       <r>     8.4157    33.4769   241.5842 </r>
       <r>     8.4823    33.2189   243.7633 </r>
       <r>     8.5489    35.2041   246.0690 </r>
       <r>     8.6155    36.1225   248.4992 </r>
       <r>     8.6822    33.7124   250.8153 </r>
       <r>     8.7488    37.2118   253.1793 </r>
       <r>     8.8154    34.2566   255.5821 </r>
       <r>     8.8821    31.9915   257.7878 </r>
       <r>     8.9487    33.4517   260.0326 </r>
       <r>     9.0153    29.6271   262.1581 </r>
       <r>     9.0820    27.9534   264.0940 </r>
       <r>     9.1486    25.1642   265.8400 </r>
       <r>     9.2152    29.0410   267.6576 </r>
       <r>     9.2818    31.2102   269.6175 </r>
       <r>     9.3485    28.7744   271.6520 </r>
       <r>     9.4151    27.7185   273.5821 </r>
       <r>     9.4817    27.2641   275.3929 </r>
       <r>     9.5484    29.9384   277.3143 </r>
       <r>     9.6150    32.7617   279.3523 </r>
       <r>     9.6816    34.8367   281.6746 </r>
       <r>     9.7482    30.0126   283.8194 </r>
       <r>     9.8149    27.5823   285.7357 </r>
       <r>     9.8815    26.5608   287.5732 </r>
       <r>     9.9481    29.2419   289.3519 </r>
       <r>    10.0148    31.6565   291.4954 </r>
       <r>    10.0814    32.0981   293.6043 </r>
       <r>    10.1480    32.6531   295.8579 </r>
       <r>    10.2146    37.5228   298.1418 </r>
       <r>    10.2813    40.2835   300.7930 </r>
       <r>    10.3479    45.1936   303.6533 </r>
       <r>    10.4145    46.6301   306.7248 </r>
       <r>    10.4812    51.5974   310.0041 </r>
       <r>    10.5478    53.1357   313.6154 </r>
       <r>    10.6144    54.0582   317.2168 </r>
       <r>    10.6810    52.7180   320.8090 </r>
       <r>    10.7477    45.6957   324.3090 </r>
       <r>    10.8143    42.4768   327.3550 </r>
       <r>    10.8809    38.2412   330.0202 </r>
       <r>    10.9476    33.4278   332.3266 </r>
       <r>    11.0142    29.6008   334.3599 </r>
       <r>    11.0808    25.8052   336.1913 </r>
       <r>    11.1474    20.8331   337.7477 </r>
       <r>    11.2141    18.5509   339.0683 </r>
       <r>    11.2807    13.3731   340.0830 </r>
       <r>    11.3473    10.2653   340.8447 </r>
       <r>    11.4140     9.1257   341.4872 </r>
       <r>    11.4806     8.4436   342.0703 </r>
       <r>    11.5472     7.9893   342.6186 </r>
       <r>    11.6139     7.7977   343.1450 </r>
       <r>    11.6805     8.1075   343.6740 </r>
       <r>    11.7471     8.3655   344.2208 </r>
       <r>    11.8137     9.4995   344.8125 </r>
       <r>    11.8804     9.6841   345.4552 </r>
       <r>    11.9470     9.2285   346.0838 </r>
       <r>    12.0136     9.5062   346.7069 </r>
       <r>    12.0803     9.1937   347.3247 </r>
       <r>    12.1469     8.9232   347.9296 </r>
       <r>    12.2135     8.4436   348.5080 </r>
       <r>    12.2801     7.4126   349.0568 </r>
       <r>    12.3468     7.0321   349.5363 </r>
       <r>    12.4134     6.5822   349.9873 </r>
       <r>    12.4800     6.7243   350.4287 </r>
       <r>    12.5467     6.4141   350.8758 </r>
       <r>    12.6133     7.1373   351.3276 </r>
       <r>    12.6799     7.1781   351.8081 </r>
       <r>    12.7465     6.3722   352.2728 </r>
       <r>    12.8132     5.6131   352.6649 </r>
       <r>    12.8798     5.2846   353.0339 </r>
       <r>    12.9464     4.8360   353.3654 </r>
       <r>    13.0131     4.9451   353.6793 </r>
       <r>    13.0797     5.7998   354.0381 </r>
       <r>    13.1463     5.7855   354.4295 </r>
       <r>    13.2129     5.6891   354.8139 </r>
       <r>    13.2796     5.0948   355.1749 </r>
       <r>    13.3462     5.2768   355.5199 </r>
       <r>    13.4128     4.9161   355.8606 </r>
       <r>    13.4795     4.5626   356.1772 </r>
       <r>    13.5461     4.3410   356.4762 </r>
       <r>    13.6127     4.0543   356.7567 </r>
       <r>    13.6793     3.6788   357.0152 </r>
       <r>    13.7460     3.1923   357.2430 </r>
       <r>    13.8126     2.9291   357.4450 </r>
       <r>    13.8792     2.7792   357.6353 </r>
       <r>    13.9459     2.5713   357.8138 </r>
       <r>    14.0125     2.3649   357.9782 </r>
       <r>    14.0791     2.1541   358.1288 </r>
       <r>    14.1458     1.9629   358.2659 </r>
       <r>    14.2124     1.8010   358.3909 </r>
       <r>    14.2790     1.6727   358.5066 </r>
       <r>    14.3456     1.5401   358.6136 </r>
       <r>    14.4123     1.3985   358.7116 </r>
       <r>    14.4789     1.2624   358.8000 </r>
       <r>    14.5455     1.1659   358.8808 </r>
       <r>    14.6122     1.0890   358.9557 </r>
       <r>    14.6788     1.0238   359.0261 </r>
       <r>    14.7454     0.9614   359.0922 </r>
       <r>    14.8120     0.8905   359.1543 </r>
       <r>    14.8787     0.8459   359.2122 </r>
       <r>    14.9453     0.8047   359.2671 </r>
       <r>    15.0119     0.6845   359.3170 </r>
       <r>    15.0786     0.6494   359.3614 </r>
       <r>    15.1452     0.6222   359.4039 </r>
       <r>    15.2118     0.5919   359.4444 </r>
       <r>    15.2784     0.5507   359.4824 </r>
       <r>    15.3451     0.5186   359.5180 </r>
       <r>    15.4117     0.4966   359.5518 </r>
       <r>    15.4783     0.5898   359.5870 </r>
       <r>    15.5450     0.6398   359.6286 </r>
       <r>    15.6116     0.6550   359.6720 </r>
       <r>    15.6782     0.6101   359.7142 </r>
       <r>    15.7448     0.5637   359.7533 </r>
       <r>    15.8115     0.5053   359.7892 </r>
       <r>    15.8781     0.4180   359.8200 </r>
       <r>    15.9447     0.3681   359.8460 </r>
       <r>    16.0114     0.3293   359.8692 </r>
       <r>    16.0780     0.2923   359.8899 </r>
       <r>    16.1446     0.2569   359.9082 </r>
       <r>    16.2112     0.2232   359.9242 </r>
       <r>    16.2779     0.1920   359.9380 </r>
       <r>    16.3445     0.1625   359.9498 </r>
       <r>    16.4111     0.1345   359.9597 </r>
       <r>    16.4778     0.1113   359.9678 </r>
       <r>    16.5444     0.0984   359.9748 </r>
       <r>    16.6110     0.0848   359.9809 </r>
       <r>    16.6777     0.0702   359.9861 </r>
       <r>    16.7443     0.0566   359.9903 </r>
       <r>    16.8109     0.0441   359.9936 </r>
       <r>    16.8775     0.0327   359.9962 </r>
       <r>    16.9442     0.0220   359.9980 </r>
       <r>    17.0108     0.0121   359.9991 </r>
       <r>    17.0774     0.0052   359.9997 </r>
       <r>    17.1441     0.0023   359.9999 </r>
       <r>    17.2107     0.0006   360.0000 </r>
       <r>    17.2773     0.0000   360.0000 </r>
       <r>    17.3439     0.0000   360.0000 </r>
       <r>    17.4106     0.0000   360.0000 </r>
       <r>    17.4772     0.0000   360.0000 </r>
       <r>    17.5438     0.0000   360.0000 </r>
       <r>    17.6105     0.0000   360.0000 </r>
       <r>    17.6771     0.0000   360.0000 </r>
       <r>    17.7437     0.0000   360.0000 </r>
       <r>    17.8103     0.0000   360.0000 </r>
       <r>    17.8770     0.0000   360.0000 </r>
       <r>    17.9436     0.0000   360.0000 </r>
       <r>    18.0102     0.0000   360.0000 </r>
       <r>    18.0769     0.0000   360.0000 </r>
       <r>    18.1435     0.0000   360.0000 </r>
       <r>    18.2101     0.0000   360.0000 </r>
       <r>    18.2767     0.0000   360.0000 </r>
      </set>
     </set>
    </array>
   </total>
  </dos>
 </calculation>
 <structure name="finalpos" >
  <crystal>
   <varray name="basis" >
    <v>      -3.86567496       3.86567496      -3.86528649 </v>
    <v>       3.86567496      -3.86567496      -3.86528649 </v>
    <v>      -7.73427770      -7.73427770       0.00000000 </v>
   </varray>
   <i name="volume">    462.26048971 </i>
   <varray name="rec_basis" >
    <v>      -0.06467176       0.06467176      -0.12935652 </v>
    <v>       0.06467176      -0.06467176      -0.12935652 </v>
    <v>      -0.06464728      -0.06464728       0.00000000 </v>
   </varray>
  </crystal>
  <varray name="positions" >
   <v>       0.25085113       0.74914887       0.75000000 </v>
   <v>       0.74914887       0.25085113       0.75000000 </v>
   <v>       0.00000000       0.00000000       0.50009018 </v>
   <v>       0.00000000       0.00000000       0.99990982 </v>
   <v>       0.12632243       0.37553737       0.62407351 </v>
   <v>       0.62446263       0.87367757       0.62407351 </v>
   <v>       0.37638699       0.12554412       0.37407557 </v>
   <v>       0.12554412       0.37638699       0.12592443 </v>
   <v>       0.62361301       0.87445588       0.12592443 </v>
   <v>       0.37553737       0.12632243       0.87592649 </v>
   <v>       0.87445588       0.62361301       0.37407557 </v>
   <v>       0.87367757       0.62446263       0.87592649 </v>
   <v>       0.87367757       0.62446263       0.62407351 </v>
   <v>       0.37553737       0.12632243       0.62407351 </v>
   <v>       0.12554412       0.37638699       0.37407557 </v>
   <v>       0.87445588       0.62361301       0.12592443 </v>
   <v>       0.37638699       0.12554412       0.12592443 </v>
   <v>       0.12632243       0.37553737       0.87592649 </v>
   <v>       0.62361301       0.87445588       0.37407557 </v>
   <v>       0.62446263       0.87367757       0.87592649 </v>
   <v>       0.25068088       0.74931912       0.49851556 </v>
   <v>       0.74931912       0.25068088       0.49851556 </v>
   <v>       0.50000000       0.50000000       0.25000000 </v>
   <v>       0.25068088       0.74931912       0.00148444 </v>
   <v>       0.74931912       0.25068088       0.00148444 </v>
   <v>       0.50000000       0.50000000       0.75000000 </v>
   <v>       0.00000000       0.00000000       0.25000000 </v>
   <v>       0.00000000       0.00000000       0.75000000 </v>
   <v>       0.50000000       0.50000000       0.50027623 </v>
   <v>       0.25101056       0.74898944       0.25000000 </v>
   <v>       0.74898944       0.25101056       0.25000000 </v>
   <v>       0.50000000       0.50000000       0.99972377 </v>
  </varray>
 </structure>
</modeling>
