       N       E                     dE             d eps       ncg     rms          rms(c)
DAV:   1     0.112829993588E+05    0.11283E+05   -0.55466E+05 95400   0.810E+02
DAV:   2    -0.143893153790E+04   -0.12722E+05   -0.12145E+05 95800   0.337E+02
DAV:   3    -0.241090935038E+04   -0.97198E+03   -0.89398E+03135260   0.780E+01
DAV:   4    -0.248227615880E+04   -0.71367E+02   -0.68934E+02132120   0.209E+01
DAV:   5    -0.248512272497E+04   -0.28466E+01   -0.27901E+01139680   0.331E+00    0.779E+01
RMM:   6    -0.241644724263E+04    0.68675E+02   -0.68076E+02105904   0.245E+01    0.623E+01
RMM:   7    -0.236998956051E+04    0.46458E+02   -0.35222E+02 97786   0.172E+01    0.455E+01
RMM:   8    -0.233984299971E+04    0.30147E+02   -0.15700E+02 97707   0.114E+01    0.321E+01
RMM:   9    -0.231562810121E+04    0.24215E+02   -0.34493E+01 98700   0.532E+00    0.618E+00
RMM:  10    -0.231542154059E+04    0.20656E+00   -0.73794E+00136479   0.153E+00    0.348E+00
RMM:  11    -0.231527973557E+04    0.14181E+00   -0.13375E+00120404   0.804E-01    0.384E+00
RMM:  12    -0.231489766686E+04    0.38207E+00   -0.50152E-01116412   0.559E-01    0.208E+00
RMM:  13    -0.231477753306E+04    0.12013E+00   -0.25432E-01112005   0.436E-01    0.131E+00
RMM:  14    -0.231474694902E+04    0.30584E-01   -0.15049E-01111258   0.329E-01    0.130E+00
RMM:  15    -0.231472854117E+04    0.18408E-01   -0.45411E-02119118   0.139E-01    0.911E-01
RMM:  16    -0.231471553715E+04    0.13004E-01   -0.16323E-02115660   0.956E-02    0.470E-01
RMM:  17    -0.231471259810E+04    0.29390E-02   -0.13511E-02119555   0.834E-02    0.223E-01
RMM:  18    -0.231471335240E+04   -0.75430E-03   -0.86695E-03133058   0.567E-02    0.236E-01
RMM:  19    -0.231471324134E+04    0.11106E-03   -0.22507E-03133636   0.265E-02    0.224E-01
RMM:  20    -0.231471256040E+04    0.68094E-03   -0.56152E-04112405   0.184E-02    0.145E-01
RMM:  21    -0.231471212325E+04    0.43715E-03   -0.10380E-03119671   0.232E-02    0.450E-02
RMM:  22    -0.231471208263E+04    0.40617E-04   -0.34805E-04135801   0.111E-02
   1 F= -.23147121E+04 E0= -.23147198E+04  d E =0.231343E-01
