 256 256   0   0
  0.1419206E+02  0.1537080E-08  0.1537218E-08  0.1537636E-08  0.5000000E-15
  1.000000000000000E-004
  CAR 
 Ir_Ru                                   
     12.68514867     -1.29455512  301      9.24208397      1.00000000
     -1.295  0.0000E+00  0.0000E+00
     -1.248  0.0000E+00  0.0000E+00
     -1.201  0.0000E+00  0.0000E+00
     -1.155  0.0000E+00  0.0000E+00
     -1.108 -0.2749E-28 -0.1281E-29
     -1.062 -0.4100E-25 -0.1912E-26
     -1.015 -0.3945E-22 -0.1840E-23
     -0.968 -0.2450E-19 -0.1144E-20
     -0.922 -0.9816E-17 -0.4585E-18
     -0.875 -0.2462E-14 -0.1152E-15
     -0.829 -0.4083E-12 -0.1914E-13
     -0.782 -0.4361E-10 -0.2051E-11
     -0.735 -0.3001E-08 -0.1419E-09
     -0.689 -0.1331E-06 -0.6346E-08
     -0.642 -0.3815E-05 -0.1841E-06
     -0.596 -0.7078E-04 -0.3482E-05
     -0.549 -0.8528E-03 -0.4322E-04
     -0.502 -0.6674E-02 -0.3542E-03
     -0.456 -0.3353E-01 -0.1917E-02
     -0.409 -0.1020E+00 -0.6668E-02
     -0.363 -0.1377E+00 -0.1309E-01
     -0.316  0.2235E+00 -0.2671E-02
     -0.269  0.1508E+01  0.6759E-01
     -0.223  0.3537E+01  0.2324E+00
     -0.176  0.5069E+01  0.4686E+00
     -0.130  0.5730E+01  0.7356E+00
     -0.083  0.7319E+01  0.1077E+01
     -0.036  0.1019E+02  0.1552E+01
      0.010  0.1102E+02  0.2065E+01
      0.057  0.9151E+01  0.2492E+01
      0.103  0.9367E+01  0.2928E+01
      0.150  0.1313E+02  0.3540E+01
      0.197  0.1590E+02  0.4281E+01
      0.243  0.1604E+02  0.5028E+01
      0.290  0.1671E+02  0.5807E+01
      0.336  0.1848E+02  0.6668E+01
      0.383  0.1833E+02  0.7522E+01
      0.430  0.1739E+02  0.8332E+01
      0.476  0.1972E+02  0.9251E+01
      0.523  0.2331E+02  0.1034E+02
      0.569  0.2403E+02  0.1146E+02
      0.616  0.2228E+02  0.1250E+02
      0.663  0.1878E+02  0.1337E+02
      0.709  0.1414E+02  0.1403E+02
      0.756  0.1115E+02  0.1455E+02
      0.802  0.1071E+02  0.1505E+02
      0.849  0.1118E+02  0.1557E+02
      0.896  0.1225E+02  0.1614E+02
      0.942  0.1474E+02  0.1683E+02
      0.989  0.1840E+02  0.1768E+02
      1.035  0.2291E+02  0.1875E+02
      1.082  0.2807E+02  0.2006E+02
      1.129  0.3123E+02  0.2152E+02
      1.175  0.2973E+02  0.2290E+02
      1.222  0.2589E+02  0.2411E+02
      1.268  0.2303E+02  0.2518E+02
      1.315  0.2092E+02  0.2616E+02
      1.362  0.1999E+02  0.2709E+02
      1.408  0.2161E+02  0.2809E+02
      1.455  0.2408E+02  0.2922E+02
      1.501  0.2569E+02  0.3041E+02
      1.548  0.2900E+02  0.3176E+02
      1.595  0.3512E+02  0.3340E+02
      1.641  0.3875E+02  0.3521E+02
      1.688  0.3784E+02  0.3697E+02
      1.734  0.3922E+02  0.3880E+02
      1.781  0.4549E+02  0.4092E+02
      1.828  0.4934E+02  0.4322E+02
      1.874  0.4782E+02  0.4545E+02
      1.921  0.4723E+02  0.4765E+02
      1.967  0.5082E+02  0.5001E+02
      2.014  0.5405E+02  0.5253E+02
      2.061  0.5544E+02  0.5512E+02
      2.107  0.6133E+02  0.5797E+02
      2.154  0.7455E+02  0.6145E+02
      2.200  0.8945E+02  0.6562E+02
      2.247  0.1032E+03  0.7043E+02
      2.294  0.1178E+03  0.7592E+02
      2.340  0.1310E+03  0.8202E+02
      2.387  0.1382E+03  0.8846E+02
      2.433  0.1431E+03  0.9513E+02
      2.480  0.1522E+03  0.1022E+03
      2.527  0.1608E+03  0.1097E+03
      2.573  0.1616E+03  0.1172E+03
      2.620  0.1613E+03  0.1248E+03
      2.666  0.1689E+03  0.1326E+03
      2.713  0.1785E+03  0.1409E+03
      2.760  0.1848E+03  0.1496E+03
      2.806  0.1978E+03  0.1588E+03
      2.853  0.2229E+03  0.1692E+03
      2.899  0.2476E+03  0.1807E+03
      2.946  0.2564E+03  0.1926E+03
      2.993  0.2498E+03  0.2043E+03
      3.039  0.2468E+03  0.2158E+03
      3.086  0.2622E+03  0.2280E+03
      3.132  0.2866E+03  0.2414E+03
      3.179  0.3013E+03  0.2554E+03
      3.226  0.3039E+03  0.2696E+03
      3.272  0.3052E+03  0.2838E+03
      3.319  0.3087E+03  0.2982E+03
      3.365  0.3115E+03  0.3127E+03
      3.412  0.3148E+03  0.3274E+03
      3.459  0.3220E+03  0.3424E+03
      3.505  0.3336E+03  0.3579E+03
      3.552  0.3442E+03  0.3740E+03
      3.598  0.3470E+03  0.3901E+03
      3.645  0.3450E+03  0.4062E+03
      3.692  0.3489E+03  0.4225E+03
      3.738  0.3578E+03  0.4391E+03
      3.785  0.3593E+03  0.4559E+03
      3.831  0.3523E+03  0.4723E+03
      3.878  0.3479E+03  0.4885E+03
      3.925  0.3497E+03  0.5048E+03
      3.971  0.3506E+03  0.5211E+03
      4.018  0.3413E+03  0.5370E+03
      4.064  0.3226E+03  0.5521E+03
      4.111  0.3066E+03  0.5664E+03
      4.158  0.2975E+03  0.5802E+03
      4.204  0.2873E+03  0.5936E+03
      4.251  0.2711E+03  0.6062E+03
      4.297  0.2536E+03  0.6181E+03
      4.344  0.2428E+03  0.6294E+03
      4.391  0.2453E+03  0.6408E+03
      4.437  0.2578E+03  0.6528E+03
      4.484  0.2616E+03  0.6650E+03
      4.530  0.2505E+03  0.6767E+03
      4.577  0.2476E+03  0.6882E+03
      4.624  0.2674E+03  0.7007E+03
      4.670  0.2922E+03  0.7143E+03
      4.717  0.3070E+03  0.7286E+03
      4.763  0.3137E+03  0.7432E+03
      4.810  0.3134E+03  0.7578E+03
      4.857  0.3048E+03  0.7720E+03
      4.903  0.2901E+03  0.7855E+03
      4.950  0.2785E+03  0.7985E+03
      4.996  0.2812E+03  0.8116E+03
      5.043  0.2952E+03  0.8254E+03
      5.090  0.3079E+03  0.8397E+03
      5.136  0.3092E+03  0.8541E+03
      5.183  0.2975E+03  0.8680E+03
      5.229  0.2855E+03  0.8813E+03
      5.276  0.2844E+03  0.8946E+03
      5.323  0.2904E+03  0.9081E+03
      5.369  0.2974E+03  0.9219E+03
      5.416  0.3018E+03  0.9360E+03
      5.462  0.2985E+03  0.9499E+03
      5.509  0.2887E+03  0.9634E+03
      5.555  0.2867E+03  0.9767E+03
      5.602  0.3027E+03  0.9908E+03
      5.649  0.3215E+03  0.1006E+04
      5.695  0.3252E+03  0.1021E+04
      5.742  0.3202E+03  0.1036E+04
      5.788  0.3200E+03  0.1051E+04
      5.835  0.3263E+03  0.1066E+04
      5.882  0.3368E+03  0.1082E+04
      5.928  0.3501E+03  0.1098E+04
      5.975  0.3653E+03  0.1115E+04
      6.021  0.3789E+03  0.1133E+04
      6.068  0.3855E+03  0.1151E+04
      6.115  0.3876E+03  0.1169E+04
      6.161  0.3917E+03  0.1187E+04
      6.208  0.3986E+03  0.1206E+04
      6.254  0.4095E+03  0.1225E+04
      6.301  0.4272E+03  0.1245E+04
      6.348  0.4466E+03  0.1265E+04
      6.394  0.4575E+03  0.1287E+04
      6.441  0.4572E+03  0.1308E+04
      6.487  0.4532E+03  0.1329E+04
      6.534  0.4501E+03  0.1350E+04
      6.581  0.4457E+03  0.1371E+04
      6.627  0.4392E+03  0.1391E+04
      6.674  0.4318E+03  0.1411E+04
      6.720  0.4248E+03  0.1431E+04
      6.767  0.4170E+03  0.1451E+04
      6.814  0.4016E+03  0.1469E+04
      6.860  0.3767E+03  0.1487E+04
      6.907  0.3543E+03  0.1503E+04
      6.953  0.3442E+03  0.1519E+04
      7.000  0.3392E+03  0.1535E+04
      7.047  0.3276E+03  0.1551E+04
      7.093  0.3148E+03  0.1565E+04
      7.140  0.3135E+03  0.1580E+04
      7.186  0.3193E+03  0.1595E+04
      7.233  0.3132E+03  0.1609E+04
      7.280  0.2873E+03  0.1623E+04
      7.326  0.2558E+03  0.1635E+04
      7.373  0.2402E+03  0.1646E+04
      7.419  0.2488E+03  0.1657E+04
      7.466  0.2713E+03  0.1670E+04
      7.513  0.2846E+03  0.1683E+04
      7.559  0.2764E+03  0.1696E+04
      7.606  0.2584E+03  0.1708E+04
      7.652  0.2483E+03  0.1720E+04
      7.699  0.2573E+03  0.1732E+04
      7.746  0.2829E+03  0.1745E+04
      7.792  0.3054E+03  0.1759E+04
      7.839  0.3120E+03  0.1774E+04
      7.885  0.3087E+03  0.1788E+04
      7.932  0.3030E+03  0.1802E+04
      7.979  0.2960E+03  0.1816E+04
      8.025  0.2910E+03  0.1830E+04
      8.072  0.2958E+03  0.1843E+04
      8.118  0.3092E+03  0.1858E+04
      8.165  0.3170E+03  0.1873E+04
      8.212  0.3177E+03  0.1887E+04
      8.258  0.3299E+03  0.1903E+04
      8.305  0.3537E+03  0.1919E+04
      8.351  0.3624E+03  0.1936E+04
      8.398  0.3398E+03  0.1952E+04
      8.445  0.3000E+03  0.1966E+04
      8.491  0.2669E+03  0.1978E+04
      8.538  0.2556E+03  0.1990E+04
      8.584  0.2708E+03  0.2003E+04
      8.631  0.2954E+03  0.2017E+04
      8.678  0.3001E+03  0.2031E+04
      8.724  0.2840E+03  0.2044E+04
      8.771  0.2675E+03  0.2056E+04
      8.817  0.2569E+03  0.2068E+04
      8.864  0.2491E+03  0.2080E+04
      8.911  0.2452E+03  0.2091E+04
      8.957  0.2453E+03  0.2103E+04
      9.004  0.2534E+03  0.2115E+04
      9.050  0.2734E+03  0.2127E+04
      9.097  0.2840E+03  0.2141E+04
      9.144  0.2661E+03  0.2153E+04
      9.190  0.2408E+03  0.2164E+04
      9.237  0.2282E+03  0.2175E+04
      9.283  0.2199E+03  0.2185E+04
      9.330  0.2139E+03  0.2195E+04
      9.377  0.2219E+03  0.2205E+04
      9.423  0.2424E+03  0.2217E+04
      9.470  0.2622E+03  0.2229E+04
      9.516  0.2736E+03  0.2242E+04
      9.563  0.2773E+03  0.2255E+04
      9.610  0.2763E+03  0.2267E+04
      9.656  0.2710E+03  0.2280E+04
      9.703  0.2610E+03  0.2292E+04
      9.749  0.2438E+03  0.2304E+04
      9.796  0.2242E+03  0.2314E+04
      9.843  0.2194E+03  0.2324E+04
      9.889  0.2365E+03  0.2335E+04
      9.936  0.2641E+03  0.2348E+04
      9.982  0.2951E+03  0.2361E+04
     10.029  0.3272E+03  0.2377E+04
     10.076  0.3490E+03  0.2393E+04
     10.122  0.3463E+03  0.2409E+04
     10.169  0.3239E+03  0.2424E+04
     10.215  0.3102E+03  0.2439E+04
     10.262  0.3291E+03  0.2454E+04
     10.309  0.3870E+03  0.2472E+04
     10.355  0.4662E+03  0.2494E+04
     10.402  0.5185E+03  0.2518E+04
     10.448  0.5092E+03  0.2542E+04
     10.495  0.4507E+03  0.2563E+04
     10.542  0.3741E+03  0.2580E+04
     10.588  0.3022E+03  0.2594E+04
     10.635  0.2484E+03  0.2606E+04
     10.681  0.2126E+03  0.2616E+04
     10.728  0.1808E+03  0.2624E+04
     10.775  0.1418E+03  0.2631E+04
     10.821  0.9724E+02  0.2635E+04
     10.868  0.5648E+02  0.2638E+04
     10.914  0.2712E+02  0.2639E+04
     10.961  0.1023E+02  0.2639E+04
     11.008  0.2981E+01  0.2640E+04
     11.054  0.1537E+01  0.2640E+04
     11.101  0.1981E+01  0.2640E+04
     11.147  0.1734E+01  0.2640E+04
     11.194  0.7125E+00  0.2640E+04
     11.241  0.4095E-02  0.2640E+04
     11.287 -0.1207E+00  0.2640E+04
     11.334 -0.5260E-01  0.2640E+04
     11.380 -0.1134E-01  0.2640E+04
     11.427 -0.3514E-02  0.2640E+04
     11.474 -0.1336E-01  0.2640E+04
     11.520 -0.4269E-01  0.2640E+04
     11.567 -0.3486E-01  0.2640E+04
     11.613  0.2043E+00  0.2640E+04
     11.660  0.7214E+00  0.2640E+04
     11.707  0.1026E+01  0.2640E+04
     11.753  0.7168E+00  0.2640E+04
     11.800  0.2006E+00  0.2640E+04
     11.846 -0.3559E-01  0.2640E+04
     11.893 -0.4240E-01  0.2640E+04
     11.940 -0.1308E-01  0.2640E+04
     11.986 -0.2110E-02  0.2640E+04
     12.033 -0.1998E-03  0.2640E+04
     12.079 -0.1159E-04  0.2640E+04
     12.126 -0.4206E-06  0.2640E+04
     12.173 -0.9648E-08  0.2640E+04
     12.219 -0.1409E-09  0.2640E+04
     12.266 -0.1316E-11  0.2640E+04
     12.312 -0.7743E-14  0.2640E+04
     12.359  0.0000E+00  0.2640E+04
     12.406  0.0000E+00  0.2640E+04
     12.452  0.0000E+00  0.2640E+04
     12.499  0.0000E+00  0.2640E+04
     12.545  0.0000E+00  0.2640E+04
     12.592  0.0000E+00  0.2640E+04
     12.639  0.0000E+00  0.2640E+04
     12.685  0.0000E+00  0.2640E+04
