       N       E                     dE             d eps       ncg     rms          rms(c)
DAV:   1     0.112830556792E+05    0.11283E+05   -0.55466E+05 95400   0.810E+02
DAV:   2    -0.143839260060E+04   -0.12721E+05   -0.12145E+05 95780   0.337E+02
DAV:   3    -0.241075747806E+04   -0.97236E+03   -0.89419E+03135160   0.780E+01
DAV:   4    -0.248225842806E+04   -0.71501E+02   -0.69067E+02132180   0.209E+01
DAV:   5    -0.248510831780E+04   -0.28499E+01   -0.27936E+01139680   0.331E+00    0.779E+01
RMM:   6    -0.241640699373E+04    0.68701E+02   -0.68048E+02105883   0.245E+01    0.622E+01
RMM:   7    -0.236998526890E+04    0.46422E+02   -0.35217E+02 97786   0.172E+01    0.455E+01
RMM:   8    -0.233984148954E+04    0.30144E+02   -0.15698E+02 97709   0.114E+01    0.321E+01
RMM:   9    -0.231561934075E+04    0.24222E+02   -0.34492E+01 98724   0.532E+00    0.615E+00
RMM:  10    -0.231539906391E+04    0.22028E+00   -0.73832E+00136327   0.154E+00    0.340E+00
RMM:  11    -0.231513436316E+04    0.26470E+00   -0.13114E+00117815   0.896E-01    0.330E+00
RMM:  12    -0.231490687536E+04    0.22749E+00   -0.45663E-01121405   0.455E-01    0.222E+00
RMM:  13    -0.231477733372E+04    0.12954E+00   -0.24258E-01112912   0.415E-01    0.132E+00
RMM:  14    -0.231474048566E+04    0.36848E-01   -0.15104E-01109864   0.337E-01    0.122E+00
RMM:  15    -0.231472365540E+04    0.16830E-01   -0.41994E-02115524   0.150E-01    0.803E-01
RMM:  16    -0.231471472577E+04    0.89296E-02   -0.12756E-02122460   0.727E-02    0.481E-01
RMM:  17    -0.231471121835E+04    0.35074E-02   -0.13127E-02116081   0.861E-02    0.201E-01
RMM:  18    -0.231471221480E+04   -0.99645E-03   -0.10378E-02130634   0.654E-02    0.238E-01
RMM:  19    -0.231471172646E+04    0.48835E-03   -0.13074E-03126282   0.217E-02    0.189E-01
RMM:  20    -0.231471126552E+04    0.46094E-03   -0.42033E-04117604   0.145E-02    0.128E-01
RMM:  21    -0.231471091275E+04    0.35277E-03   -0.73539E-04119109   0.198E-02    0.394E-02
RMM:  22    -0.231471087870E+04    0.34046E-04   -0.23724E-04136145   0.915E-03
   1 F= -.23147109E+04 E0= -.23147185E+04  d E =0.230116E-01
