 256 256   0   0
  0.1418917E+02  0.1588033E-08  0.1692661E-08  0.1693229E-08  0.5000000E-15
  1.000000000000000E-004
  CAR 
 Ir_Ru                                   
     14.27798919     -1.29176185  301      9.45699072      1.00000000
     -1.292  0.0000E+00  0.0000E+00
     -1.240  0.0000E+00  0.0000E+00
     -1.188  0.0000E+00  0.0000E+00
     -1.136 -0.2805E-30 -0.1456E-31
     -1.084 -0.1286E-26 -0.6677E-28
     -1.032 -0.3428E-23 -0.1780E-24
     -0.980 -0.5304E-20 -0.2754E-21
     -0.928 -0.4761E-17 -0.2474E-18
     -0.877 -0.2418E-14 -0.1257E-15
     -0.825 -0.7202E-12 -0.3751E-13
     -0.773 -0.1244E-09 -0.6493E-11
     -0.721 -0.1235E-07 -0.6477E-09
     -0.669 -0.7030E-06 -0.3713E-07
     -0.617 -0.2279E-04 -0.1220E-05
     -0.565 -0.4176E-03 -0.2289E-04
     -0.513 -0.4287E-02 -0.2454E-03
     -0.461 -0.2438E-01 -0.1511E-02
     -0.409 -0.7532E-01 -0.5420E-02
     -0.358 -0.1018E+00 -0.1070E-01
     -0.306  0.2079E+00  0.8751E-04
     -0.254  0.1646E+01  0.8554E-01
     -0.202  0.4408E+01  0.3143E+00
     -0.150  0.6357E+01  0.6442E+00
     -0.098  0.6422E+01  0.9775E+00
     -0.046  0.6967E+01  0.1339E+01
      0.006  0.8867E+01  0.1799E+01
      0.058  0.1119E+02  0.2380E+01
      0.110  0.1362E+02  0.3087E+01
      0.161  0.1434E+02  0.3831E+01
      0.213  0.1168E+02  0.4437E+01
      0.265  0.1007E+02  0.4960E+01
      0.317  0.1429E+02  0.5702E+01
      0.369  0.2036E+02  0.6758E+01
      0.421  0.2251E+02  0.7927E+01
      0.473  0.2270E+02  0.9105E+01
      0.525  0.2351E+02  0.1033E+02
      0.577  0.2251E+02  0.1149E+02
      0.629  0.2043E+02  0.1255E+02
      0.680  0.2101E+02  0.1364E+02
      0.732  0.2038E+02  0.1470E+02
      0.784  0.1457E+02  0.1546E+02
      0.836  0.8852E+01  0.1592E+02
      0.888  0.8036E+01  0.1633E+02
      0.940  0.1174E+02  0.1694E+02
      0.992  0.1897E+02  0.1793E+02
      1.044  0.2792E+02  0.1938E+02
      1.096  0.3338E+02  0.2111E+02
      1.147  0.3305E+02  0.2282E+02
      1.199  0.2876E+02  0.2432E+02
      1.251  0.2280E+02  0.2550E+02
      1.303  0.1948E+02  0.2651E+02
      1.355  0.2172E+02  0.2764E+02
      1.407  0.2720E+02  0.2905E+02
      1.459  0.3034E+02  0.3062E+02
      1.511  0.2981E+02  0.3217E+02
      1.563  0.2934E+02  0.3369E+02
      1.615  0.3043E+02  0.3527E+02
      1.666  0.3113E+02  0.3689E+02
      1.718  0.3202E+02  0.3855E+02
      1.770  0.3501E+02  0.4037E+02
      1.822  0.3911E+02  0.4240E+02
      1.874  0.4552E+02  0.4476E+02
      1.926  0.5467E+02  0.4760E+02
      1.978  0.5931E+02  0.5068E+02
      2.030  0.5471E+02  0.5352E+02
      2.082  0.5054E+02  0.5614E+02
      2.134  0.6171E+02  0.5934E+02
      2.185  0.8701E+02  0.6386E+02
      2.237  0.1088E+03  0.6950E+02
      2.289  0.1197E+03  0.7572E+02
      2.341  0.1258E+03  0.8225E+02
      2.393  0.1315E+03  0.8907E+02
      2.445  0.1375E+03  0.9621E+02
      2.497  0.1472E+03  0.1039E+03
      2.549  0.1645E+03  0.1124E+03
      2.601  0.1830E+03  0.1219E+03
      2.653  0.1949E+03  0.1320E+03
      2.704  0.2068E+03  0.1427E+03
      2.756  0.2237E+03  0.1543E+03
      2.808  0.2307E+03  0.1663E+03
      2.860  0.2244E+03  0.1780E+03
      2.912  0.2277E+03  0.1898E+03
      2.964  0.2453E+03  0.2025E+03
      3.016  0.2580E+03  0.2159E+03
      3.068  0.2601E+03  0.2294E+03
      3.120  0.2607E+03  0.2429E+03
      3.172  0.2642E+03  0.2566E+03
      3.223  0.2732E+03  0.2708E+03
      3.275  0.2882E+03  0.2858E+03
      3.327  0.3076E+03  0.3017E+03
      3.379  0.3246E+03  0.3186E+03
      3.431  0.3309E+03  0.3358E+03
      3.483  0.3279E+03  0.3528E+03
      3.535  0.3214E+03  0.3695E+03
      3.587  0.3182E+03  0.3860E+03
      3.639  0.3164E+03  0.4024E+03
      3.691  0.3108E+03  0.4185E+03
      3.742  0.3050E+03  0.4344E+03
      3.794  0.3010E+03  0.4500E+03
      3.846  0.2967E+03  0.4654E+03
      3.898  0.2932E+03  0.4806E+03
      3.950  0.2885E+03  0.4956E+03
      4.002  0.2760E+03  0.5099E+03
      4.054  0.2665E+03  0.5237E+03
      4.106  0.2759E+03  0.5380E+03
      4.158  0.2944E+03  0.5533E+03
      4.210  0.3028E+03  0.5690E+03
      4.261  0.3052E+03  0.5849E+03
      4.313  0.3123E+03  0.6011E+03
      4.365  0.3189E+03  0.6176E+03
      4.417  0.3214E+03  0.6343E+03
      4.469  0.3236E+03  0.6511E+03
      4.521  0.3208E+03  0.6677E+03
      4.573  0.3093E+03  0.6838E+03
      4.625  0.2971E+03  0.6992E+03
      4.677  0.2935E+03  0.7145E+03
      4.729  0.2983E+03  0.7299E+03
      4.780  0.3061E+03  0.7458E+03
      4.832  0.3181E+03  0.7623E+03
      4.884  0.3316E+03  0.7795E+03
      4.936  0.3378E+03  0.7971E+03
      4.988  0.3453E+03  0.8150E+03
      5.040  0.3585E+03  0.8336E+03
      5.092  0.3659E+03  0.8526E+03
      5.144  0.3643E+03  0.8715E+03
      5.196  0.3549E+03  0.8899E+03
      5.248  0.3341E+03  0.9073E+03
      5.299  0.3015E+03  0.9229E+03
      5.351  0.2604E+03  0.9364E+03
      5.403  0.2172E+03  0.9477E+03
      5.455  0.1838E+03  0.9572E+03
      5.507  0.1726E+03  0.9662E+03
      5.559  0.1899E+03  0.9760E+03
      5.611  0.2284E+03  0.9879E+03
      5.663  0.2769E+03  0.1002E+04
      5.715  0.3269E+03  0.1019E+04
      5.767  0.3685E+03  0.1038E+04
      5.818  0.3956E+03  0.1059E+04
      5.870  0.4106E+03  0.1080E+04
      5.922  0.4195E+03  0.1102E+04
      5.974  0.4260E+03  0.1124E+04
      6.026  0.4281E+03  0.1146E+04
      6.078  0.4157E+03  0.1168E+04
      6.130  0.3913E+03  0.1188E+04
      6.182  0.3714E+03  0.1207E+04
      6.234  0.3609E+03  0.1226E+04
      6.286  0.3552E+03  0.1245E+04
      6.337  0.3567E+03  0.1263E+04
      6.389  0.3697E+03  0.1282E+04
      6.441  0.3821E+03  0.1302E+04
      6.493  0.3843E+03  0.1322E+04
      6.545  0.3919E+03  0.1342E+04
      6.597  0.4102E+03  0.1364E+04
      6.649  0.4241E+03  0.1386E+04
      6.701  0.4283E+03  0.1408E+04
      6.753  0.4253E+03  0.1430E+04
      6.805  0.4129E+03  0.1451E+04
      6.856  0.3915E+03  0.1472E+04
      6.908  0.3731E+03  0.1491E+04
      6.960  0.3665E+03  0.1510E+04
      7.012  0.3636E+03  0.1529E+04
      7.064  0.3684E+03  0.1548E+04
      7.116  0.3919E+03  0.1569E+04
      7.168  0.4150E+03  0.1590E+04
      7.220  0.4222E+03  0.1612E+04
      7.272  0.4222E+03  0.1634E+04
      7.324  0.4129E+03  0.1655E+04
      7.375  0.3873E+03  0.1675E+04
      7.427  0.3583E+03  0.1694E+04
      7.479  0.3399E+03  0.1712E+04
      7.531  0.3325E+03  0.1729E+04
      7.583  0.3285E+03  0.1746E+04
      7.635  0.3165E+03  0.1762E+04
      7.687  0.2950E+03  0.1778E+04
      7.739  0.2770E+03  0.1792E+04
      7.791  0.2685E+03  0.1806E+04
      7.842  0.2636E+03  0.1820E+04
      7.894  0.2574E+03  0.1833E+04
      7.946  0.2482E+03  0.1846E+04
      7.998  0.2427E+03  0.1859E+04
      8.050  0.2431E+03  0.1871E+04
      8.102  0.2390E+03  0.1884E+04
      8.154  0.2312E+03  0.1896E+04
      8.206  0.2290E+03  0.1907E+04
      8.258  0.2335E+03  0.1920E+04
      8.310  0.2378E+03  0.1932E+04
      8.361  0.2391E+03  0.1944E+04
      8.413  0.2368E+03  0.1957E+04
      8.465  0.2285E+03  0.1968E+04
      8.517  0.2183E+03  0.1980E+04
      8.569  0.2120E+03  0.1991E+04
      8.621  0.2069E+03  0.2002E+04
      8.673  0.1996E+03  0.2012E+04
      8.725  0.1912E+03  0.2022E+04
      8.777  0.1830E+03  0.2031E+04
      8.829  0.1795E+03  0.2041E+04
      8.880  0.1887E+03  0.2050E+04
      8.932  0.2138E+03  0.2062E+04
      8.984  0.2357E+03  0.2074E+04
      9.036  0.2361E+03  0.2086E+04
      9.088  0.2230E+03  0.2098E+04
      9.140  0.2059E+03  0.2108E+04
      9.192  0.1866E+03  0.2118E+04
      9.244  0.1791E+03  0.2127E+04
      9.296  0.1983E+03  0.2138E+04
      9.348  0.2291E+03  0.2149E+04
      9.399  0.2431E+03  0.2162E+04
      9.451  0.2429E+03  0.2175E+04
      9.503  0.2450E+03  0.2187E+04
      9.555  0.2443E+03  0.2200E+04
      9.607  0.2467E+03  0.2213E+04
      9.659  0.2757E+03  0.2227E+04
      9.711  0.3185E+03  0.2244E+04
      9.763  0.3356E+03  0.2261E+04
      9.815  0.3260E+03  0.2278E+04
      9.867  0.3165E+03  0.2294E+04
      9.918  0.3154E+03  0.2311E+04
      9.970  0.3220E+03  0.2328E+04
     10.022  0.3440E+03  0.2345E+04
     10.074  0.3811E+03  0.2365E+04
     10.126  0.4137E+03  0.2387E+04
     10.178  0.4286E+03  0.2409E+04
     10.230  0.4365E+03  0.2432E+04
     10.282  0.4494E+03  0.2455E+04
     10.334  0.4681E+03  0.2479E+04
     10.386  0.4868E+03  0.2504E+04
     10.437  0.4975E+03  0.2530E+04
     10.489  0.4892E+03  0.2556E+04
     10.541  0.4505E+03  0.2579E+04
     10.593  0.3894E+03  0.2599E+04
     10.645  0.3203E+03  0.2616E+04
     10.697  0.2360E+03  0.2628E+04
     10.749  0.1346E+03  0.2635E+04
     10.801  0.4644E+02  0.2637E+04
     10.853  0.2127E+01  0.2638E+04
     10.905 -0.5731E+01  0.2637E+04
     10.956 -0.2581E+01  0.2637E+04
     11.008 -0.5480E+00  0.2637E+04
     11.060 -0.6823E-01  0.2637E+04
     11.112 -0.5453E-02  0.2637E+04
     11.164 -0.2912E-03  0.2637E+04
     11.216 -0.1028E-04  0.2637E+04
     11.268 -0.2300E-06  0.2637E+04
     11.320 -0.3136E-08  0.2637E+04
     11.372 -0.2540E-10  0.2637E+04
     11.424 -0.3266E-11  0.2637E+04
     11.475 -0.5089E-09  0.2637E+04
     11.527 -0.4749E-07  0.2637E+04
     11.579 -0.2547E-05  0.2637E+04
     11.631 -0.7803E-04  0.2637E+04
     11.683 -0.1347E-02  0.2637E+04
     11.735 -0.1275E-01  0.2637E+04
     11.787 -0.6093E-01  0.2637E+04
     11.839 -0.1005E+00  0.2637E+04
     11.891  0.2571E+00  0.2637E+04
     11.943  0.1397E+01  0.2637E+04
     11.994  0.2406E+01  0.2637E+04
     12.046  0.1906E+01  0.2637E+04
     12.098  0.6613E+00  0.2637E+04
     12.150  0.4550E+00  0.2637E+04
     12.202  0.1498E+01  0.2638E+04
     12.254  0.2814E+01  0.2638E+04
     12.306  0.3416E+01  0.2638E+04
     12.358  0.3042E+01  0.2638E+04
     12.410  0.2372E+01  0.2638E+04
     12.462  0.2049E+01  0.2638E+04
     12.513  0.2050E+01  0.2638E+04
     12.565  0.2296E+01  0.2638E+04
     12.617  0.2724E+01  0.2639E+04
     12.669  0.3259E+01  0.2639E+04
     12.721  0.3760E+01  0.2639E+04
     12.773  0.3516E+01  0.2639E+04
     12.825  0.2744E+01  0.2639E+04
     12.877  0.2559E+01  0.2639E+04
     12.929  0.2448E+01  0.2640E+04
     12.981  0.1677E+01  0.2640E+04
     13.032  0.1036E+01  0.2640E+04
     13.084  0.8362E+00  0.2640E+04
     13.136  0.7877E+00  0.2640E+04
     13.188  0.9473E+00  0.2640E+04
     13.240  0.1116E+01  0.2640E+04
     13.292  0.1066E+01  0.2640E+04
     13.344  0.6649E+00  0.2640E+04
     13.396  0.1616E+00  0.2640E+04
     13.448 -0.4240E-01  0.2640E+04
     13.500 -0.3282E-01  0.2640E+04
     13.551 -0.7268E-02  0.2640E+04
     13.603 -0.7740E-03  0.2640E+04
     13.655 -0.4392E-04  0.2640E+04
     13.707 -0.1380E-05  0.2640E+04
     13.759 -0.2447E-07  0.2640E+04
     13.811 -0.2475E-09  0.2640E+04
     13.863 -0.1437E-11  0.2640E+04
     13.915 -0.4754E-14  0.2640E+04
     13.967  0.0000E+00  0.2640E+04
     14.018  0.0000E+00  0.2640E+04
     14.070  0.0000E+00  0.2640E+04
     14.122  0.0000E+00  0.2640E+04
     14.174  0.0000E+00  0.2640E+04
     14.226  0.0000E+00  0.2640E+04
     14.278  0.0000E+00  0.2640E+04
