 256 256   0   0
  0.1418917E+02  0.1588033E-08  0.1692661E-08  0.1693229E-08  0.5000000E-15
  1.000000000000000E-004
  CAR 
 Ir_Ru                                   
     14.25688160     -1.29173337  301      9.45687551      1.00000000
     -1.292  0.0000E+00  0.0000E+00
     -1.240  0.0000E+00  0.0000E+00
     -1.188  0.0000E+00  0.0000E+00
     -1.136 -0.2711E-30 -0.1405E-31
     -1.084 -0.1232E-26 -0.6388E-28
     -1.033 -0.3260E-23 -0.1690E-24
     -0.981 -0.5014E-20 -0.2600E-21
     -0.929 -0.4480E-17 -0.2325E-18
     -0.877 -0.2265E-14 -0.1176E-15
     -0.825 -0.6749E-12 -0.3510E-13
     -0.773 -0.1166E-09 -0.6076E-11
     -0.722 -0.1160E-07 -0.6071E-09
     -0.670 -0.6620E-06 -0.3492E-07
     -0.618 -0.2156E-04 -0.1152E-05
     -0.566 -0.3977E-03 -0.2177E-04
     -0.514 -0.4116E-02 -0.2351E-03
     -0.462 -0.2365E-01 -0.1461E-02
     -0.411 -0.7397E-01 -0.5295E-02
     -0.359 -0.1030E+00 -0.1063E-01
     -0.307  0.1903E+00 -0.7717E-03
     -0.255  0.1587E+01  0.8149E-01
     -0.203  0.4329E+01  0.3058E+00
     -0.152  0.6333E+01  0.6341E+00
     -0.100  0.6426E+01  0.9671E+00
     -0.048  0.6924E+01  0.1326E+01
      0.004  0.8794E+01  0.1782E+01
      0.056  0.1111E+02  0.2357E+01
      0.108  0.1354E+02  0.3059E+01
      0.159  0.1438E+02  0.3804E+01
      0.211  0.1181E+02  0.4417E+01
      0.263  0.1003E+02  0.4936E+01
      0.315  0.1404E+02  0.5664E+01
      0.367  0.2018E+02  0.6710E+01
      0.419  0.2248E+02  0.7876E+01
      0.470  0.2264E+02  0.9049E+01
      0.522  0.2347E+02  0.1027E+02
      0.574  0.2263E+02  0.1144E+02
      0.626  0.2048E+02  0.1250E+02
      0.678  0.2092E+02  0.1358E+02
      0.730  0.2054E+02  0.1465E+02
      0.781  0.1497E+02  0.1542E+02
      0.833  0.9059E+01  0.1589E+02
      0.885  0.7933E+01  0.1631E+02
      0.937  0.1139E+02  0.1690E+02
      0.989  0.1837E+02  0.1785E+02
      1.041  0.2736E+02  0.1927E+02
      1.092  0.3329E+02  0.2099E+02
      1.144  0.3330E+02  0.2272E+02
      1.196  0.2916E+02  0.2423E+02
      1.248  0.2318E+02  0.2543E+02
      1.300  0.1958E+02  0.2644E+02
      1.352  0.2143E+02  0.2756E+02
      1.403  0.2685E+02  0.2895E+02
      1.455  0.3029E+02  0.3052E+02
      1.507  0.2991E+02  0.3207E+02
      1.559  0.2932E+02  0.3359E+02
      1.611  0.3033E+02  0.3516E+02
      1.663  0.3108E+02  0.3677E+02
      1.714  0.3186E+02  0.3842E+02
      1.766  0.3470E+02  0.4022E+02
      1.818  0.3873E+02  0.4223E+02
      1.870  0.4490E+02  0.4455E+02
      1.922  0.5400E+02  0.4735E+02
      1.973  0.5927E+02  0.5042E+02
      2.025  0.5523E+02  0.5329E+02
      2.077  0.5039E+02  0.5590E+02
      2.129  0.5996E+02  0.5901E+02
      2.181  0.8468E+02  0.6339E+02
      2.233  0.1074E+03  0.6896E+02
      2.284  0.1192E+03  0.7514E+02
      2.336  0.1254E+03  0.8164E+02
      2.388  0.1310E+03  0.8843E+02
      2.440  0.1368E+03  0.9552E+02
      2.492  0.1458E+03  0.1031E+03
      2.544  0.1623E+03  0.1115E+03
      2.595  0.1812E+03  0.1209E+03
      2.647  0.1939E+03  0.1309E+03
      2.699  0.2054E+03  0.1416E+03
      2.751  0.2223E+03  0.1531E+03
      2.803  0.2310E+03  0.1651E+03
      2.855  0.2253E+03  0.1767E+03
      2.906  0.2267E+03  0.1885E+03
      2.958  0.2435E+03  0.2011E+03
      3.010  0.2574E+03  0.2144E+03
      3.062  0.2601E+03  0.2279E+03
      3.114  0.2602E+03  0.2414E+03
      3.166  0.2632E+03  0.2551E+03
      3.217  0.2715E+03  0.2691E+03
      3.269  0.2862E+03  0.2840E+03
      3.321  0.3056E+03  0.2998E+03
      3.373  0.3233E+03  0.3166E+03
      3.425  0.3307E+03  0.3337E+03
      3.477  0.3284E+03  0.3507E+03
      3.528  0.3221E+03  0.3674E+03
      3.580  0.3183E+03  0.3839E+03
      3.632  0.3168E+03  0.4003E+03
      3.684  0.3117E+03  0.4165E+03
      3.736  0.3057E+03  0.4323E+03
      3.787  0.3015E+03  0.4479E+03
      3.839  0.2974E+03  0.4634E+03
      3.891  0.2938E+03  0.4786E+03
      3.943  0.2896E+03  0.4936E+03
      3.995  0.2779E+03  0.5080E+03
      4.047  0.2668E+03  0.5218E+03
      4.098  0.2735E+03  0.5360E+03
      4.150  0.2921E+03  0.5511E+03
      4.202  0.3024E+03  0.5668E+03
      4.254  0.3048E+03  0.5826E+03
      4.306  0.3112E+03  0.5987E+03
      4.358  0.3183E+03  0.6152E+03
      4.409  0.3210E+03  0.6319E+03
      4.461  0.3233E+03  0.6486E+03
      4.513  0.3218E+03  0.6653E+03
      4.565  0.3115E+03  0.6814E+03
      4.617  0.2987E+03  0.6969E+03
      4.669  0.2935E+03  0.7121E+03
      4.720  0.2972E+03  0.7275E+03
      4.772  0.3046E+03  0.7433E+03
      4.824  0.3160E+03  0.7597E+03
      4.876  0.3300E+03  0.7768E+03
      4.928  0.3370E+03  0.7943E+03
      4.980  0.3433E+03  0.8121E+03
      5.031  0.3563E+03  0.8305E+03
      5.083  0.3652E+03  0.8495E+03
      5.135  0.3648E+03  0.8684E+03
      5.187  0.3569E+03  0.8869E+03
      5.239  0.3384E+03  0.9044E+03
      5.291  0.3078E+03  0.9204E+03
      5.342  0.2680E+03  0.9342E+03
      5.394  0.2246E+03  0.9459E+03
      5.446  0.1885E+03  0.9557E+03
      5.498  0.1726E+03  0.9646E+03
      5.550  0.1850E+03  0.9742E+03
      5.601  0.2207E+03  0.9856E+03
      5.653  0.2678E+03  0.9995E+03
      5.705  0.3178E+03  0.1016E+04
      5.757  0.3615E+03  0.1035E+04
      5.809  0.3917E+03  0.1055E+04
      5.861  0.4088E+03  0.1076E+04
      5.912  0.4182E+03  0.1098E+04
      5.964  0.4246E+03  0.1120E+04
      6.016  0.4282E+03  0.1142E+04
      6.068  0.4193E+03  0.1164E+04
      6.120  0.3961E+03  0.1184E+04
      6.172  0.3745E+03  0.1204E+04
      6.223  0.3627E+03  0.1223E+04
      6.275  0.3562E+03  0.1241E+04
      6.327  0.3555E+03  0.1259E+04
      6.379  0.3666E+03  0.1278E+04
      6.431  0.3808E+03  0.1298E+04
      6.483  0.3842E+03  0.1318E+04
      6.534  0.3891E+03  0.1338E+04
      6.586  0.4064E+03  0.1359E+04
      6.638  0.4224E+03  0.1381E+04
      6.690  0.4281E+03  0.1403E+04
      6.742  0.4264E+03  0.1425E+04
      6.794  0.4163E+03  0.1447E+04
      6.845  0.3961E+03  0.1468E+04
      6.897  0.3758E+03  0.1487E+04
      6.949  0.3671E+03  0.1506E+04
      7.001  0.3642E+03  0.1525E+04
      7.053  0.3658E+03  0.1544E+04
      7.105  0.3858E+03  0.1564E+04
      7.156  0.4115E+03  0.1585E+04
      7.208  0.4217E+03  0.1607E+04
      7.260  0.4226E+03  0.1629E+04
      7.312  0.4166E+03  0.1651E+04
      7.364  0.3942E+03  0.1671E+04
      7.415  0.3641E+03  0.1690E+04
      7.467  0.3429E+03  0.1708E+04
      7.519  0.3334E+03  0.1725E+04
      7.571  0.3298E+03  0.1742E+04
      7.623  0.3205E+03  0.1759E+04
      7.675  0.3003E+03  0.1774E+04
      7.726  0.2804E+03  0.1789E+04
      7.778  0.2699E+03  0.1803E+04
      7.830  0.2646E+03  0.1816E+04
      7.882  0.2591E+03  0.1830E+04
      7.934  0.2504E+03  0.1843E+04
      7.986  0.2433E+03  0.1855E+04
      8.037  0.2432E+03  0.1868E+04
      8.089  0.2408E+03  0.1881E+04
      8.141  0.2329E+03  0.1893E+04
      8.193  0.2287E+03  0.1904E+04
      8.245  0.2321E+03  0.1917E+04
      8.297  0.2371E+03  0.1929E+04
      8.348  0.2391E+03  0.1941E+04
      8.400  0.2380E+03  0.1954E+04
      8.452  0.2312E+03  0.1966E+04
      8.504  0.2206E+03  0.1977E+04
      8.556  0.2132E+03  0.1988E+04
      8.608  0.2084E+03  0.1999E+04
      8.659  0.2016E+03  0.2009E+04
      8.711  0.1934E+03  0.2019E+04
      8.763  0.1849E+03  0.2029E+04
      8.815  0.1796E+03  0.2038E+04
      8.867  0.1847E+03  0.2048E+04
      8.919  0.2064E+03  0.2058E+04
      8.970  0.2318E+03  0.2070E+04
      9.022  0.2379E+03  0.2083E+04
      9.074  0.2270E+03  0.2095E+04
      9.126  0.2108E+03  0.2105E+04
      9.178  0.1915E+03  0.2115E+04
      9.229  0.1788E+03  0.2125E+04
      9.281  0.1907E+03  0.2135E+04
      9.333  0.2215E+03  0.2146E+04
      9.385  0.2415E+03  0.2159E+04
      9.437  0.2431E+03  0.2171E+04
      9.489  0.2442E+03  0.2184E+04
      9.540  0.2450E+03  0.2196E+04
      9.592  0.2441E+03  0.2209E+04
      9.644  0.2647E+03  0.2223E+04
      9.696  0.3078E+03  0.2239E+04
      9.748  0.3345E+03  0.2256E+04
      9.800  0.3297E+03  0.2273E+04
      9.851  0.3181E+03  0.2290E+04
      9.903  0.3149E+03  0.2306E+04
      9.955  0.3191E+03  0.2323E+04
     10.007  0.3357E+03  0.2340E+04
     10.059  0.3695E+03  0.2359E+04
     10.111  0.4057E+03  0.2380E+04
     10.162  0.4258E+03  0.2402E+04
     10.214  0.4340E+03  0.2425E+04
     10.266  0.4446E+03  0.2448E+04
     10.318  0.4616E+03  0.2472E+04
     10.370  0.4803E+03  0.2497E+04
     10.422  0.4930E+03  0.2522E+04
     10.473  0.4909E+03  0.2548E+04
     10.525  0.4622E+03  0.2572E+04
     10.577  0.4078E+03  0.2593E+04
     10.629  0.3433E+03  0.2610E+04
     10.681  0.2676E+03  0.2624E+04
     10.733  0.1714E+03  0.2633E+04
     10.784  0.7461E+02  0.2637E+04
     10.836  0.1330E+02  0.2638E+04
     10.888 -0.5130E+01  0.2637E+04
     10.940 -0.3810E+01  0.2637E+04
     10.992 -0.1046E+01  0.2637E+04
     11.044 -0.1648E+00  0.2637E+04
     11.095 -0.1729E-01  0.2637E+04
     11.147 -0.1287E-02  0.2637E+04
     11.199 -0.6586E-04  0.2637E+04
     11.251 -0.2150E-05  0.2637E+04
     11.303 -0.4239E-07  0.2637E+04
     11.354 -0.4917E-09  0.2637E+04
     11.406 -0.3343E-11  0.2637E+04
     11.458 -0.6175E-11  0.2637E+04
     11.510 -0.9411E-09  0.2637E+04
     11.562 -0.8330E-07  0.2637E+04
     11.614 -0.4257E-05  0.2637E+04
     11.665 -0.1247E-03  0.2637E+04
     11.717 -0.2060E-02  0.2637E+04
     11.769 -0.1853E-01  0.2637E+04
     11.821 -0.8195E-01  0.2637E+04
     11.873 -0.1033E+00  0.2637E+04
     11.925  0.4415E+00  0.2637E+04
     11.976  0.1805E+01  0.2637E+04
     12.028  0.2587E+01  0.2637E+04
     12.080  0.1827E+01  0.2638E+04
     12.132  0.9354E+00  0.2638E+04
     12.184  0.7385E+00  0.2638E+04
     12.236  0.1180E+01  0.2638E+04
     12.287  0.2284E+01  0.2638E+04
     12.339  0.3070E+01  0.2638E+04
     12.391  0.3019E+01  0.2638E+04
     12.443  0.2563E+01  0.2638E+04
     12.495  0.1867E+01  0.2638E+04
     12.547  0.1676E+01  0.2638E+04
     12.598  0.2340E+01  0.2639E+04
     12.650  0.3046E+01  0.2639E+04
     12.702  0.3755E+01  0.2639E+04
     12.754  0.3923E+01  0.2639E+04
     12.806  0.2972E+01  0.2639E+04
     12.858  0.2393E+01  0.2639E+04
     12.909  0.2418E+01  0.2640E+04
     12.961  0.1884E+01  0.2640E+04
     13.013  0.1263E+01  0.2640E+04
     13.065  0.1006E+01  0.2640E+04
     13.117  0.8818E+00  0.2640E+04
     13.168  0.9798E+00  0.2640E+04
     13.220  0.1143E+01  0.2640E+04
     13.272  0.1081E+01  0.2640E+04
     13.324  0.6544E+00  0.2640E+04
     13.376  0.1502E+00  0.2640E+04
     13.428 -0.4450E-01  0.2640E+04
     13.479 -0.3223E-01  0.2640E+04
     13.531 -0.7007E-02  0.2640E+04
     13.583 -0.7383E-03  0.2640E+04
     13.635 -0.4158E-04  0.2640E+04
     13.687 -0.1300E-05  0.2640E+04
     13.739 -0.2298E-07  0.2640E+04
     13.790 -0.2320E-09  0.2640E+04
     13.842 -0.1346E-11  0.2640E+04
     13.894 -0.4760E-14  0.2640E+04
     13.946  0.0000E+00  0.2640E+04
     13.998  0.0000E+00  0.2640E+04
     14.050  0.0000E+00  0.2640E+04
     14.101  0.0000E+00  0.2640E+04
     14.153  0.0000E+00  0.2640E+04
     14.205  0.0000E+00  0.2640E+04
     14.257  0.0000E+00  0.2640E+04
