       N       E                     dE             d eps       ncg     rms          rms(c)
DAV:   1     0.112830542533E+05    0.11283E+05   -0.55466E+05 95400   0.810E+02
DAV:   2    -0.143891480728E+04   -0.12722E+05   -0.12145E+05 95800   0.337E+02
DAV:   3    -0.241091780401E+04   -0.97200E+03   -0.89401E+03135240   0.780E+01
DAV:   4    -0.248226628525E+04   -0.71348E+02   -0.68918E+02132160   0.209E+01
DAV:   5    -0.248510982495E+04   -0.28435E+01   -0.27874E+01139720   0.331E+00    0.779E+01
RMM:   6    -0.241636174082E+04    0.68748E+02   -0.68044E+02105874   0.245E+01    0.622E+01
RMM:   7    -0.237000456866E+04    0.46357E+02   -0.35213E+02 97748   0.172E+01    0.455E+01
RMM:   8    -0.233986750495E+04    0.30137E+02   -0.15693E+02 97718   0.114E+01    0.321E+01
RMM:   9    -0.231571581375E+04    0.24152E+02   -0.34458E+01 98772   0.531E+00    0.646E+00
RMM:  10    -0.231557770393E+04    0.13811E+00   -0.72576E+00137360   0.147E+00    0.405E+00
RMM:  11    -0.231535150005E+04    0.22620E+00   -0.13533E+00124090   0.701E-01    0.376E+00
RMM:  12    -0.231488884758E+04    0.46265E+00   -0.63874E-01110005   0.797E-01    0.196E+00
RMM:  13    -0.231480011549E+04    0.88732E-01   -0.25083E-01114360   0.415E-01    0.157E+00
RMM:  14    -0.231478916180E+04    0.10954E-01   -0.14562E-01119630   0.245E-01    0.169E+00
RMM:  15    -0.231472782980E+04    0.61332E-01   -0.91563E-02112955   0.236E-01    0.910E-01
RMM:  16    -0.231471590425E+04    0.11926E-01   -0.23370E-02112203   0.121E-01    0.427E-01
RMM:  17    -0.231471470099E+04    0.12033E-02   -0.10185E-02123481   0.637E-02    0.300E-01
RMM:  18    -0.231471385334E+04    0.84765E-03   -0.72044E-03124570   0.565E-02    0.185E-01
RMM:  19    -0.231471410147E+04   -0.24813E-03   -0.33493E-03129333   0.367E-02    0.196E-01
RMM:  20    -0.231471355650E+04    0.54497E-03   -0.53727E-04113171   0.177E-02    0.125E-01
RMM:  21    -0.231471321043E+04    0.34607E-03   -0.72421E-04116803   0.202E-02    0.413E-02
RMM:  22    -0.231471317430E+04    0.36137E-04   -0.26144E-04134045   0.987E-03
   1 F= -.23147132E+04 E0= -.23147208E+04  d E =0.229198E-01
