       N       E                     dE             d eps       ncg     rms          rms(c)
DAV:   1     0.112830453685E+05    0.11283E+05   -0.55466E+05 95400   0.810E+02
DAV:   2    -0.143839292570E+04   -0.12721E+05   -0.12145E+05 95780   0.337E+02
DAV:   3    -0.241074262740E+04   -0.97235E+03   -0.89415E+03135140   0.780E+01
DAV:   4    -0.248225419937E+04   -0.71512E+02   -0.69076E+02132160   0.209E+01
DAV:   5    -0.248511191253E+04   -0.28577E+01   -0.28013E+01140080   0.332E+00    0.779E+01
RMM:   6    -0.241637479238E+04    0.68737E+02   -0.68038E+02105860   0.245E+01    0.622E+01
RMM:   7    -0.236998201280E+04    0.46393E+02   -0.35206E+02 97765   0.172E+01    0.455E+01
RMM:   8    -0.233984155618E+04    0.30140E+02   -0.15697E+02 97687   0.114E+01    0.321E+01
RMM:   9    -0.231563258394E+04    0.24209E+02   -0.34477E+01 98737   0.532E+00    0.620E+00
RMM:  10    -0.231543839385E+04    0.19419E+00   -0.73617E+00136595   0.152E+00    0.355E+00
RMM:  11    -0.231533054595E+04    0.10785E+00   -0.13336E+00121448   0.759E-01    0.399E+00
RMM:  12    -0.231489449771E+04    0.43605E+00   -0.53948E-01114696   0.620E-01    0.205E+00
RMM:  13    -0.231477630627E+04    0.11819E+00   -0.25572E-01111863   0.440E-01    0.131E+00
RMM:  14    -0.231474170454E+04    0.34602E-01   -0.14971E-01111018   0.330E-01    0.124E+00
RMM:  15    -0.231472553167E+04    0.16173E-01   -0.44343E-02118070   0.145E-01    0.843E-01
RMM:  16    -0.231471497320E+04    0.10558E-01   -0.14298E-02120793   0.803E-02    0.467E-01
RMM:  17    -0.231471181429E+04    0.31589E-02   -0.12988E-02117641   0.837E-02    0.205E-01
RMM:  18    -0.231471269104E+04   -0.87675E-03   -0.92242E-03131531   0.603E-02    0.231E-01
RMM:  19    -0.231471253565E+04    0.15540E-03   -0.18080E-03137620   0.216E-02    0.218E-01
RMM:  20    -0.231471185739E+04    0.67825E-03   -0.57034E-04112871   0.184E-02    0.136E-01
RMM:  21    -0.231471147044E+04    0.38696E-03   -0.10526E-03120951   0.231E-02    0.390E-02
RMM:  22    -0.231471144205E+04    0.28381E-04   -0.29052E-04137611   0.977E-03
   1 F= -.23147114E+04 E0= -.23147191E+04  d E =0.229479E-01
