  64  64   0   0
  0.1401117E+02  0.1082405E-08  0.1082405E-08  0.1082405E-08  0.5000000E-15
  1.000000000000000E-004
  CAR 
 Ir_Ru                                   
     14.65566447     -0.73933208  301      8.87827935      1.00000000
     -0.739  0.0000E+00  0.0000E+00
     -0.688  0.0000E+00  0.0000E+00
     -0.637  0.0000E+00  0.0000E+00
     -0.585 -0.6093E-31 -0.3127E-32
     -0.534 -0.2596E-27 -0.1332E-28
     -0.483 -0.6505E-24 -0.3339E-25
     -0.431 -0.9579E-21 -0.4919E-22
     -0.380 -0.8283E-18 -0.4255E-19
     -0.329 -0.4028E-15 -0.2071E-16
     -0.277 -0.1206E-12 -0.6209E-14
     -0.226 -0.2079E-10 -0.1073E-11
     -0.175 -0.2083E-08 -0.1080E-09
     -0.124 -0.1207E-06 -0.6302E-08
     -0.072 -0.4011E-05 -0.2121E-06
     -0.021 -0.7540E-04 -0.4082E-05
      0.030 -0.7857E-03 -0.4440E-04
      0.082 -0.4403E-02 -0.2703E-03
      0.133 -0.1291E-01 -0.9327E-03
      0.184 -0.1988E-01 -0.1953E-02
      0.236  0.3367E-02 -0.1780E-02
      0.287  0.2280E+00  0.9921E-02
      0.338  0.9245E+00  0.5736E-01
      0.390  0.1611E+01  0.1401E+00
      0.441  0.1413E+01  0.2126E+00
      0.492  0.1019E+01  0.2649E+00
      0.544  0.1535E+01  0.3436E+00
      0.595  0.2880E+01  0.4915E+00
      0.646  0.4123E+01  0.7030E+00
      0.698  0.3460E+01  0.8806E+00
      0.749  0.1373E+01  0.9510E+00
      0.800  0.6275E+00  0.9832E+00
      0.851  0.2358E+01  0.1104E+01
      0.903  0.5138E+01  0.1368E+01
      0.954  0.5698E+01  0.1660E+01
      1.005  0.4065E+01  0.1869E+01
      1.057  0.3635E+01  0.2055E+01
      1.108  0.4576E+01  0.2290E+01
      1.159  0.4623E+01  0.2527E+01
      1.211  0.2739E+01  0.2668E+01
      1.262  0.1196E+01  0.2729E+01
      1.313  0.3253E+01  0.2896E+01
      1.365  0.8177E+01  0.3316E+01
      1.416  0.9935E+01  0.3826E+01
      1.467  0.6511E+01  0.4160E+01
      1.519  0.4657E+01  0.4399E+01
      1.570  0.6361E+01  0.4725E+01
      1.621  0.6881E+01  0.5078E+01
      1.673  0.4442E+01  0.5306E+01
      1.724  0.2019E+01  0.5410E+01
      1.775  0.3686E+01  0.5599E+01
      1.827  0.8676E+01  0.6044E+01
      1.878  0.1233E+02  0.6677E+01
      1.929  0.1271E+02  0.7330E+01
      1.980  0.1087E+02  0.7888E+01
      2.032  0.9191E+01  0.8359E+01
      2.083  0.8902E+01  0.8816E+01
      2.134  0.9535E+01  0.9305E+01
      2.186  0.9079E+01  0.9771E+01
      2.237  0.7977E+01  0.1018E+02
      2.288  0.1249E+02  0.1082E+02
      2.340  0.2473E+02  0.1209E+02
      2.391  0.3499E+02  0.1389E+02
      2.442  0.3742E+02  0.1581E+02
      2.494  0.3861E+02  0.1779E+02
      2.545  0.3850E+02  0.1976E+02
      2.596  0.3576E+02  0.2160E+02
      2.648  0.3614E+02  0.2345E+02
      2.699  0.3799E+02  0.2540E+02
      2.750  0.4160E+02  0.2754E+02
      2.802  0.5152E+02  0.3018E+02
      2.853  0.5903E+02  0.3321E+02
      2.904  0.5635E+02  0.3610E+02
      2.955  0.5224E+02  0.3878E+02
      3.007  0.5404E+02  0.4156E+02
      3.058  0.6006E+02  0.4464E+02
      3.109  0.6738E+02  0.4810E+02
      3.161  0.6930E+02  0.5165E+02
      3.212  0.6693E+02  0.5509E+02
      3.263  0.7009E+02  0.5868E+02
      3.315  0.7996E+02  0.6279E+02
      3.366  0.9626E+02  0.6773E+02
      3.417  0.1138E+03  0.7357E+02
      3.469  0.1187E+03  0.7966E+02
      3.520  0.1170E+03  0.8566E+02
      3.571  0.1196E+03  0.9180E+02
      3.623  0.1112E+03  0.9751E+02
      3.674  0.9280E+02  0.1023E+03
      3.725  0.9367E+02  0.1071E+03
      3.777  0.1113E+03  0.1128E+03
      3.828  0.1127E+03  0.1186E+03
      3.879  0.9390E+02  0.1234E+03
      3.930  0.7536E+02  0.1273E+03
      3.982  0.7017E+02  0.1309E+03
      4.033  0.8090E+02  0.1350E+03
      4.084  0.9168E+02  0.1397E+03
      4.136  0.8618E+02  0.1441E+03
      4.187  0.7525E+02  0.1480E+03
      4.238  0.7055E+02  0.1516E+03
      4.290  0.6732E+02  0.1551E+03
      4.341  0.6205E+02  0.1583E+03
      4.392  0.6493E+02  0.1616E+03
      4.444  0.7312E+02  0.1653E+03
      4.495  0.6454E+02  0.1687E+03
      4.546  0.4842E+02  0.1711E+03
      4.598  0.5278E+02  0.1738E+03
      4.649  0.7501E+02  0.1777E+03
      4.700  0.8960E+02  0.1823E+03
      4.752  0.8057E+02  0.1864E+03
      4.803  0.6233E+02  0.1896E+03
      4.854  0.6099E+02  0.1928E+03
      4.905  0.7575E+02  0.1966E+03
      4.957  0.8262E+02  0.2009E+03
      5.008  0.7533E+02  0.2048E+03
      5.059  0.6579E+02  0.2081E+03
      5.111  0.6064E+02  0.2112E+03
      5.162  0.6159E+02  0.2144E+03
      5.213  0.6702E+02  0.2178E+03
      5.265  0.7617E+02  0.2217E+03
      5.316  0.9059E+02  0.2264E+03
      5.367  0.9731E+02  0.2314E+03
      5.419  0.8221E+02  0.2356E+03
      5.470  0.6210E+02  0.2388E+03
      5.521  0.6300E+02  0.2420E+03
      5.573  0.7768E+02  0.2460E+03
      5.624  0.8516E+02  0.2504E+03
      5.675  0.8701E+02  0.2548E+03
      5.727  0.9359E+02  0.2597E+03
      5.778  0.9075E+02  0.2643E+03
      5.829  0.7163E+02  0.2680E+03
      5.881  0.6094E+02  0.2711E+03
      5.932  0.6298E+02  0.2743E+03
      5.983  0.6576E+02  0.2777E+03
      6.034  0.7453E+02  0.2815E+03
      6.086  0.9053E+02  0.2862E+03
      6.137  0.1015E+03  0.2914E+03
      6.188  0.9980E+02  0.2965E+03
      6.240  0.9961E+02  0.3016E+03
      6.291  0.1119E+03  0.3074E+03
      6.342  0.1206E+03  0.3136E+03
      6.394  0.1270E+03  0.3201E+03
      6.445  0.1456E+03  0.3276E+03
      6.496  0.1581E+03  0.3357E+03
      6.548  0.1492E+03  0.3433E+03
      6.599  0.1324E+03  0.3501E+03
      6.650  0.1193E+03  0.3562E+03
      6.702  0.1106E+03  0.3619E+03
      6.753  0.9973E+02  0.3670E+03
      6.804  0.8351E+02  0.3713E+03
      6.856  0.7104E+02  0.3750E+03
      6.907  0.6834E+02  0.3785E+03
      6.958  0.7583E+02  0.3824E+03
      7.009  0.8652E+02  0.3868E+03
      7.061  0.9045E+02  0.3914E+03
      7.112  0.9013E+02  0.3961E+03
      7.163  0.8508E+02  0.4004E+03
      7.215  0.7189E+02  0.4041E+03
      7.266  0.6098E+02  0.4073E+03
      7.317  0.6196E+02  0.4104E+03
      7.369  0.6872E+02  0.4140E+03
      7.420  0.6609E+02  0.4174E+03
      7.471  0.5777E+02  0.4203E+03
      7.523  0.5851E+02  0.4233E+03
      7.574  0.6496E+02  0.4267E+03
      7.625  0.7259E+02  0.4304E+03
      7.677  0.7911E+02  0.4344E+03
      7.728  0.7622E+02  0.4383E+03
      7.779  0.6734E+02  0.4418E+03
      7.831  0.6378E+02  0.4451E+03
      7.882  0.6994E+02  0.4487E+03
      7.933  0.8488E+02  0.4530E+03
      7.984  0.9625E+02  0.4580E+03
      8.036  0.9396E+02  0.4628E+03
      8.087  0.8553E+02  0.4672E+03
      8.138  0.7556E+02  0.4711E+03
      8.190  0.6886E+02  0.4746E+03
      8.241  0.7052E+02  0.4782E+03
      8.292  0.7750E+02  0.4822E+03
      8.344  0.8847E+02  0.4867E+03
      8.395  0.9125E+02  0.4914E+03
      8.446  0.7168E+02  0.4951E+03
      8.498  0.4470E+02  0.4974E+03
      8.549  0.4578E+02  0.4997E+03
      8.600  0.7354E+02  0.5035E+03
      8.652  0.8881E+02  0.5081E+03
      8.703  0.8660E+02  0.5125E+03
      8.754  0.8832E+02  0.5170E+03
      8.806  0.9306E+02  0.5218E+03
      8.857  0.8824E+02  0.5263E+03
      8.908  0.7269E+02  0.5301E+03
      8.960  0.5654E+02  0.5330E+03
      9.011  0.4453E+02  0.5353E+03
      9.062  0.3750E+02  0.5372E+03
      9.113  0.4429E+02  0.5394E+03
      9.165  0.6037E+02  0.5425E+03
      9.216  0.6441E+02  0.5459E+03
      9.267  0.5504E+02  0.5487E+03
      9.319  0.4987E+02  0.5512E+03
      9.370  0.6308E+02  0.5545E+03
      9.421  0.8697E+02  0.5589E+03
      9.473  0.9542E+02  0.5638E+03
      9.524  0.8059E+02  0.5680E+03
      9.575  0.6401E+02  0.5713E+03
      9.627  0.6348E+02  0.5745E+03
      9.678  0.6323E+02  0.5778E+03
      9.729  0.5468E+02  0.5806E+03
      9.781  0.5453E+02  0.5834E+03
      9.832  0.6169E+02  0.5865E+03
      9.883  0.6835E+02  0.5900E+03
      9.935  0.7858E+02  0.5941E+03
      9.986  0.8815E+02  0.5986E+03
     10.037  0.8842E+02  0.6031E+03
     10.088  0.8706E+02  0.6076E+03
     10.140  0.9184E+02  0.6123E+03
     10.191  0.9375E+02  0.6171E+03
     10.242  0.8600E+02  0.6215E+03
     10.294  0.7629E+02  0.6254E+03
     10.345  0.6959E+02  0.6290E+03
     10.396  0.6154E+02  0.6322E+03
     10.448  0.5022E+02  0.6348E+03
     10.499  0.3659E+02  0.6366E+03
     10.550  0.2353E+02  0.6378E+03
     10.602  0.1472E+02  0.6386E+03
     10.653  0.9248E+01  0.6391E+03
     10.704  0.4589E+01  0.6393E+03
     10.756  0.1308E+01  0.6394E+03
     10.807  0.6425E-01  0.6394E+03
     10.858 -0.1214E+00  0.6394E+03
     10.910 -0.7785E-01  0.6394E+03
     10.961 -0.2828E-01  0.6394E+03
     11.012 -0.5994E-02  0.6394E+03
     11.063 -0.7251E-03  0.6394E+03
     11.115 -0.5008E-04  0.6394E+03
     11.166 -0.2290E-05  0.6394E+03
     11.217 -0.1141E-04  0.6394E+03
     11.269 -0.2420E-03  0.6394E+03
     11.320 -0.2829E-02  0.6394E+03
     11.371 -0.1695E-01  0.6394E+03
     11.423 -0.4037E-01  0.6394E+03
     11.474  0.4087E-01  0.6394E+03
     11.525  0.3910E+00  0.6394E+03
     11.577  0.7488E+00  0.6394E+03
     11.628  0.7170E+00  0.6395E+03
     11.679  0.5724E+00  0.6395E+03
     11.731  0.4824E+00  0.6395E+03
     11.782  0.2435E+00  0.6395E+03
     11.833  0.2251E-01  0.6395E+03
     11.885 -0.3037E-01  0.6395E+03
     11.936 -0.2595E-01  0.6395E+03
     11.987 -0.2979E-01  0.6395E+03
     12.039  0.4380E-01  0.6395E+03
     12.090  0.3208E+00  0.6395E+03
     12.141  0.6480E+00  0.6396E+03
     12.192  0.6621E+00  0.6396E+03
     12.244  0.4335E+00  0.6396E+03
     12.295  0.2742E+00  0.6396E+03
     12.346  0.1516E+00  0.6396E+03
     12.398  0.2969E-01  0.6396E+03
     12.449 -0.1852E-01  0.6396E+03
     12.500 -0.2719E-01  0.6396E+03
     12.552 -0.3290E-01  0.6396E+03
     12.603  0.3155E-01  0.6396E+03
     12.654  0.3338E+00  0.6397E+03
     12.706  0.1004E+01  0.6397E+03
     12.757  0.1616E+01  0.6398E+03
     12.808  0.1454E+01  0.6399E+03
     12.860  0.8512E+00  0.6399E+03
     12.911  0.5817E+00  0.6399E+03
     12.962  0.5002E+00  0.6400E+03
     13.014  0.2506E+00  0.6400E+03
     13.065  0.2272E-01  0.6400E+03
     13.116 -0.2887E-01  0.6400E+03
     13.167 -0.1201E-01  0.6400E+03
     13.219 -0.2028E-02  0.6400E+03
     13.270 -0.1763E-03  0.6400E+03
     13.321 -0.1208E-04  0.6400E+03
     13.373 -0.6974E-04  0.6400E+03
     13.424 -0.7161E-03  0.6400E+03
     13.475 -0.3676E-02  0.6400E+03
     13.527 -0.6405E-02  0.6400E+03
     13.578  0.1593E-01  0.6400E+03
     13.629  0.8396E-01  0.6400E+03
     13.681  0.1306E+00  0.6400E+03
     13.732  0.8595E-01  0.6400E+03
     13.783  0.1718E-01  0.6400E+03
     13.835 -0.6309E-02  0.6400E+03
     13.886 -0.3795E-02  0.6400E+03
     13.937 -0.7547E-03  0.6400E+03
     13.989 -0.7451E-04  0.6400E+03
     14.040 -0.3996E-05  0.6400E+03
     14.091 -0.1206E-06  0.6400E+03
     14.142 -0.2082E-08  0.6400E+03
     14.194 -0.2078E-10  0.6400E+03
     14.245 -0.1206E-12  0.6400E+03
     14.296 -0.4154E-15  0.6400E+03
     14.348  0.0000E+00  0.6400E+03
     14.399  0.0000E+00  0.6400E+03
     14.450  0.0000E+00  0.6400E+03
     14.502  0.0000E+00  0.6400E+03
     14.553  0.0000E+00  0.6400E+03
     14.604  0.0000E+00  0.6400E+03
     14.656  0.0000E+00  0.6400E+03
