       N       E                     dE             d eps       ncg     rms          rms(c)
RMM:   1     0.324192658391E+04    0.32419E+04   -0.11390E+05 12480   0.730E+02
RMM:   2     0.272915602237E+03   -0.29690E+04   -0.31421E+04 12480   0.259E+02
RMM:   3    -0.275287712547E+03   -0.54820E+03   -0.53518E+03 12480   0.109E+02
RMM:   4    -0.463466559600E+03   -0.18818E+03   -0.13434E+03 12480   0.757E+01
RMM:   5    -0.530942568272E+03   -0.67476E+02   -0.59494E+02 12480   0.446E+01
RMM:   6    -0.566309251744E+03   -0.35367E+02   -0.31532E+02 12480   0.352E+01
RMM:   7    -0.585821122351E+03   -0.19512E+02   -0.18522E+02 12480   0.238E+01
RMM:   8    -0.598082881702E+03   -0.12262E+02   -0.11454E+02 12480   0.201E+01
RMM:   9    -0.619247695026E+03   -0.21165E+02   -0.20852E+02 36660   0.142E+01
RMM:  10    -0.621726953288E+03   -0.24793E+01   -0.29455E+01 39204   0.304E+00
RMM:  11    -0.622281086159E+03   -0.55413E+00   -0.32827E+00 37436   0.751E-01
RMM:  12    -0.622350473935E+03   -0.69388E-01   -0.39858E-01 38561   0.211E-01    0.386E+01
RMM:  13    -0.587684814042E+03    0.34666E+02   -0.84828E+01 25380   0.218E+01    0.155E+01
RMM:  14    -0.585797269889E+03    0.18875E+01   -0.51337E+01 26107   0.141E+01    0.123E+01
RMM:  15    -0.582243123775E+03    0.35541E+01   -0.10353E+01 27773   0.560E+00    0.193E+00
RMM:  16    -0.582171232254E+03    0.71892E-01   -0.13720E+00 34473   0.142E+00    0.191E+00
RMM:  17    -0.581962447006E+03    0.20879E+00   -0.71875E-01 27620   0.210E+00    0.100E+00
RMM:  18    -0.581940503222E+03    0.21944E-01   -0.82732E-02 34228   0.351E-01    0.757E-01
RMM:  19    -0.581927310448E+03    0.13193E-01   -0.34048E-02 29584   0.346E-01    0.256E-01
RMM:  20    -0.581927399985E+03   -0.89537E-04   -0.11926E-02 32954   0.142E-01    0.181E-01
RMM:  21    -0.581927439226E+03   -0.39241E-04   -0.28265E-03 32887   0.706E-02    0.130E-01
RMM:  22    -0.581927350786E+03    0.88440E-04   -0.75976E-04 31039   0.428E-02
   1 F= -.58192735E+03 E0= -.58192466E+03  d E =-.808562E-02
