<?xml version="1.0" encoding="ISO-8859-1"?>
<modeling>
 <generator>
  <i name="program" type="string">vasp </i>
  <i name="version" type="string">5.4.1  </i>
  <i name="subversion" type="string">24Jun15 (build Feb 03 2017 16:24:58) complex                          parallel </i>
  <i name="platform" type="string">IFC91_ompi </i>
  <i name="date" type="string">2018 06 25 </i>
  <i name="time" type="string">12:29:15 </i>
 </generator>
 <incar>
  <i type="string" name="SYSTEM"> Ir_Ru</i>
  <i type="int" name="ISTART">     0</i>
  <i type="string" name="PREC">accurate</i>
  <i type="string" name="ALGO"> Very_Fast</i>
  <i type="int" name="ICHARG">     2</i>
  <i type="int" name="NELMIN">     5</i>
  <i type="int" name="IBRION">    -1</i>
  <i name="EDIFFG">      0.00001000</i>
  <i type="int" name="ISIF">     2</i>
  <i type="string" name="LREAL"> AUTO</i>
  <i type="int" name="ISMEAR">     1</i>
  <i name="SIGMA">      0.10000000</i>
  <v type="int" name="KPOINT_BSE">    -1     0     0     0</v>
 </incar>
 <kpoints>
  <generation param="Gamma">
   <v type="int" name="divisions">       5        5        5 </v>
   <v name="usershift">      0.00000000       0.00000000       0.00000000 </v>
   <v name="genvec1">      0.20000000       0.00000000       0.00000000 </v>
   <v name="genvec2">      0.00000000       0.20000000       0.00000000 </v>
   <v name="genvec3">      0.00000000       0.00000000       0.20000000 </v>
   <v name="shift">      0.00000000       0.00000000       0.00000000 </v>
  </generation>
  <varray name="kpointlist" >
   <v>       0.00000000       0.00000000       0.00000000 </v>
   <v>       0.20000000       0.00000000       0.00000000 </v>
   <v>       0.40000000       0.00000000       0.00000000 </v>
   <v>       0.20000000       0.20000000       0.00000000 </v>
   <v>       0.40000000       0.20000000       0.00000000 </v>
   <v>      -0.40000000       0.20000000       0.00000000 </v>
   <v>      -0.20000000       0.20000000       0.00000000 </v>
   <v>       0.40000000       0.40000000       0.00000000 </v>
   <v>      -0.40000000       0.40000000       0.00000000 </v>
   <v>       0.00000000       0.00000000       0.20000000 </v>
   <v>       0.20000000       0.00000000       0.20000000 </v>
   <v>       0.40000000       0.00000000       0.20000000 </v>
   <v>      -0.40000000       0.00000000       0.20000000 </v>
   <v>      -0.20000000       0.00000000       0.20000000 </v>
   <v>       0.20000000       0.20000000       0.20000000 </v>
   <v>       0.40000000       0.20000000       0.20000000 </v>
   <v>      -0.40000000       0.20000000       0.20000000 </v>
   <v>      -0.20000000       0.20000000       0.20000000 </v>
   <v>       0.40000000       0.40000000       0.20000000 </v>
   <v>      -0.40000000       0.40000000       0.20000000 </v>
   <v>      -0.20000000       0.40000000       0.20000000 </v>
   <v>      -0.40000000      -0.40000000       0.20000000 </v>
   <v>      -0.20000000      -0.40000000       0.20000000 </v>
   <v>      -0.20000000      -0.20000000       0.20000000 </v>
   <v>       0.00000000       0.00000000       0.40000000 </v>
   <v>       0.20000000       0.00000000       0.40000000 </v>
   <v>       0.40000000       0.00000000       0.40000000 </v>
   <v>      -0.40000000       0.00000000       0.40000000 </v>
   <v>      -0.20000000       0.00000000       0.40000000 </v>
   <v>       0.20000000       0.20000000       0.40000000 </v>
   <v>       0.40000000       0.20000000       0.40000000 </v>
   <v>      -0.40000000       0.20000000       0.40000000 </v>
   <v>      -0.20000000       0.20000000       0.40000000 </v>
   <v>       0.40000000       0.40000000       0.40000000 </v>
   <v>      -0.40000000       0.40000000       0.40000000 </v>
   <v>      -0.20000000       0.40000000       0.40000000 </v>
   <v>      -0.40000000      -0.40000000       0.40000000 </v>
   <v>      -0.20000000      -0.40000000       0.40000000 </v>
   <v>      -0.20000000      -0.20000000       0.40000000 </v>
  </varray>
  <varray name="weights" >
   <v>       0.00800000 </v>
   <v>       0.03200000 </v>
   <v>       0.03200000 </v>
   <v>       0.01600000 </v>
   <v>       0.03200000 </v>
   <v>       0.03200000 </v>
   <v>       0.01600000 </v>
   <v>       0.01600000 </v>
   <v>       0.01600000 </v>
   <v>       0.01600000 </v>
   <v>       0.03200000 </v>
   <v>       0.03200000 </v>
   <v>       0.03200000 </v>
   <v>       0.03200000 </v>
   <v>       0.01600000 </v>
   <v>       0.03200000 </v>
   <v>       0.03200000 </v>
   <v>       0.03200000 </v>
   <v>       0.01600000 </v>
   <v>       0.03200000 </v>
   <v>       0.03200000 </v>
   <v>       0.01600000 </v>
   <v>       0.03200000 </v>
   <v>       0.01600000 </v>
   <v>       0.01600000 </v>
   <v>       0.03200000 </v>
   <v>       0.03200000 </v>
   <v>       0.03200000 </v>
   <v>       0.03200000 </v>
   <v>       0.01600000 </v>
   <v>       0.03200000 </v>
   <v>       0.03200000 </v>
   <v>       0.03200000 </v>
   <v>       0.01600000 </v>
   <v>       0.03200000 </v>
   <v>       0.03200000 </v>
   <v>       0.01600000 </v>
   <v>       0.03200000 </v>
   <v>       0.01600000 </v>
  </varray>
 </kpoints>
 <parameters>
  <separator name="general" >
   <i type="string" name="SYSTEM">Ir_Ru</i>
   <i type="logical" name="LCOMPAT"> F  </i>
  </separator>
  <separator name="electronic" >
   <i type="string" name="PREC">accura</i>
   <i name="ENMAX">    213.27600000</i>
   <i name="ENAUG">    333.49400000</i>
   <i name="EDIFF">      0.00010000</i>
   <i type="int" name="IALGO">    48</i>
   <i type="int" name="IWAVPR">    10</i>
   <i type="int" name="NBANDS">   320</i>
   <i name="NELECT">    528.00000000</i>
   <i type="int" name="TURBO">     0</i>
   <i type="int" name="IRESTART">     0</i>
   <i type="int" name="NREBOOT">     0</i>
   <i type="int" name="NMIN">     0</i>
   <i name="EREF">      0.00000000</i>
   <separator name="electronic smearing" >
    <i type="int" name="ISMEAR">     1</i>
    <i name="SIGMA">      0.10000000</i>
    <i name="KSPACING">      0.50000000</i>
    <i type="logical" name="KGAMMA"> T  </i>
   </separator>
   <separator name="electronic projectors" >
    <i type="logical" name="LREAL"> T  </i>
    <v name="ROPT">     -0.00025000     -0.00025000</v>
    <i type="int" name="LMAXPAW">  -100</i>
    <i type="int" name="LMAXMIX">     2</i>
    <i type="logical" name="NLSPLINE"> F  </i>
   </separator>
   <separator name="electronic startup" >
    <i type="int" name="ISTART">     0</i>
    <i type="int" name="ICHARG">     2</i>
    <i type="int" name="INIWAV">     1</i>
   </separator>
   <separator name="electronic spin" >
    <i type="int" name="ISPIN">     1</i>
    <i type="logical" name="LNONCOLLINEAR"> F  </i>
    <v name="MAGMOM">      1.00000000      1.00000000      1.00000000      1.00000000      1.00000000      1.00000000      1.00000000      1.00000000      1.00000000      1.00000000      1.00000000      1.00000000      1.00000000      1.00000000      1.00000000      1.00000000      1.00000000      1.00000000      1.00000000      1.00000000
      1.00000000      1.00000000      1.00000000      1.00000000      1.00000000      1.00000000      1.00000000      1.00000000      1.00000000      1.00000000      1.00000000      1.00000000      1.00000000      1.00000000      1.00000000      1.00000000      1.00000000      1.00000000      1.00000000      1.00000000
      1.00000000      1.00000000      1.00000000      1.00000000      1.00000000      1.00000000      1.00000000      1.00000000      1.00000000      1.00000000      1.00000000      1.00000000      1.00000000      1.00000000      1.00000000      1.00000000      1.00000000      1.00000000      1.00000000      1.00000000
      1.00000000      1.00000000      1.00000000      1.00000000</v>
    <i name="NUPDOWN">     -1.00000000</i>
    <i type="logical" name="LSORBIT"> F  </i>
    <v name="SAXIS">      0.00000000      0.00000000      1.00000000</v>
    <i type="logical" name="LSPIRAL"> F  </i>
    <v name="QSPIRAL">      0.00000000      0.00000000      0.00000000</v>
    <i type="logical" name="LZEROZ"> F  </i>
   </separator>
   <separator name="electronic exchange-correlation" >
    <i type="logical" name="LASPH"> F  </i>
    <i type="logical" name="LMETAGGA"> F  </i>
   </separator>
   <separator name="electronic convergence" >
    <i type="int" name="NELM">    60</i>
    <i type="int" name="NELMDL">   -12</i>
    <i type="int" name="NELMIN">     5</i>
    <i name="ENINI">    213.27600000</i>
    <separator name="electronic convergence detail" >
     <i type="logical" name="LDIAG"> T  </i>
     <i type="logical" name="LSUBROT"> F  </i>
     <i name="WEIMIN">      0.00000000</i>
     <i name="EBREAK">      0.00000000</i>
     <i name="DEPER">      0.30000000</i>
     <i type="int" name="NRMM">     4</i>
     <i name="TIME">      0.40000000</i>
    </separator>
   </separator>
   <separator name="electronic mixer" >
    <i name="AMIX">      0.40000000</i>
    <i name="BMIX">      1.00000000</i>
    <i name="AMIN">      0.10000000</i>
    <i name="AMIX_MAG">      1.60000000</i>
    <i name="BMIX_MAG">      1.00000000</i>
    <separator name="electronic mixer details" >
     <i type="int" name="IMIX">     4</i>
     <i type="logical" name="MIXFIRST"> F  </i>
     <i type="int" name="MAXMIX">   -45</i>
     <i name="WC">    100.00000000</i>
     <i type="int" name="INIMIX">     1</i>
     <i type="int" name="MIXPRE">     1</i>
     <i type="int" name="MREMOVE">     5</i>
    </separator>
   </separator>
   <separator name="electronic dipolcorrection" >
    <i type="logical" name="LDIPOL"> F  </i>
    <i type="logical" name="LMONO"> F  </i>
    <i type="int" name="IDIPOL">     0</i>
    <i name="EPSILON">      1.00000000</i>
    <v name="DIPOL">   -100.00000000   -100.00000000   -100.00000000</v>
    <i name="EFIELD">      0.00000000</i>
   </separator>
  </separator>
  <separator name="grids" >
   <i type="int" name="NGX">    54</i>
   <i type="int" name="NGY">    54</i>
   <i type="int" name="NGZ">    54</i>
   <i type="int" name="NGXF">   108</i>
   <i type="int" name="NGYF">   108</i>
   <i type="int" name="NGZF">   108</i>
   <i type="logical" name="ADDGRID"> F  </i>
  </separator>
  <separator name="ionic" >
   <i type="int" name="NSW">     0</i>
   <i type="int" name="IBRION">    -1</i>
   <i type="int" name="ISIF">     2</i>
   <i name="PSTRESS">      0.00000000</i>
   <i name="EDIFFG">      0.00001000</i>
   <i type="int" name="NFREE">     0</i>
   <i name="POTIM">      0.50000000</i>
   <i name="SMASS">     -3.00000000</i>
   <i name="SCALEE">      1.00000000</i>
  </separator>
  <separator name="ionic md" >
   <i name="TEBEG">      0.00010000</i>
   <i name="TEEND">      0.00010000</i>
   <i type="int" name="NBLOCK">     1</i>
   <i type="int" name="KBLOCK">     1</i>
   <i type="int" name="NPACO">   256</i>
   <i name="APACO">     16.00000000</i>
  </separator>
  <separator name="symmetry" >
   <i type="int" name="ISYM">     2</i>
   <i name="SYMPREC">      0.00001000</i>
  </separator>
  <separator name="dos" >
   <i type="logical" name="LORBIT"> F  </i>
   <v name="RWIGS">     -1.00000000     -1.00000000</v>
   <i type="int" name="NEDOS">   301</i>
   <i name="EMIN">     10.00000000</i>
   <i name="EMAX">    -10.00000000</i>
   <i name="EFERMI">      0.00000000</i>
  </separator>
  <separator name="writing" >
   <i type="int" name="NWRITE">     2</i>
   <i type="logical" name="LWAVE"> T  </i>
   <i type="logical" name="LCHARG"> T  </i>
   <i type="logical" name="LPARD"> F  </i>
   <i type="logical" name="LVTOT"> F  </i>
   <i type="logical" name="LVHAR"> F  </i>
   <i type="logical" name="LELF"> F  </i>
   <i type="logical" name="LOPTICS"> F  </i>
   <v name="STM">      0.00000000      0.00000000      0.00000000      0.00000000      0.00000000      0.00000000      0.00000000</v>
  </separator>
  <separator name="performance" >
   <i type="int" name="NPAR">    20</i>
   <i type="int" name="NSIM">     4</i>
   <i type="int" name="NBLK">    -1</i>
   <i type="logical" name="LPLANE"> T  </i>
   <i type="logical" name="LSCALAPACK"> T  </i>
   <i type="logical" name="LSCAAWARE"> F  </i>
   <i type="logical" name="LSCALU"> F  </i>
   <i type="logical" name="LASYNC"> F  </i>
   <i type="logical" name="LORBITALREAL"> F  </i>
  </separator>
  <separator name="miscellaneous" >
   <i type="int" name="IDIOT">     3</i>
   <i type="logical" name="LMUSIC"> F  </i>
   <v name="POMASS">    192.22000000    101.07000000</v>
   <v name="DARWINR">      0.00000000      0.00000000</v>
   <v name="DARWINV">      1.00000000      1.00000000</v>
   <i type="logical" name="LCORR"> T  </i>
  </separator>
  <i type="logical" name="GGA_COMPAT"> T  </i>
  <i type="logical" name="LBERRY"> F  </i>
  <i type="int" name="ICORELEVEL">     0</i>
  <i type="logical" name="LDAU"> F  </i>
  <i type="int" name="I_CONSTRAINED_M">     0</i>
  <separator name="electronic exchange-correlation" >
   <i type="string" name="GGA">--</i>
   <i type="int" name="VOSKOWN">     0</i>
   <i type="logical" name="LHFCALC"> F  </i>
   <i type="string" name="PRECFOCK"></i>
   <i type="logical" name="LSYMGRAD"> F  </i>
   <i type="logical" name="LHFONE"> F  </i>
   <i type="logical" name="LRHFCALC"> F  </i>
   <i type="logical" name="LTHOMAS"> F  </i>
   <i type="logical" name="LMODELHF"> F  </i>
   <i name="ENCUT4O">     -1.00000000</i>
   <i type="int" name="EXXOEP">     0</i>
   <i type="int" name="FOURORBIT">     0</i>
   <i name="AEXX">      0.00000000</i>
   <i name="HFALPHA">      0.00000000</i>
   <i name="MCALPHA">      0.00000000</i>
   <i name="ALDAX">      1.00000000</i>
   <i name="AGGAX">      1.00000000</i>
   <i name="ALDAC">      1.00000000</i>
   <i name="AGGAC">      1.00000000</i>
   <i type="int" name="NKREDX">     1</i>
   <i type="int" name="NKREDY">     1</i>
   <i type="int" name="NKREDZ">     1</i>
   <i type="logical" name="SHIFTRED"> F  </i>
   <i type="logical" name="ODDONLY"> F  </i>
   <i type="logical" name="EVENONLY"> F  </i>
   <i type="int" name="LMAXFOCK">     0</i>
   <i type="int" name="NMAXFOCKAE">     0</i>
   <i type="logical" name="LFOCKAEDFT"> F  </i>
   <i name="HFSCREEN">      0.00000000</i>
   <i name="HFSCREENC">      0.00000000</i>
   <i type="int" name="NBANDSGWLOW">     0</i>
  </separator>
  <separator name="vdW DFT" >
   <i type="logical" name="LUSE_VDW"> F  </i>
   <i name="Zab_VDW">     -0.84910000</i>
   <i name="PARAM1">      0.12340000</i>
   <i name="PARAM2">      1.00000000</i>
   <i name="PARAM3">      0.00000000</i>
  </separator>
  <separator name="model GW" >
   <i type="int" name="MODEL_GW">     0</i>
   <i name="MODEL_EPS0">      8.40670469</i>
   <i name="MODEL_ALPHA">      1.00000000</i>
  </separator>
  <separator name="linear response parameters" >
   <i type="logical" name="LEPSILON"> F  </i>
   <i type="logical" name="LRPA"> F  </i>
   <i type="logical" name="LNABLA"> F  </i>
   <i type="logical" name="LVEL"> F  </i>
   <i type="int" name="KINTER">     0</i>
   <i name="CSHIFT">      0.10000000</i>
   <i name="OMEGAMAX">     -1.00000000</i>
   <i name="DEG_THRESHOLD">      0.00200000</i>
  </separator>
  <separator name="orbital magnetization" >
   <i type="logical" name="NUCIND"> F  </i>
   <v name="MAGPOS">      0.00000000      0.00000000      0.00000000</v>
   <i type="logical" name="LNICSALL"> T  </i>
   <i type="logical" name="ORBITALMAG"> F  </i>
   <i type="logical" name="LMAGBLOCH"> F  </i>
   <i type="logical" name="LCHIMAG"> F  </i>
   <i type="logical" name="LGAUGE"> T  </i>
   <i type="int" name="MAGATOM">     0</i>
   <v name="MAGDIPOL">      0.00000000      0.00000000      0.00000000</v>
   <v name="AVECCONST">      0.00000000      0.00000000      0.00000000</v>
  </separator>
  <separator name="response functions" >
   <i type="logical" name="LADDER"> F  </i>
   <i type="logical" name="LFXC"> F  </i>
   <i type="logical" name="LHARTREE"> T  </i>
   <i type="int" name="IBSE">     0</i>
   <v type="int" name="KPOINT">    -1     0     0     0</v>
   <i type="logical" name="LTCTE"> F  </i>
   <i type="logical" name="LTETE"> F  </i>
   <i type="logical" name="LTRIPLET"> F  </i>
   <i type="logical" name="LFXCEPS"> F  </i>
   <i type="logical" name="LFXHEG"> F  </i>
   <i type="int" name="NATURALO">     0</i>
   <i type="logical" name="L2ORDER"> F  </i>
   <i type="logical" name="LUSEW"> F  </i>
   <i name="ENCUTGW">     -2.00000000</i>
   <i name="ENCUTGWSOFT">     -2.00000000</i>
   <i name="ENCUTLF">     -1.00000000</i>
   <i type="int" name="LMAXMP2">    -1</i>
   <i name="SCISSOR">      0.00000000</i>
   <i type="int" name="NOMEGA">     0</i>
   <i type="int" name="NOMEGAR">     0</i>
   <i type="int" name="NBANDSGW">    -1</i>
   <i type="int" name="NBANDSO">    -1</i>
   <i type="int" name="NBANDSV">    -1</i>
   <i type="int" name="NELM">     1</i>
   <i type="int" name="NELMHF">     1</i>
   <i type="int" name="DIM">     3</i>
   <i type="int" name="ANTIRES">     0</i>
   <i name="OMEGAMAX">    -30.00000000</i>
   <i name="OMEGAMIN">    -30.00000000</i>
   <i name="OMEGATL">   -200.00000000</i>
   <i type="int" name="OMEGAGRID">     0</i>
   <i name="CSHIFT">     -0.10000000</i>
   <i type="logical" name="SELFENERGY"> F  </i>
   <i type="logical" name="LSPECTRAL"> F  </i>
   <i type="logical" name="LSPECTRALGW"> F  </i>
   <i type="logical" name="LSINGLES"> F  </i>
   <i type="logical" name="LFERMIGW"> F  </i>
   <i type="logical" name="ODDONLYGW"> F  </i>
   <i type="logical" name="EVENONLYGW"> F  </i>
   <i type="int" name="NKREDLFX">     1</i>
   <i type="int" name="NKREDLFY">     1</i>
   <i type="int" name="NKREDLFZ">     1</i>
   <i type="int" name="MAXMEM">  1800</i>
   <i type="int" name="TELESCOPE">     0</i>
   <i type="int" name="TAUPAR">     1</i>
   <i type="int" name="OMEGAPAR">    -1</i>
   <i name="LAMBDA">      1.00000000</i>
  </separator>
  <separator name="External order field" >
   <i name="OFIELD_KAPPA">      0.00000000</i>
   <v name="OFIELD_K">      0.00000000      0.00000000      0.00000000</v>
   <i name="OFIELD_Q6_NEAR">      0.00000000</i>
   <i name="OFIELD_Q6_FAR">      0.00000000</i>
   <i name="OFIELD_A">      0.00000000</i>
  </separator>
 </parameters>
 <atominfo>
  <atoms>      64 </atoms>
  <types>       2 </types>
  <array name="atoms" >
   <dimension dim="1">ion</dimension>
   <field type="string">element</field>
   <field type="int">atomtype</field>
   <set>
    <rc><c>Ir</c><c>   1</c></rc>
    <rc><c>Ir</c><c>   1</c></rc>
    <rc><c>Ir</c><c>   1</c></rc>
    <rc><c>Ir</c><c>   1</c></rc>
    <rc><c>Ir</c><c>   1</c></rc>
    <rc><c>Ir</c><c>   1</c></rc>
    <rc><c>Ir</c><c>   1</c></rc>
    <rc><c>Ir</c><c>   1</c></rc>
    <rc><c>Ir</c><c>   1</c></rc>
    <rc><c>Ir</c><c>   1</c></rc>
    <rc><c>Ir</c><c>   1</c></rc>
    <rc><c>Ir</c><c>   1</c></rc>
    <rc><c>Ir</c><c>   1</c></rc>
    <rc><c>Ir</c><c>   1</c></rc>
    <rc><c>Ir</c><c>   1</c></rc>
    <rc><c>Ir</c><c>   1</c></rc>
    <rc><c>Ru</c><c>   2</c></rc>
    <rc><c>Ru</c><c>   2</c></rc>
    <rc><c>Ru</c><c>   2</c></rc>
    <rc><c>Ru</c><c>   2</c></rc>
    <rc><c>Ru</c><c>   2</c></rc>
    <rc><c>Ru</c><c>   2</c></rc>
    <rc><c>Ru</c><c>   2</c></rc>
    <rc><c>Ru</c><c>   2</c></rc>
    <rc><c>Ru</c><c>   2</c></rc>
    <rc><c>Ru</c><c>   2</c></rc>
    <rc><c>Ru</c><c>   2</c></rc>
    <rc><c>Ru</c><c>   2</c></rc>
    <rc><c>Ru</c><c>   2</c></rc>
    <rc><c>Ru</c><c>   2</c></rc>
    <rc><c>Ru</c><c>   2</c></rc>
    <rc><c>Ru</c><c>   2</c></rc>
    <rc><c>Ru</c><c>   2</c></rc>
    <rc><c>Ru</c><c>   2</c></rc>
    <rc><c>Ru</c><c>   2</c></rc>
    <rc><c>Ru</c><c>   2</c></rc>
    <rc><c>Ru</c><c>   2</c></rc>
    <rc><c>Ru</c><c>   2</c></rc>
    <rc><c>Ru</c><c>   2</c></rc>
    <rc><c>Ru</c><c>   2</c></rc>
    <rc><c>Ru</c><c>   2</c></rc>
    <rc><c>Ru</c><c>   2</c></rc>
    <rc><c>Ru</c><c>   2</c></rc>
    <rc><c>Ru</c><c>   2</c></rc>
    <rc><c>Ru</c><c>   2</c></rc>
    <rc><c>Ru</c><c>   2</c></rc>
    <rc><c>Ru</c><c>   2</c></rc>
    <rc><c>Ru</c><c>   2</c></rc>
    <rc><c>Ru</c><c>   2</c></rc>
    <rc><c>Ru</c><c>   2</c></rc>
    <rc><c>Ru</c><c>   2</c></rc>
    <rc><c>Ru</c><c>   2</c></rc>
    <rc><c>Ru</c><c>   2</c></rc>
    <rc><c>Ru</c><c>   2</c></rc>
    <rc><c>Ru</c><c>   2</c></rc>
    <rc><c>Ru</c><c>   2</c></rc>
    <rc><c>Ru</c><c>   2</c></rc>
    <rc><c>Ru</c><c>   2</c></rc>
    <rc><c>Ru</c><c>   2</c></rc>
    <rc><c>Ru</c><c>   2</c></rc>
    <rc><c>Ru</c><c>   2</c></rc>
    <rc><c>Ru</c><c>   2</c></rc>
    <rc><c>Ru</c><c>   2</c></rc>
    <rc><c>Ru</c><c>   2</c></rc>
   </set>
  </array>
  <array name="atomtypes" >
   <dimension dim="1">type</dimension>
   <field type="int">atomspertype</field>
   <field type="string">element</field>
   <field>mass</field>
   <field>valence</field>
   <field type="string">pseudopotential</field>
   <set>
    <rc><c>  16</c><c>Ir</c><c>    192.22000000</c><c>      9.00000000</c><c> PAW_PBE Ir 06Sep2000                   </c></rc>
    <rc><c>  48</c><c>Ru</c><c>    101.07000000</c><c>      8.00000000</c><c> PAW_PBE Ru 06Sep2000                   </c></rc>
   </set>
  </array>
 </atominfo>
 <structure name="initialpos" >
  <crystal>
   <varray name="basis" >
    <v>       7.65376000       0.00000000       7.65376000 </v>
    <v>       7.65376000       7.65376000       0.00000000 </v>
    <v>       0.00000000       7.65376000       7.65376000 </v>
   </varray>
   <i name="volume">    896.71516662 </i>
   <varray name="rec_basis" >
    <v>       0.06532737      -0.06532737       0.06532737 </v>
    <v>       0.06532737       0.06532737      -0.06532737 </v>
    <v>      -0.06532737       0.06532737       0.06532737 </v>
   </varray>
  </crystal>
  <varray name="positions" >
   <v>       0.25000000       0.25000000       0.25000000 </v>
   <v>       0.25000000       0.75000000       0.25000000 </v>
   <v>       0.75000000       0.25000000       0.25000000 </v>
   <v>       0.25000000       0.25000000       0.75000000 </v>
   <v>       0.50000000       0.50000000       0.50000000 </v>
   <v>       0.75000000       0.75000000       0.25000000 </v>
   <v>       0.25000000       0.75000000       0.75000000 </v>
   <v>       0.50000000       0.00000000       0.50000000 </v>
   <v>       0.75000000       0.25000000       0.75000000 </v>
   <v>       0.00000000       0.50000000       0.50000000 </v>
   <v>       0.50000000       0.50000000       0.00000000 </v>
   <v>       0.75000000       0.75000000       0.75000000 </v>
   <v>       0.00000000       0.00000000       0.50000000 </v>
   <v>       0.50000000       0.00000000       0.00000000 </v>
   <v>       0.00000000       0.50000000       0.00000000 </v>
   <v>       0.00000000       0.00000000       0.00000000 </v>
   <v>       0.25184750       0.25184750       0.00076750 </v>
   <v>       0.00000000       0.25000000       0.25000000 </v>
   <v>       0.25000000       0.00000000       0.25000000 </v>
   <v>       0.25000000       0.75000000       0.00000000 </v>
   <v>       0.00000000       0.75000000       0.25000000 </v>
   <v>       0.25000000       0.50000000       0.25000000 </v>
   <v>       0.75000000       0.25000000       0.00000000 </v>
   <v>       0.50000000       0.25000000       0.25000000 </v>
   <v>       0.75000000       0.00000000       0.25000000 </v>
   <v>       0.25000000       0.25000000       0.50000000 </v>
   <v>       0.00000000       0.25000000       0.75000000 </v>
   <v>       0.25000000       0.00000000       0.75000000 </v>
   <v>       0.50000000       0.50000000       0.25000000 </v>
   <v>       0.25000000       0.50000000       0.50000000 </v>
   <v>       0.50000000       0.25000000       0.50000000 </v>
   <v>       0.75000000       0.75000000       0.00000000 </v>
   <v>       0.50000000       0.75000000       0.25000000 </v>
   <v>       0.75000000       0.50000000       0.25000000 </v>
   <v>       0.25000000       0.75000000       0.50000000 </v>
   <v>       0.00000000       0.75000000       0.75000000 </v>
   <v>       0.25000000       0.50000000       0.75000000 </v>
   <v>       0.50000000       0.00000000       0.25000000 </v>
   <v>       0.25000000       0.00000000       0.50000000 </v>
   <v>       0.50000000       0.75000000       0.50000000 </v>
   <v>       0.75000000       0.25000000       0.50000000 </v>
   <v>       0.50000000       0.25000000       0.75000000 </v>
   <v>       0.75000000       0.00000000       0.75000000 </v>
   <v>       0.00000000       0.50000000       0.25000000 </v>
   <v>       0.75000000       0.50000000       0.50000000 </v>
   <v>       0.00000000       0.25000000       0.50000000 </v>
   <v>       0.50000000       0.50000000       0.75000000 </v>
   <v>       0.25000000       0.50000000       0.00000000 </v>
   <v>       0.50000000       0.25000000       0.00000000 </v>
   <v>       0.75000000       0.75000000       0.50000000 </v>
   <v>       0.50000000       0.75000000       0.75000000 </v>
   <v>       0.75000000       0.50000000       0.75000000 </v>
   <v>       0.00000000       0.00000000       0.25000000 </v>
   <v>       0.75000000       0.00000000       0.50000000 </v>
   <v>       0.00000000       0.75000000       0.50000000 </v>
   <v>       0.50000000       0.00000000       0.75000000 </v>
   <v>       0.25000000       0.00000000       0.00000000 </v>
   <v>       0.50000000       0.75000000       0.00000000 </v>
   <v>       0.00000000       0.50000000       0.75000000 </v>
   <v>       0.75000000       0.50000000       0.00000000 </v>
   <v>       0.00000000       0.25000000       0.00000000 </v>
   <v>       0.00000000       0.00000000       0.75000000 </v>
   <v>       0.75000000       0.00000000       0.00000000 </v>
   <v>       0.00000000       0.75000000       0.00000000 </v>
  </varray>
 </structure>
 <calculation>
  <scstep>
   <time name="diag">    7.11    7.15</time>
   <time name="diis">   20.80   20.82</time>
   <time name="orth">    1.08    1.08</time>
   <time name="total">   29.08   29.15</time>
   <energy>
    <i name="alphaZ">   4182.71079630 </i>
    <i name="ewald"> -37625.37937324 </i>
    <i name="hartreedc">  -2545.61559801 </i>
    <i name="XCdc">  -1816.05539869 </i>
    <i name="pawpsdc">  25636.92248551 </i>
    <i name="pawaedc"> -22621.23159104 </i>
    <i name="eentropy">     -0.00715346 </i>
    <i name="bandstr">   7230.23013707 </i>
    <i name="atom">  30800.35227945 </i>
    <i name="e_fr_energy">   3241.92658391 </i>
    <i name="e_wo_entrp">   3241.93373737 </i>
    <i name="e_0_energy">   3241.92896839 </i>
   </energy>
  </scstep>
  <scstep>
   <time name="diag">    7.09    7.10</time>
   <time name="diis">   20.73   20.75</time>
   <time name="orth">    1.08    1.08</time>
   <time name="total">   28.91   28.94</time>
   <energy>
    <i name="e_fr_energy">    272.91560224 </i>
    <i name="e_wo_entrp">    272.91743316 </i>
    <i name="e_0_energy">    272.91621254 </i>
   </energy>
  </scstep>
  <scstep>
   <time name="diag">    7.08    7.08</time>
   <time name="diis">   20.79   20.81</time>
   <time name="orth">    1.08    1.08</time>
   <time name="total">   28.95   28.98</time>
   <energy>
    <i name="e_fr_energy">   -275.28771255 </i>
    <i name="e_wo_entrp">   -275.29738346 </i>
    <i name="e_0_energy">   -275.29093618 </i>
   </energy>
  </scstep>
  <scstep>
   <time name="diag">    7.09    7.10</time>
   <time name="diis">   20.73   20.76</time>
   <time name="orth">    1.08    1.08</time>
   <time name="total">   28.91   28.95</time>
   <energy>
    <i name="e_fr_energy">   -463.46655960 </i>
    <i name="e_wo_entrp">   -463.45959827 </i>
    <i name="e_0_energy">   -463.46423916 </i>
   </energy>
  </scstep>
  <scstep>
   <time name="diag">    7.08    7.09</time>
   <time name="diis">   20.75   20.77</time>
   <time name="orth">    1.08    1.08</time>
   <time name="total">   28.91   28.95</time>
   <energy>
    <i name="e_fr_energy">   -530.94256827 </i>
    <i name="e_wo_entrp">   -530.93938667 </i>
    <i name="e_0_energy">   -530.94150774 </i>
   </energy>
  </scstep>
  <scstep>
   <time name="diag">    7.09    7.10</time>
   <time name="diis">   20.75   20.77</time>
   <time name="orth">    1.08    1.08</time>
   <time name="total">   28.93   28.96</time>
   <energy>
    <i name="e_fr_energy">   -566.30925174 </i>
    <i name="e_wo_entrp">   -566.31096301 </i>
    <i name="e_0_energy">   -566.30982217 </i>
   </energy>
  </scstep>
  <scstep>
   <time name="diag">    7.08    7.09</time>
   <time name="diis">   20.78   20.80</time>
   <time name="orth">    1.08    1.08</time>
   <time name="total">   28.94   28.97</time>
   <energy>
    <i name="e_fr_energy">   -585.82112235 </i>
    <i name="e_wo_entrp">   -585.82652674 </i>
    <i name="e_0_energy">   -585.82292381 </i>
   </energy>
  </scstep>
  <scstep>
   <time name="diag">    7.09    7.10</time>
   <time name="diis">   20.74   20.76</time>
   <time name="orth">    1.08    1.08</time>
   <time name="total">   28.92   28.95</time>
   <energy>
    <i name="e_fr_energy">   -598.08288170 </i>
    <i name="e_wo_entrp">   -598.08952747 </i>
    <i name="e_0_energy">   -598.08509696 </i>
   </energy>
  </scstep>
  <scstep>
   <time name="diag">    7.08    7.09</time>
   <time name="diis">   57.66   57.72</time>
   <time name="orth">    1.08    1.08</time>
   <time name="total">   65.82   65.90</time>
   <energy>
    <i name="e_fr_energy">   -619.24769503 </i>
    <i name="e_wo_entrp">   -619.25693349 </i>
    <i name="e_0_energy">   -619.25077452 </i>
   </energy>
  </scstep>
  <scstep>
   <time name="diag">    7.10    7.11</time>
   <time name="diis">   60.54   60.61</time>
   <time name="orth">    1.08    1.08</time>
   <time name="total">   68.73   68.80</time>
   <energy>
    <i name="e_fr_energy">   -621.72695329 </i>
    <i name="e_wo_entrp">   -621.71403529 </i>
    <i name="e_0_energy">   -621.72264729 </i>
   </energy>
  </scstep>
  <scstep>
   <time name="diag">    7.08    7.09</time>
   <time name="diis">   58.62   58.68</time>
   <time name="orth">    1.08    1.08</time>
   <time name="total">   66.78   66.86</time>
   <energy>
    <i name="e_fr_energy">   -622.28108616 </i>
    <i name="e_wo_entrp">   -622.26544486 </i>
    <i name="e_0_energy">   -622.27587239 </i>
   </energy>
  </scstep>
  <scstep>
   <time name="diag">    7.12    7.13</time>
   <time name="diis">   59.94   60.00</time>
   <time name="orth">    1.08    1.08</time>
   <time name="total">   70.07   70.15</time>
   <energy>
    <i name="e_fr_energy">   -622.35047393 </i>
    <i name="e_wo_entrp">   -622.33529873 </i>
    <i name="e_0_energy">   -622.34541553 </i>
   </energy>
  </scstep>
  <scstep>
   <time name="diag">    7.07    7.08</time>
   <time name="diis">   42.33   42.38</time>
   <time name="orth">    1.08    1.08</time>
   <time name="total">   52.49   52.55</time>
   <energy>
    <i name="e_fr_energy">   -587.68481404 </i>
    <i name="e_wo_entrp">   -587.66169714 </i>
    <i name="e_0_energy">   -587.67710841 </i>
   </energy>
  </scstep>
  <scstep>
   <time name="diag">    7.08    7.09</time>
   <time name="diis">   43.57   43.62</time>
   <time name="orth">    1.08    1.08</time>
   <time name="total">   53.71   53.77</time>
   <energy>
    <i name="e_fr_energy">   -585.79726989 </i>
    <i name="e_wo_entrp">   -585.79331115 </i>
    <i name="e_0_energy">   -585.79595031 </i>
   </energy>
  </scstep>
  <scstep>
   <time name="diag">    7.08    7.08</time>
   <time name="diis">   45.67   45.73</time>
   <time name="orth">    1.08    1.08</time>
   <time name="total">   55.82   55.88</time>
   <energy>
    <i name="e_fr_energy">   -582.24312378 </i>
    <i name="e_wo_entrp">   -582.23340199 </i>
    <i name="e_0_energy">   -582.23988318 </i>
   </energy>
  </scstep>
  <scstep>
   <time name="diag">    7.09    7.10</time>
   <time name="diis">   55.59   55.66</time>
   <time name="orth">    1.08    1.08</time>
   <time name="total">   65.76   65.84</time>
   <energy>
    <i name="e_fr_energy">   -582.17123225 </i>
    <i name="e_wo_entrp">   -582.16138659 </i>
    <i name="e_0_energy">   -582.16795037 </i>
   </energy>
  </scstep>
  <scstep>
   <time name="diag">    7.07    7.08</time>
   <time name="diis">   44.89   44.94</time>
   <time name="orth">    1.08    1.08</time>
   <time name="total">   55.03   55.09</time>
   <energy>
    <i name="e_fr_energy">   -581.96244701 </i>
    <i name="e_wo_entrp">   -581.95353141 </i>
    <i name="e_0_energy">   -581.95947514 </i>
   </energy>
  </scstep>
  <scstep>
   <time name="diag">    7.07    7.08</time>
   <time name="diis">   54.93   54.99</time>
   <time name="orth">    1.08    1.08</time>
   <time name="total">   65.06   65.14</time>
   <energy>
    <i name="e_fr_energy">   -581.94050322 </i>
    <i name="e_wo_entrp">   -581.93214409 </i>
    <i name="e_0_energy">   -581.93771685 </i>
   </energy>
  </scstep>
  <scstep>
   <time name="diag">    7.08    7.09</time>
   <time name="diis">   48.08   48.13</time>
   <time name="orth">    1.08    1.08</time>
   <time name="total">   58.22   58.29</time>
   <energy>
    <i name="e_fr_energy">   -581.92731045 </i>
    <i name="e_wo_entrp">   -581.91934489 </i>
    <i name="e_0_energy">   -581.92465526 </i>
   </energy>
  </scstep>
  <scstep>
   <time name="diag">    7.09    7.10</time>
   <time name="diis">   52.57   52.63</time>
   <time name="orth">    1.08    1.08</time>
   <time name="total">   62.74   62.81</time>
   <energy>
    <i name="e_fr_energy">   -581.92739998 </i>
    <i name="e_wo_entrp">   -581.91943885 </i>
    <i name="e_0_energy">   -581.92474627 </i>
   </energy>
  </scstep>
  <scstep>
   <time name="diag">    7.07    7.08</time>
   <time name="diis">   52.98   53.04</time>
   <time name="orth">    1.08    1.08</time>
   <time name="total">   63.14   63.21</time>
   <energy>
    <i name="e_fr_energy">   -581.92743923 </i>
    <i name="e_wo_entrp">   -581.91939545 </i>
    <i name="e_0_energy">   -581.92475797 </i>
   </energy>
  </scstep>
  <scstep>
   <time name="diag">    7.08    7.08</time>
   <time name="diis">   50.13   50.19</time>
   <time name="orth">    1.08    1.08</time>
   <time name="total">   58.36   58.42</time>
   <energy>
    <i name="alphaZ">   4182.71079630 </i>
    <i name="ewald"> -37625.37937324 </i>
    <i name="hartreedc">  -1952.07073561 </i>
    <i name="XCdc">  -1820.01989421 </i>
    <i name="pawpsdc">  29238.27427986 </i>
    <i name="pawaedc"> -26383.97401526 </i>
    <i name="eentropy">     -0.00808562 </i>
    <i name="bandstr">   2978.18739753 </i>
    <i name="atom">  30800.35227945 </i>
    <i name="e_fr_energy">   -581.92735079 </i>
    <i name="e_wo_entrp">   -581.91926517 </i>
    <i name="e_0_energy">   -581.92465558 </i>
   </energy>
  </scstep>
  <structure>
   <crystal>
    <varray name="basis" >
     <v>       7.65376000       0.00000000       7.65376000 </v>
     <v>       7.65376000       7.65376000       0.00000000 </v>
     <v>       0.00000000       7.65376000       7.65376000 </v>
    </varray>
    <i name="volume">    896.71516662 </i>
    <varray name="rec_basis" >
     <v>       0.06532737      -0.06532737       0.06532737 </v>
     <v>       0.06532737       0.06532737      -0.06532737 </v>
     <v>      -0.06532737       0.06532737       0.06532737 </v>
    </varray>
   </crystal>
   <varray name="positions" >
    <v>       0.25000000       0.25000000       0.25000000 </v>
    <v>       0.25000000       0.75000000       0.25000000 </v>
    <v>       0.75000000       0.25000000       0.25000000 </v>
    <v>       0.25000000       0.25000000       0.75000000 </v>
    <v>       0.50000000       0.50000000       0.50000000 </v>
    <v>       0.75000000       0.75000000       0.25000000 </v>
    <v>       0.25000000       0.75000000       0.75000000 </v>
    <v>       0.50000000       0.00000000       0.50000000 </v>
    <v>       0.75000000       0.25000000       0.75000000 </v>
    <v>       0.00000000       0.50000000       0.50000000 </v>
    <v>       0.50000000       0.50000000       0.00000000 </v>
    <v>       0.75000000       0.75000000       0.75000000 </v>
    <v>       0.00000000       0.00000000       0.50000000 </v>
    <v>       0.50000000       0.00000000       0.00000000 </v>
    <v>       0.00000000       0.50000000       0.00000000 </v>
    <v>       0.00000000       0.00000000       0.00000000 </v>
    <v>       0.25184750       0.25184750       0.00076750 </v>
    <v>       0.00000000       0.25000000       0.25000000 </v>
    <v>       0.25000000       0.00000000       0.25000000 </v>
    <v>       0.25000000       0.75000000       0.00000000 </v>
    <v>       0.00000000       0.75000000       0.25000000 </v>
    <v>       0.25000000       0.50000000       0.25000000 </v>
    <v>       0.75000000       0.25000000       0.00000000 </v>
    <v>       0.50000000       0.25000000       0.25000000 </v>
    <v>       0.75000000       0.00000000       0.25000000 </v>
    <v>       0.25000000       0.25000000       0.50000000 </v>
    <v>       0.00000000       0.25000000       0.75000000 </v>
    <v>       0.25000000       0.00000000       0.75000000 </v>
    <v>       0.50000000       0.50000000       0.25000000 </v>
    <v>       0.25000000       0.50000000       0.50000000 </v>
    <v>       0.50000000       0.25000000       0.50000000 </v>
    <v>       0.75000000       0.75000000       0.00000000 </v>
    <v>       0.50000000       0.75000000       0.25000000 </v>
    <v>       0.75000000       0.50000000       0.25000000 </v>
    <v>       0.25000000       0.75000000       0.50000000 </v>
    <v>       0.00000000       0.75000000       0.75000000 </v>
    <v>       0.25000000       0.50000000       0.75000000 </v>
    <v>       0.50000000       0.00000000       0.25000000 </v>
    <v>       0.25000000       0.00000000       0.50000000 </v>
    <v>       0.50000000       0.75000000       0.50000000 </v>
    <v>       0.75000000       0.25000000       0.50000000 </v>
    <v>       0.50000000       0.25000000       0.75000000 </v>
    <v>       0.75000000       0.00000000       0.75000000 </v>
    <v>       0.00000000       0.50000000       0.25000000 </v>
    <v>       0.75000000       0.50000000       0.50000000 </v>
    <v>       0.00000000       0.25000000       0.50000000 </v>
    <v>       0.50000000       0.50000000       0.75000000 </v>
    <v>       0.25000000       0.50000000       0.00000000 </v>
    <v>       0.50000000       0.25000000       0.00000000 </v>
    <v>       0.75000000       0.75000000       0.50000000 </v>
    <v>       0.50000000       0.75000000       0.75000000 </v>
    <v>       0.75000000       0.50000000       0.75000000 </v>
    <v>       0.00000000       0.00000000       0.25000000 </v>
    <v>       0.75000000       0.00000000       0.50000000 </v>
    <v>       0.00000000       0.75000000       0.50000000 </v>
    <v>       0.50000000       0.00000000       0.75000000 </v>
    <v>       0.25000000       0.00000000       0.00000000 </v>
    <v>       0.50000000       0.75000000       0.00000000 </v>
    <v>       0.00000000       0.50000000       0.75000000 </v>
    <v>       0.75000000       0.50000000       0.00000000 </v>
    <v>       0.00000000       0.25000000       0.00000000 </v>
    <v>       0.00000000       0.00000000       0.75000000 </v>
    <v>       0.75000000       0.00000000       0.00000000 </v>
    <v>       0.00000000       0.75000000       0.00000000 </v>
   </varray>
  </structure>
  <varray name="forces" >
   <v>      -0.00159732       0.03919077       0.03919077 </v>
   <v>       0.00324798       0.00276151      -0.00152035 </v>
   <v>       0.00324798      -0.00152035       0.00276151 </v>
   <v>       0.00013370       0.02962469       0.02962469 </v>
   <v>       0.00056234      -0.00266466      -0.00266466 </v>
   <v>       0.00020933       0.00054411       0.00054411 </v>
   <v>       0.00393253       0.00357090      -0.00164961 </v>
   <v>       0.00013312      -0.00183473      -0.00176741 </v>
   <v>       0.00393253      -0.00164961       0.00357090 </v>
   <v>       0.00013312      -0.00176741      -0.00183473 </v>
   <v>       0.00766529       0.00250943       0.00250943 </v>
   <v>       0.00011710       0.00037943       0.00037943 </v>
   <v>       0.00080434      -0.00272810      -0.00272810 </v>
   <v>      -0.00063167      -0.00171199      -0.00453241 </v>
   <v>      -0.00063167      -0.00453241      -0.00171199 </v>
   <v>       0.00547441       0.00161242       0.00161242 </v>
   <v>      -0.28038089      -0.24093930      -0.24093930 </v>
   <v>       0.00004135      -0.00801163       0.00170627 </v>
   <v>       0.00004135       0.00170627      -0.00801163 </v>
   <v>       0.05440906       0.05407375       0.00224233 </v>
   <v>      -0.00285233      -0.00279855       0.00077052 </v>
   <v>       0.00312616       0.00981740       0.00240232 </v>
   <v>       0.05440906       0.00224233       0.05407375 </v>
   <v>       0.00312616       0.00240232       0.00981740 </v>
   <v>      -0.00285233       0.00077052      -0.00279855 </v>
   <v>       0.00218794       0.03773635       0.03773635 </v>
   <v>       0.00196568       0.00167065       0.00810061 </v>
   <v>       0.00196568       0.00810061       0.00167065 </v>
   <v>      -0.00031496      -0.00128758      -0.00128758 </v>
   <v>      -0.00000951       0.00412986       0.00244137 </v>
   <v>      -0.00000951       0.00244137       0.00412986 </v>
   <v>       0.00216857      -0.00079663      -0.00079663 </v>
   <v>      -0.00165457      -0.00253272      -0.00192750 </v>
   <v>      -0.00165457      -0.00192750      -0.00253272 </v>
   <v>       0.01032892       0.00219777      -0.00795095 </v>
   <v>      -0.00155093      -0.00280653      -0.00146627 </v>
   <v>      -0.00271589       0.00138037      -0.00594284 </v>
   <v>       0.00194517      -0.00102945       0.01562527 </v>
   <v>      -0.00029264       0.00456548       0.00235879 </v>
   <v>      -0.00009246       0.00094996       0.00115225 </v>
   <v>       0.01032892      -0.00795095       0.00219777 </v>
   <v>      -0.00271589      -0.00594284       0.00138037 </v>
   <v>      -0.00155093      -0.00146627      -0.00280653 </v>
   <v>       0.00194517       0.01562527      -0.00102945 </v>
   <v>      -0.00009246       0.00115225       0.00094996 </v>
   <v>      -0.00029264       0.00235879       0.00456548 </v>
   <v>       0.02115715       0.00147228       0.00147228 </v>
   <v>       0.02293896       0.02415680       0.00120551 </v>
   <v>       0.02293896       0.00120551       0.02415680 </v>
   <v>       0.00083530      -0.00077234      -0.00077234 </v>
   <v>      -0.00310902      -0.00319332       0.00085806 </v>
   <v>      -0.00310902       0.00085806      -0.00319332 </v>
   <v>       0.01892749       0.00136347       0.00136347 </v>
   <v>      -0.00001529       0.00077023       0.00074908 </v>
   <v>      -0.00001529       0.00074908       0.00077023 </v>
   <v>       0.00197602       0.01460353      -0.00102959 </v>
   <v>       0.01205137       0.01282668       0.00173661 </v>
   <v>       0.00349114       0.00471814      -0.00028236 </v>
   <v>       0.00197602      -0.00102959       0.01460353 </v>
   <v>       0.00349114      -0.00028236       0.00471814 </v>
   <v>       0.01205137       0.00173661       0.01282668 </v>
   <v>      -0.00017298      -0.00119701      -0.00119701 </v>
   <v>       0.00444842      -0.00040375       0.00480263 </v>
   <v>       0.00444842       0.00480263      -0.00040375 </v>
  </varray>
  <varray name="stress" >
   <v>     -22.52684743       0.05361349       0.05361349 </v>
   <v>       0.05361358     -22.53390657       0.05060986 </v>
   <v>       0.05361358       0.05060986     -22.53390657 </v>
  </varray>
  <energy>
   <i name="e_fr_energy">   -581.92735079 </i>
   <i name="e_wo_entrp">   -581.92465558 </i>
   <i name="e_0_energy">     -0.00808562 </i>
  </energy>
  <time name="totalsc"> 1196.89 1207.64</time>
  <eigenvalues>
   <array>
    <dimension dim="1">band</dimension>
    <dimension dim="2">kpoint</dimension>
    <dimension dim="3">spin</dimension>
    <field>eigene</field>
    <field>occ</field>
    <set>
     <set comment="spin 1">
      <set comment="kpoint 1">
       <r>    0.2607    1.0000 </r>
       <r>    2.0824    1.0000 </r>
       <r>    2.1283    1.0000 </r>
       <r>    2.1323    1.0000 </r>
       <r>    2.1336    1.0000 </r>
       <r>    2.1341    1.0000 </r>
       <r>    2.1346    1.0000 </r>
       <r>    2.1350    1.0000 </r>
       <r>    2.1364    1.0000 </r>
       <r>    2.1402    1.0000 </r>
       <r>    2.2765    1.0000 </r>
       <r>    2.2766    1.0000 </r>
       <r>    2.4146    1.0000 </r>
       <r>    2.4170    1.0000 </r>
       <r>    2.4193    1.0000 </r>
       <r>    2.5882    1.0000 </r>
       <r>    2.6360    1.0000 </r>
       <r>    2.6361    1.0000 </r>
       <r>    2.6362    1.0000 </r>
       <r>    2.8154    1.0000 </r>
       <r>    2.8158    1.0000 </r>
       <r>    2.8158    1.0000 </r>
       <r>    3.3514    1.0000 </r>
       <r>    3.3529    1.0000 </r>
       <r>    3.3552    1.0000 </r>
       <r>    3.3906    1.0000 </r>
       <r>    3.3916    1.0000 </r>
       <r>    3.3958    1.0000 </r>
       <r>    3.3961    1.0000 </r>
       <r>    3.3982    1.0000 </r>
       <r>    3.3986    1.0000 </r>
       <r>    3.3986    1.0000 </r>
       <r>    3.3987    1.0000 </r>
       <r>    3.3990    1.0000 </r>
       <r>    3.3993    1.0000 </r>
       <r>    3.3993    1.0000 </r>
       <r>    3.3997    1.0000 </r>
       <r>    3.4017    1.0000 </r>
       <r>    3.4020    1.0000 </r>
       <r>    3.4058    1.0000 </r>
       <r>    3.4060    1.0000 </r>
       <r>    3.6016    1.0000 </r>
       <r>    3.6057    1.0000 </r>
       <r>    3.6062    1.0000 </r>
       <r>    3.6063    1.0000 </r>
       <r>    3.6083    1.0000 </r>
       <r>    3.6084    1.0000 </r>
       <r>    3.6099    1.0000 </r>
       <r>    3.6102    1.0000 </r>
       <r>    3.6130    1.0000 </r>
       <r>    3.6142    1.0000 </r>
       <r>    3.6155    1.0000 </r>
       <r>    3.7513    1.0000 </r>
       <r>    3.7548    1.0000 </r>
       <r>    3.7581    1.0000 </r>
       <r>    3.9671    1.0000 </r>
       <r>    3.9716    1.0000 </r>
       <r>    3.9758    1.0000 </r>
       <r>    4.0546    1.0000 </r>
       <r>    4.0601    1.0000 </r>
       <r>    4.0651    1.0000 </r>
       <r>    4.1737    1.0000 </r>
       <r>    4.1758    1.0000 </r>
       <r>    4.1779    1.0000 </r>
       <r>    4.4031    1.0000 </r>
       <r>    4.4068    1.0000 </r>
       <r>    4.4100    1.0000 </r>
       <r>    4.4117    1.0000 </r>
       <r>    4.4120    1.0000 </r>
       <r>    4.4125    1.0000 </r>
       <r>    4.4127    1.0000 </r>
       <r>    4.4128    1.0000 </r>
       <r>    4.4132    1.0000 </r>
       <r>    4.4133    1.0000 </r>
       <r>    4.4135    1.0000 </r>
       <r>    4.4140    1.0000 </r>
       <r>    4.4143    1.0000 </r>
       <r>    4.4158    1.0000 </r>
       <r>    4.4180    1.0000 </r>
       <r>    4.4223    1.0000 </r>
       <r>    4.5282    1.0000 </r>
       <r>    4.5314    1.0000 </r>
       <r>    4.5348    1.0000 </r>
       <r>    4.6977    1.0000 </r>
       <r>    4.7041    1.0000 </r>
       <r>    4.7069    1.0000 </r>
       <r>    4.7069    1.0000 </r>
       <r>    4.7087    1.0000 </r>
       <r>    4.7091    1.0000 </r>
       <r>    4.7109    1.0000 </r>
       <r>    4.7155    1.0000 </r>
       <r>    4.7162    1.0000 </r>
       <r>    4.7175    1.0000 </r>
       <r>    4.7185    1.0000 </r>
       <r>    4.7200    1.0000 </r>
       <r>    4.7218    1.0000 </r>
       <r>    4.7228    1.0000 </r>
       <r>    4.9271    1.0000 </r>
       <r>    4.9320    1.0000 </r>
       <r>    4.9327    1.0000 </r>
       <r>    4.9327    1.0000 </r>
       <r>    4.9335    1.0000 </r>
       <r>    4.9376    1.0000 </r>
       <r>    5.0348    1.0000 </r>
       <r>    5.0358    1.0000 </r>
       <r>    5.0364    1.0000 </r>
       <r>    5.0383    1.0000 </r>
       <r>    5.0384    1.0000 </r>
       <r>    5.0384    1.0000 </r>
       <r>    5.0402    1.0000 </r>
       <r>    5.0410    1.0000 </r>
       <r>    5.0423    1.0000 </r>
       <r>    5.2130    1.0000 </r>
       <r>    5.2188    1.0000 </r>
       <r>    5.2244    1.0000 </r>
       <r>    5.3825    1.0000 </r>
       <r>    5.3829    1.0000 </r>
       <r>    5.3862    1.0000 </r>
       <r>    5.3863    1.0000 </r>
       <r>    5.3889    1.0000 </r>
       <r>    5.3890    1.0000 </r>
       <r>    5.3966    1.0000 </r>
       <r>    5.3982    1.0000 </r>
       <r>    5.3991    1.0000 </r>
       <r>    5.6039    1.0000 </r>
       <r>    5.6060    1.0000 </r>
       <r>    5.6064    1.0000 </r>
       <r>    5.6070    1.0000 </r>
       <r>    5.6090    1.0000 </r>
       <r>    5.6098    1.0000 </r>
       <r>    5.6101    1.0000 </r>
       <r>    5.6128    1.0000 </r>
       <r>    5.6583    1.0000 </r>
       <r>    5.6584    1.0000 </r>
       <r>    5.6645    1.0000 </r>
       <r>    5.6677    1.0000 </r>
       <r>    5.6698    1.0000 </r>
       <r>    5.6700    1.0000 </r>
       <r>    5.6726    1.0000 </r>
       <r>    5.6753    1.0000 </r>
       <r>    5.7908    1.0000 </r>
       <r>    5.7975    1.0000 </r>
       <r>    5.8044    1.0000 </r>
       <r>    6.0043    1.0000 </r>
       <r>    6.0046    1.0000 </r>
       <r>    6.0051    1.0000 </r>
       <r>    6.1218    1.0000 </r>
       <r>    6.1218    1.0000 </r>
       <r>    6.1226    1.0000 </r>
       <r>    6.2159    1.0000 </r>
       <r>    6.2168    1.0000 </r>
       <r>    6.2169    1.0000 </r>
       <r>    6.3769    1.0000 </r>
       <r>    6.3804    1.0000 </r>
       <r>    6.3812    1.0000 </r>
       <r>    6.3818    1.0000 </r>
       <r>    6.3837    1.0000 </r>
       <r>    6.3846    1.0000 </r>
       <r>    6.3856    1.0000 </r>
       <r>    6.3886    1.0000 </r>
       <r>    6.5254    1.0000 </r>
       <r>    6.5256    1.0000 </r>
       <r>    6.5290    1.0000 </r>
       <r>    6.5303    1.0000 </r>
       <r>    6.5305    1.0000 </r>
       <r>    6.5318    1.0000 </r>
       <r>    6.5320    1.0000 </r>
       <r>    6.5320    1.0000 </r>
       <r>    6.5334    1.0000 </r>
       <r>    6.5335    1.0000 </r>
       <r>    6.5336    1.0000 </r>
       <r>    6.5354    1.0000 </r>
       <r>    6.5357    1.0000 </r>
       <r>    6.5362    1.0000 </r>
       <r>    6.5380    1.0000 </r>
       <r>    6.5383    1.0000 </r>
       <r>    6.7218    1.0000 </r>
       <r>    6.7238    1.0000 </r>
       <r>    6.7284    1.0000 </r>
       <r>    6.7298    1.0000 </r>
       <r>    6.7313    1.0000 </r>
       <r>    6.7315    1.0000 </r>
       <r>    6.7317    1.0000 </r>
       <r>    6.7319    1.0000 </r>
       <r>    6.7321    1.0000 </r>
       <r>    6.7322    1.0000 </r>
       <r>    6.7324    1.0000 </r>
       <r>    6.7325    1.0000 </r>
       <r>    6.7340    1.0000 </r>
       <r>    6.7349    1.0000 </r>
       <r>    6.7403    1.0000 </r>
       <r>    6.7425    1.0000 </r>
       <r>    6.7770    1.0000 </r>
       <r>    6.7771    1.0000 </r>
       <r>    6.7784    1.0000 </r>
       <r>    6.9306    1.0000 </r>
       <r>    6.9328    1.0000 </r>
       <r>    6.9343    1.0000 </r>
       <r>    7.3772    1.0000 </r>
       <r>    7.3805    1.0000 </r>
       <r>    7.3835    1.0000 </r>
       <r>    7.5943    1.0000 </r>
       <r>    7.5984    1.0000 </r>
       <r>    7.6006    1.0000 </r>
       <r>    7.6019    1.0000 </r>
       <r>    7.6030    1.0000 </r>
       <r>    7.6046    1.0000 </r>
       <r>    7.6048    1.0000 </r>
       <r>    7.6117    1.0000 </r>
       <r>    7.6135    1.0000 </r>
       <r>    7.7771    1.0000 </r>
       <r>    7.7829    1.0000 </r>
       <r>    7.7885    1.0000 </r>
       <r>    7.7899    1.0000 </r>
       <r>    7.7904    1.0000 </r>
       <r>    7.7907    1.0000 </r>
       <r>    7.7909    1.0000 </r>
       <r>    7.7912    1.0000 </r>
       <r>    7.7913    1.0000 </r>
       <r>    7.7917    1.0000 </r>
       <r>    7.7917    1.0000 </r>
       <r>    7.7922    1.0000 </r>
       <r>    7.7923    1.0000 </r>
       <r>    7.7936    1.0000 </r>
       <r>    7.7979    1.0000 </r>
       <r>    7.8035    1.0000 </r>
       <r>    7.8818    1.0000 </r>
       <r>    7.8849    1.0000 </r>
       <r>    7.8891    1.0000 </r>
       <r>    7.8892    1.0000 </r>
       <r>    7.8944    1.0000 </r>
       <r>    7.8964    1.0000 </r>
       <r>    8.0187    1.0000 </r>
       <r>    8.0306    1.0000 </r>
       <r>    8.0316    1.0000 </r>
       <r>    8.0318    1.0000 </r>
       <r>    8.0322    1.0000 </r>
       <r>    8.0323    1.0000 </r>
       <r>    8.0330    1.0000 </r>
       <r>    8.0448    1.0000 </r>
       <r>    8.0886    1.0000 </r>
       <r>    8.0922    1.0000 </r>
       <r>    8.0952    1.0000 </r>
       <r>    8.0955    1.0000 </r>
       <r>    8.0987    1.0000 </r>
       <r>    8.1013    1.0000 </r>
       <r>    8.1687    1.0000 </r>
       <r>    8.1736    1.0000 </r>
       <r>    8.1788    1.0000 </r>
       <r>    8.3216    1.0000 </r>
       <r>    8.3220    1.0000 </r>
       <r>    8.3282    1.0000 </r>
       <r>    8.3282    1.0000 </r>
       <r>    8.3340    1.0000 </r>
       <r>    8.3346    1.0000 </r>
       <r>    8.3428    1.0000 </r>
       <r>    8.3472    1.0000 </r>
       <r>    8.3521    1.0000 </r>
       <r>    8.4958    1.0000 </r>
       <r>    8.4972    1.0000 </r>
       <r>    8.4974    1.0000 </r>
       <r>    8.5407    1.0000 </r>
       <r>    8.5417    1.0000 </r>
       <r>    8.5638    1.0000 </r>
       <r>    8.5689    1.0001 </r>
       <r>    8.5749    1.0001 </r>
       <r>    8.7418    1.0330 </r>
       <r>    8.7430    1.0334 </r>
       <r>    8.7480    1.0346 </r>
       <r>    8.7482    1.0347 </r>
       <r>    8.7498    1.0349 </r>
       <r>    8.7514    1.0352 </r>
       <r>    8.7521    1.0353 </r>
       <r>    8.7523    1.0353 </r>
       <r>    8.7523    1.0353 </r>
       <r>    8.7524    1.0353 </r>
       <r>    8.7531    1.0353 </r>
       <r>    8.7550    1.0354 </r>
       <r>    8.7565    1.0355 </r>
       <r>    8.7568    1.0354 </r>
       <r>    8.7629    1.0346 </r>
       <r>    8.7638    1.0344 </r>
       <r>    9.3158   -0.0000 </r>
       <r>    9.3176   -0.0000 </r>
       <r>    9.3195   -0.0000 </r>
       <r>    9.4559   -0.0000 </r>
       <r>    9.4559   -0.0000 </r>
       <r>    9.4560   -0.0000 </r>
       <r>    9.4880   -0.0000 </r>
       <r>    9.4904   -0.0000 </r>
       <r>    9.4926   -0.0000 </r>
       <r>    9.8573   -0.0000 </r>
       <r>   10.3591   -0.0000 </r>
       <r>   10.3618   -0.0000 </r>
       <r>   10.3659   -0.0000 </r>
       <r>   10.3679   -0.0000 </r>
       <r>   10.3841   -0.0000 </r>
       <r>   10.3862   -0.0000 </r>
       <r>   10.3948   -0.0000 </r>
       <r>   10.4332   -0.0000 </r>
       <r>   10.4572   -0.0000 </r>
       <r>   10.4602   -0.0000 </r>
       <r>   10.4790   -0.0000 </r>
       <r>   10.5260   -0.0000 </r>
       <r>   10.5266   -0.0000 </r>
       <r>   10.5273   -0.0000 </r>
       <r>   10.5279   -0.0000 </r>
       <r>   10.5288   -0.0000 </r>
       <r>   10.5338   -0.0000 </r>
       <r>   10.5380   -0.0000 </r>
       <r>   10.5426   -0.0000 </r>
       <r>   10.5513   -0.0000 </r>
       <r>   10.5644   -0.0000 </r>
       <r>   10.5768   -0.0000 </r>
       <r>   10.5821   -0.0000 </r>
       <r>   10.5902   -0.0000 </r>
       <r>   12.1008    0.0000 </r>
       <r>   12.1015    0.0000 </r>
       <r>   12.8487    0.0000 </r>
       <r>   13.6557    0.0000 </r>
      </set>
      <set comment="kpoint 2">
       <r>    0.3649    1.0000 </r>
       <r>    1.6649    1.0000 </r>
       <r>    2.0753    1.0000 </r>
       <r>    2.0778    1.0000 </r>
       <r>    2.0802    1.0000 </r>
       <r>    2.1500    1.0000 </r>
       <r>    2.3327    1.0000 </r>
       <r>    2.3352    1.0000 </r>
       <r>    2.3375    1.0000 </r>
       <r>    2.3480    1.0000 </r>
       <r>    2.3483    1.0000 </r>
       <r>    2.3707    1.0000 </r>
       <r>    2.3731    1.0000 </r>
       <r>    2.3753    1.0000 </r>
       <r>    2.3913    1.0000 </r>
       <r>    2.6592    1.0000 </r>
       <r>    2.6868    1.0000 </r>
       <r>    2.7152    1.0000 </r>
       <r>    2.7154    1.0000 </r>
       <r>    2.8767    1.0000 </r>
       <r>    2.8774    1.0000 </r>
       <r>    2.8833    1.0000 </r>
       <r>    3.1563    1.0000 </r>
       <r>    3.1578    1.0000 </r>
       <r>    3.3681    1.0000 </r>
       <r>    3.3713    1.0000 </r>
       <r>    3.3737    1.0000 </r>
       <r>    3.3757    1.0000 </r>
       <r>    3.3779    1.0000 </r>
       <r>    3.3796    1.0000 </r>
       <r>    3.3917    1.0000 </r>
       <r>    3.4134    1.0000 </r>
       <r>    3.4170    1.0000 </r>
       <r>    3.4195    1.0000 </r>
       <r>    3.4331    1.0000 </r>
       <r>    3.4335    1.0000 </r>
       <r>    3.5013    1.0000 </r>
       <r>    3.5047    1.0000 </r>
       <r>    3.5069    1.0000 </r>
       <r>    3.5078    1.0000 </r>
       <r>    3.5106    1.0000 </r>
       <r>    3.5119    1.0000 </r>
       <r>    3.5327    1.0000 </r>
       <r>    3.5727    1.0000 </r>
       <r>    3.5757    1.0000 </r>
       <r>    3.5787    1.0000 </r>
       <r>    3.6078    1.0000 </r>
       <r>    3.6107    1.0000 </r>
       <r>    3.6139    1.0000 </r>
       <r>    3.6296    1.0000 </r>
       <r>    3.6327    1.0000 </r>
       <r>    3.6358    1.0000 </r>
       <r>    3.6964    1.0000 </r>
       <r>    3.6985    1.0000 </r>
       <r>    3.7007    1.0000 </r>
       <r>    3.8698    1.0000 </r>
       <r>    3.8727    1.0000 </r>
       <r>    3.9143    1.0000 </r>
       <r>    3.9181    1.0000 </r>
       <r>    3.9221    1.0000 </r>
       <r>    4.0340    1.0000 </r>
       <r>    4.0397    1.0000 </r>
       <r>    4.0446    1.0000 </r>
       <r>    4.0695    1.0000 </r>
       <r>    4.0987    1.0000 </r>
       <r>    4.1003    1.0000 </r>
       <r>    4.1021    1.0000 </r>
       <r>    4.2233    1.0000 </r>
       <r>    4.2248    1.0000 </r>
       <r>    4.2264    1.0000 </r>
       <r>    4.2578    1.0000 </r>
       <r>    4.2606    1.0000 </r>
       <r>    4.2631    1.0000 </r>
       <r>    4.4006    1.0000 </r>
       <r>    4.4017    1.0000 </r>
       <r>    4.4032    1.0000 </r>
       <r>    4.4324    1.0000 </r>
       <r>    4.4354    1.0000 </r>
       <r>    4.4381    1.0000 </r>
       <r>    4.5225    1.0000 </r>
       <r>    4.5263    1.0000 </r>
       <r>    4.5299    1.0000 </r>
       <r>    4.5638    1.0000 </r>
       <r>    4.5659    1.0000 </r>
       <r>    4.5678    1.0000 </r>
       <r>    4.6338    1.0000 </r>
       <r>    4.6367    1.0000 </r>
       <r>    4.6388    1.0000 </r>
       <r>    4.6452    1.0000 </r>
       <r>    4.6482    1.0000 </r>
       <r>    4.6518    1.0000 </r>
       <r>    4.7177    1.0000 </r>
       <r>    4.7199    1.0000 </r>
       <r>    4.7221    1.0000 </r>
       <r>    4.7696    1.0000 </r>
       <r>    4.7705    1.0000 </r>
       <r>    4.7714    1.0000 </r>
       <r>    4.9008    1.0000 </r>
       <r>    4.9014    1.0000 </r>
       <r>    4.9139    1.0000 </r>
       <r>    4.9190    1.0000 </r>
       <r>    4.9237    1.0000 </r>
       <r>    4.9453    1.0000 </r>
       <r>    4.9472    1.0000 </r>
       <r>    4.9495    1.0000 </r>
       <r>    5.1122    1.0000 </r>
       <r>    5.1147    1.0000 </r>
       <r>    5.1169    1.0000 </r>
       <r>    5.1703    1.0000 </r>
       <r>    5.2039    1.0000 </r>
       <r>    5.2065    1.0000 </r>
       <r>    5.2093    1.0000 </r>
       <r>    5.3759    1.0000 </r>
       <r>    5.3780    1.0000 </r>
       <r>    5.3803    1.0000 </r>
       <r>    5.4250    1.0000 </r>
       <r>    5.4294    1.0000 </r>
       <r>    5.4336    1.0000 </r>
       <r>    5.4966    1.0000 </r>
       <r>    5.4997    1.0000 </r>
       <r>    5.5030    1.0000 </r>
       <r>    5.5194    1.0000 </r>
       <r>    5.5213    1.0000 </r>
       <r>    5.5234    1.0000 </r>
       <r>    5.5433    1.0000 </r>
       <r>    5.5452    1.0000 </r>
       <r>    5.5470    1.0000 </r>
       <r>    5.6233    1.0000 </r>
       <r>    5.6521    1.0000 </r>
       <r>    5.6534    1.0000 </r>
       <r>    5.6552    1.0000 </r>
       <r>    5.6576    1.0000 </r>
       <r>    5.6596    1.0000 </r>
       <r>    5.7151    1.0000 </r>
       <r>    5.7189    1.0000 </r>
       <r>    5.7198    1.0000 </r>
       <r>    5.7205    1.0000 </r>
       <r>    5.7211    1.0000 </r>
       <r>    5.7248    1.0000 </r>
       <r>    5.9246    1.0000 </r>
       <r>    5.9274    1.0000 </r>
       <r>    5.9322    1.0000 </r>
       <r>    5.9358    1.0000 </r>
       <r>    5.9399    1.0000 </r>
       <r>    6.0641    1.0000 </r>
       <r>    6.0650    1.0000 </r>
       <r>    6.0675    1.0000 </r>
       <r>    6.1669    1.0000 </r>
       <r>    6.1678    1.0000 </r>
       <r>    6.1768    1.0000 </r>
       <r>    6.1798    1.0000 </r>
       <r>    6.1828    1.0000 </r>
       <r>    6.1958    1.0000 </r>
       <r>    6.1963    1.0000 </r>
       <r>    6.2979    1.0000 </r>
       <r>    6.3250    1.0000 </r>
       <r>    6.3287    1.0000 </r>
       <r>    6.3322    1.0000 </r>
       <r>    6.4129    1.0000 </r>
       <r>    6.4137    1.0000 </r>
       <r>    6.4530    1.0000 </r>
       <r>    6.4560    1.0000 </r>
       <r>    6.4587    1.0000 </r>
       <r>    6.5023    1.0000 </r>
       <r>    6.5056    1.0000 </r>
       <r>    6.5092    1.0000 </r>
       <r>    6.5474    1.0000 </r>
       <r>    6.5483    1.0000 </r>
       <r>    6.5723    1.0000 </r>
       <r>    6.5752    1.0000 </r>
       <r>    6.5765    1.0000 </r>
       <r>    6.5775    1.0000 </r>
       <r>    6.5784    1.0000 </r>
       <r>    6.5802    1.0000 </r>
       <r>    6.5861    1.0000 </r>
       <r>    6.5893    1.0000 </r>
       <r>    6.5926    1.0000 </r>
       <r>    6.6208    1.0000 </r>
       <r>    6.6220    1.0000 </r>
       <r>    6.6240    1.0000 </r>
       <r>    6.6350    1.0000 </r>
       <r>    6.6507    1.0000 </r>
       <r>    6.6538    1.0000 </r>
       <r>    6.7131    1.0000 </r>
       <r>    6.7151    1.0000 </r>
       <r>    6.7172    1.0000 </r>
       <r>    6.7556    1.0000 </r>
       <r>    6.7565    1.0000 </r>
       <r>    6.7574    1.0000 </r>
       <r>    6.8260    1.0000 </r>
       <r>    6.8299    1.0000 </r>
       <r>    6.8342    1.0000 </r>
       <r>    6.9509    1.0000 </r>
       <r>    7.0004    1.0000 </r>
       <r>    7.0014    1.0000 </r>
       <r>    7.0021    1.0000 </r>
       <r>    7.1621    1.0000 </r>
       <r>    7.1659    1.0000 </r>
       <r>    7.1683    1.0000 </r>
       <r>    7.1702    1.0000 </r>
       <r>    7.1738    1.0000 </r>
       <r>    7.3479    1.0000 </r>
       <r>    7.3486    1.0000 </r>
       <r>    7.4224    1.0000 </r>
       <r>    7.4720    1.0000 </r>
       <r>    7.4757    1.0000 </r>
       <r>    7.4787    1.0000 </r>
       <r>    7.5788    1.0000 </r>
       <r>    7.5845    1.0000 </r>
       <r>    7.5870    1.0000 </r>
       <r>    7.5882    1.0000 </r>
       <r>    7.5908    1.0000 </r>
       <r>    7.5944    1.0000 </r>
       <r>    7.6159    1.0000 </r>
       <r>    7.6178    1.0000 </r>
       <r>    7.6200    1.0000 </r>
       <r>    7.6635    1.0000 </r>
       <r>    7.6687    1.0000 </r>
       <r>    7.6733    1.0000 </r>
       <r>    7.6924    1.0000 </r>
       <r>    7.6955    1.0000 </r>
       <r>    7.6982    1.0000 </r>
       <r>    7.8774    1.0000 </r>
       <r>    7.8839    1.0000 </r>
       <r>    7.8878    1.0000 </r>
       <r>    7.8913    1.0000 </r>
       <r>    7.8959    1.0000 </r>
       <r>    7.9008    1.0000 </r>
       <r>    8.0163    1.0000 </r>
       <r>    8.0223    1.0000 </r>
       <r>    8.0273    1.0000 </r>
       <r>    8.0436    1.0000 </r>
       <r>    8.0457    1.0000 </r>
       <r>    8.0481    1.0000 </r>
       <r>    8.1885    1.0000 </r>
       <r>    8.1954    1.0000 </r>
       <r>    8.1995    1.0000 </r>
       <r>    8.2094    1.0000 </r>
       <r>    8.2129    1.0000 </r>
       <r>    8.2175    1.0000 </r>
       <r>    8.2492    1.0000 </r>
       <r>    8.2540    1.0000 </r>
       <r>    8.2601    1.0000 </r>
       <r>    8.3267    1.0000 </r>
       <r>    8.3312    1.0000 </r>
       <r>    8.3344    1.0000 </r>
       <r>    8.3625    1.0000 </r>
       <r>    8.3656    1.0000 </r>
       <r>    8.4089    1.0000 </r>
       <r>    8.4130    1.0000 </r>
       <r>    8.4176    1.0000 </r>
       <r>    8.4509    1.0000 </r>
       <r>    8.4545    1.0000 </r>
       <r>    8.4578    1.0000 </r>
       <r>    8.5126    1.0000 </r>
       <r>    8.5129    1.0000 </r>
       <r>    8.5475    1.0000 </r>
       <r>    8.5527    1.0000 </r>
       <r>    8.5568    1.0000 </r>
       <r>    8.5665    1.0000 </r>
       <r>    8.5717    1.0001 </r>
       <r>    8.5741    1.0001 </r>
       <r>    8.6369    1.0017 </r>
       <r>    8.6401    1.0019 </r>
       <r>    8.6491    1.0028 </r>
       <r>    8.6522    1.0032 </r>
       <r>    8.6556    1.0036 </r>
       <r>    8.6926    1.0123 </r>
       <r>    8.6946    1.0131 </r>
       <r>    8.6966    1.0138 </r>
       <r>    8.7053    1.0173 </r>
       <r>    8.8319    0.8495 </r>
       <r>    8.8349    0.8314 </r>
       <r>    8.8760    0.5195 </r>
       <r>    8.9185    0.1880 </r>
       <r>    8.9217    0.1682 </r>
       <r>    8.9238    0.1553 </r>
       <r>    8.9373    0.0844 </r>
       <r>    8.9414    0.0665 </r>
       <r>    8.9455    0.0502 </r>
       <r>    9.1386   -0.0007 </r>
       <r>    9.1388   -0.0007 </r>
       <r>    9.2657   -0.0000 </r>
       <r>    9.2695   -0.0000 </r>
       <r>    9.2707   -0.0000 </r>
       <r>    9.2733   -0.0000 </r>
       <r>    9.2839   -0.0000 </r>
       <r>    9.2870   -0.0000 </r>
       <r>    9.2892   -0.0000 </r>
       <r>    9.6325   -0.0000 </r>
       <r>    9.6338   -0.0000 </r>
       <r>    9.6350   -0.0000 </r>
       <r>   10.2025   -0.0000 </r>
       <r>   10.2317   -0.0000 </r>
       <r>   10.2340   -0.0000 </r>
       <r>   10.3041   -0.0000 </r>
       <r>   10.3085   -0.0000 </r>
       <r>   10.3115   -0.0000 </r>
       <r>   10.3129   -0.0000 </r>
       <r>   10.3175   -0.0000 </r>
       <r>   10.3232   -0.0000 </r>
       <r>   10.3276   -0.0000 </r>
       <r>   10.3314   -0.0000 </r>
       <r>   10.3885   -0.0000 </r>
       <r>   10.3914   -0.0000 </r>
       <r>   10.3969   -0.0000 </r>
       <r>   10.4024   -0.0000 </r>
       <r>   10.4146   -0.0000 </r>
       <r>   10.4308   -0.0000 </r>
       <r>   10.4369   -0.0000 </r>
       <r>   10.4400   -0.0000 </r>
       <r>   10.4454   -0.0000 </r>
       <r>   10.4531   -0.0000 </r>
       <r>   10.4651   -0.0000 </r>
       <r>   10.4792   -0.0000 </r>
       <r>   10.4848   -0.0000 </r>
       <r>   10.5142   -0.0000 </r>
       <r>   10.5636   -0.0000 </r>
       <r>   12.7246    0.0000 </r>
       <r>   12.9271    0.0000 </r>
      </set>
      <set comment="kpoint 3">
       <r>    0.6667    1.0000 </r>
       <r>    1.1277    1.0000 </r>
       <r>    2.1356    1.0000 </r>
       <r>    2.1381    1.0000 </r>
       <r>    2.1404    1.0000 </r>
       <r>    2.2581    1.0000 </r>
       <r>    2.2605    1.0000 </r>
       <r>    2.2629    1.0000 </r>
       <r>    2.3043    1.0000 </r>
       <r>    2.4214    1.0000 </r>
       <r>    2.5514    1.0000 </r>
       <r>    2.5519    1.0000 </r>
       <r>    2.6781    1.0000 </r>
       <r>    2.6805    1.0000 </r>
       <r>    2.6828    1.0000 </r>
       <r>    2.8435    1.0000 </r>
       <r>    2.8446    1.0000 </r>
       <r>    2.8485    1.0000 </r>
       <r>    2.8596    1.0000 </r>
       <r>    2.9336    1.0000 </r>
       <r>    2.9340    1.0000 </r>
       <r>    3.0703    1.0000 </r>
       <r>    3.0717    1.0000 </r>
       <r>    3.1056    1.0000 </r>
       <r>    3.1094    1.0000 </r>
       <r>    3.1317    1.0000 </r>
       <r>    3.1342    1.0000 </r>
       <r>    3.1367    1.0000 </r>
       <r>    3.1840    1.0000 </r>
       <r>    3.2235    1.0000 </r>
       <r>    3.2238    1.0000 </r>
       <r>    3.3929    1.0000 </r>
       <r>    3.3959    1.0000 </r>
       <r>    3.3987    1.0000 </r>
       <r>    3.4036    1.0000 </r>
       <r>    3.4059    1.0000 </r>
       <r>    3.4115    1.0000 </r>
       <r>    3.4137    1.0000 </r>
       <r>    3.4163    1.0000 </r>
       <r>    3.5093    1.0000 </r>
       <r>    3.5118    1.0000 </r>
       <r>    3.5139    1.0000 </r>
       <r>    3.5157    1.0000 </r>
       <r>    3.5873    1.0000 </r>
       <r>    3.5902    1.0000 </r>
       <r>    3.5931    1.0000 </r>
       <r>    3.7016    1.0000 </r>
       <r>    3.7034    1.0000 </r>
       <r>    3.7059    1.0000 </r>
       <r>    3.7327    1.0000 </r>
       <r>    3.7363    1.0000 </r>
       <r>    3.7394    1.0000 </r>
       <r>    3.7649    1.0000 </r>
       <r>    3.7690    1.0000 </r>
       <r>    3.7727    1.0000 </r>
       <r>    3.8725    1.0000 </r>
       <r>    3.8754    1.0000 </r>
       <r>    3.8767    1.0000 </r>
       <r>    3.8854    1.0000 </r>
       <r>    3.8875    1.0000 </r>
       <r>    3.8913    1.0000 </r>
       <r>    3.9330    1.0000 </r>
       <r>    3.9348    1.0000 </r>
       <r>    3.9365    1.0000 </r>
       <r>    3.9418    1.0000 </r>
       <r>    3.9467    1.0000 </r>
       <r>    3.9521    1.0000 </r>
       <r>    4.0118    1.0000 </r>
       <r>    4.0140    1.0000 </r>
       <r>    4.0160    1.0000 </r>
       <r>    4.0616    1.0000 </r>
       <r>    4.0647    1.0000 </r>
       <r>    4.0680    1.0000 </r>
       <r>    4.1038    1.0000 </r>
       <r>    4.1052    1.0000 </r>
       <r>    4.1065    1.0000 </r>
       <r>    4.2203    1.0000 </r>
       <r>    4.2230    1.0000 </r>
       <r>    4.2255    1.0000 </r>
       <r>    4.3756    1.0000 </r>
       <r>    4.3781    1.0000 </r>
       <r>    4.3803    1.0000 </r>
       <r>    4.4360    1.0000 </r>
       <r>    4.4391    1.0000 </r>
       <r>    4.4419    1.0000 </r>
       <r>    4.4949    1.0000 </r>
       <r>    4.4970    1.0000 </r>
       <r>    4.4991    1.0000 </r>
       <r>    4.6981    1.0000 </r>
       <r>    4.7005    1.0000 </r>
       <r>    4.7028    1.0000 </r>
       <r>    4.8236    1.0000 </r>
       <r>    4.8261    1.0000 </r>
       <r>    4.8284    1.0000 </r>
       <r>    4.9062    1.0000 </r>
       <r>    4.9089    1.0000 </r>
       <r>    4.9110    1.0000 </r>
       <r>    4.9237    1.0000 </r>
       <r>    4.9268    1.0000 </r>
       <r>    4.9303    1.0000 </r>
       <r>    5.1012    1.0000 </r>
       <r>    5.1074    1.0000 </r>
       <r>    5.1123    1.0000 </r>
       <r>    5.1658    1.0000 </r>
       <r>    5.1688    1.0000 </r>
       <r>    5.1721    1.0000 </r>
       <r>    5.2104    1.0000 </r>
       <r>    5.2125    1.0000 </r>
       <r>    5.2148    1.0000 </r>
       <r>    5.2359    1.0000 </r>
       <r>    5.2389    1.0000 </r>
       <r>    5.2427    1.0000 </r>
       <r>    5.2733    1.0000 </r>
       <r>    5.2746    1.0000 </r>
       <r>    5.3152    1.0000 </r>
       <r>    5.3198    1.0000 </r>
       <r>    5.3240    1.0000 </r>
       <r>    5.3744    1.0000 </r>
       <r>    5.3759    1.0000 </r>
       <r>    5.3779    1.0000 </r>
       <r>    5.4368    1.0000 </r>
       <r>    5.5405    1.0000 </r>
       <r>    5.5422    1.0000 </r>
       <r>    5.5989    1.0000 </r>
       <r>    5.6020    1.0000 </r>
       <r>    5.6046    1.0000 </r>
       <r>    5.6169    1.0000 </r>
       <r>    5.6202    1.0000 </r>
       <r>    5.6234    1.0000 </r>
       <r>    5.7137    1.0000 </r>
       <r>    5.7483    1.0000 </r>
       <r>    5.8698    1.0000 </r>
       <r>    5.8736    1.0000 </r>
       <r>    5.8768    1.0000 </r>
       <r>    5.9239    1.0000 </r>
       <r>    5.9678    1.0000 </r>
       <r>    5.9706    1.0000 </r>
       <r>    5.9731    1.0000 </r>
       <r>    6.0311    1.0000 </r>
       <r>    6.0340    1.0000 </r>
       <r>    6.0363    1.0000 </r>
       <r>    6.0675    1.0000 </r>
       <r>    6.0699    1.0000 </r>
       <r>    6.0722    1.0000 </r>
       <r>    6.1335    1.0000 </r>
       <r>    6.1352    1.0000 </r>
       <r>    6.1376    1.0000 </r>
       <r>    6.1842    1.0000 </r>
       <r>    6.1869    1.0000 </r>
       <r>    6.1889    1.0000 </r>
       <r>    6.1902    1.0000 </r>
       <r>    6.1908    1.0000 </r>
       <r>    6.1921    1.0000 </r>
       <r>    6.1940    1.0000 </r>
       <r>    6.1968    1.0000 </r>
       <r>    6.2773    1.0000 </r>
       <r>    6.2780    1.0000 </r>
       <r>    6.2843    1.0000 </r>
       <r>    6.2849    1.0000 </r>
       <r>    6.2907    1.0000 </r>
       <r>    6.2912    1.0000 </r>
       <r>    6.3516    1.0000 </r>
       <r>    6.3547    1.0000 </r>
       <r>    6.3577    1.0000 </r>
       <r>    6.4336    1.0000 </r>
       <r>    6.4358    1.0000 </r>
       <r>    6.4391    1.0000 </r>
       <r>    6.4430    1.0000 </r>
       <r>    6.4439    1.0000 </r>
       <r>    6.4705    1.0000 </r>
       <r>    6.4724    1.0000 </r>
       <r>    6.4744    1.0000 </r>
       <r>    6.5322    1.0000 </r>
       <r>    6.6127    1.0000 </r>
       <r>    6.6149    1.0000 </r>
       <r>    6.6164    1.0000 </r>
       <r>    6.6484    1.0000 </r>
       <r>    6.6492    1.0000 </r>
       <r>    6.6812    1.0000 </r>
       <r>    6.6834    1.0000 </r>
       <r>    6.6846    1.0000 </r>
       <r>    6.7169    1.0000 </r>
       <r>    6.7181    1.0000 </r>
       <r>    6.7189    1.0000 </r>
       <r>    6.8056    1.0000 </r>
       <r>    6.8652    1.0000 </r>
       <r>    6.8679    1.0000 </r>
       <r>    6.8695    1.0000 </r>
       <r>    6.8728    1.0000 </r>
       <r>    6.8768    1.0000 </r>
       <r>    6.8809    1.0000 </r>
       <r>    6.9141    1.0000 </r>
       <r>    6.9295    1.0000 </r>
       <r>    6.9305    1.0000 </r>
       <r>    6.9317    1.0000 </r>
       <r>    6.9677    1.0000 </r>
       <r>    6.9720    1.0000 </r>
       <r>    6.9759    1.0000 </r>
       <r>    7.1372    1.0000 </r>
       <r>    7.1408    1.0000 </r>
       <r>    7.1998    1.0000 </r>
       <r>    7.2025    1.0000 </r>
       <r>    7.2049    1.0000 </r>
       <r>    7.3954    1.0000 </r>
       <r>    7.3999    1.0000 </r>
       <r>    7.4038    1.0000 </r>
       <r>    7.4167    1.0000 </r>
       <r>    7.4647    1.0000 </r>
       <r>    7.4688    1.0000 </r>
       <r>    7.4729    1.0000 </r>
       <r>    7.6464    1.0000 </r>
       <r>    7.6495    1.0000 </r>
       <r>    7.6522    1.0000 </r>
       <r>    7.6727    1.0000 </r>
       <r>    7.6754    1.0000 </r>
       <r>    7.6788    1.0000 </r>
       <r>    7.7301    1.0000 </r>
       <r>    7.7359    1.0000 </r>
       <r>    7.7404    1.0000 </r>
       <r>    7.7999    1.0000 </r>
       <r>    7.8051    1.0000 </r>
       <r>    7.8101    1.0000 </r>
       <r>    7.8448    1.0000 </r>
       <r>    7.9353    1.0000 </r>
       <r>    7.9389    1.0000 </r>
       <r>    7.9477    1.0000 </r>
       <r>    7.9823    1.0000 </r>
       <r>    7.9870    1.0000 </r>
       <r>    7.9920    1.0000 </r>
       <r>    8.1063    1.0000 </r>
       <r>    8.1109    1.0000 </r>
       <r>    8.1156    1.0000 </r>
       <r>    8.1819    1.0000 </r>
       <r>    8.1888    1.0000 </r>
       <r>    8.1935    1.0000 </r>
       <r>    8.2219    1.0000 </r>
       <r>    8.2271    1.0000 </r>
       <r>    8.2329    1.0000 </r>
       <r>    8.2494    1.0000 </r>
       <r>    8.2504    1.0000 </r>
       <r>    8.2821    1.0000 </r>
       <r>    8.2877    1.0000 </r>
       <r>    8.2934    1.0000 </r>
       <r>    8.3616    1.0000 </r>
       <r>    8.3674    1.0000 </r>
       <r>    8.3717    1.0000 </r>
       <r>    8.3812    1.0000 </r>
       <r>    8.3836    1.0000 </r>
       <r>    8.3861    1.0000 </r>
       <r>    8.3886    1.0000 </r>
       <r>    8.3995    1.0000 </r>
       <r>    8.4012    1.0000 </r>
       <r>    8.4356    1.0000 </r>
       <r>    8.4385    1.0000 </r>
       <r>    8.4417    1.0000 </r>
       <r>    8.4466    1.0000 </r>
       <r>    8.4477    1.0000 </r>
       <r>    8.5516    1.0000 </r>
       <r>    8.5561    1.0000 </r>
       <r>    8.5597    1.0000 </r>
       <r>    8.5784    1.0001 </r>
       <r>    8.5817    1.0001 </r>
       <r>    8.5862    1.0001 </r>
       <r>    9.0846   -0.0065 </r>
       <r>    9.0964   -0.0043 </r>
       <r>    9.0998   -0.0038 </r>
       <r>    9.1037   -0.0032 </r>
       <r>    9.1606   -0.0002 </r>
       <r>    9.1640   -0.0002 </r>
       <r>    9.1666   -0.0002 </r>
       <r>    9.1954   -0.0000 </r>
       <r>    9.1980   -0.0000 </r>
       <r>    9.2007   -0.0000 </r>
       <r>    9.2111   -0.0000 </r>
       <r>    9.2139   -0.0000 </r>
       <r>    9.2176   -0.0000 </r>
       <r>    9.2475   -0.0000 </r>
       <r>    9.2490   -0.0000 </r>
       <r>    9.2859   -0.0000 </r>
       <r>    9.2863   -0.0000 </r>
       <r>    9.3748   -0.0000 </r>
       <r>    9.4588   -0.0000 </r>
       <r>    9.4608   -0.0000 </r>
       <r>    9.4627   -0.0000 </r>
       <r>    9.5912   -0.0000 </r>
       <r>    9.5912   -0.0000 </r>
       <r>    9.6311   -0.0000 </r>
       <r>    9.6340   -0.0000 </r>
       <r>    9.6370   -0.0000 </r>
       <r>    9.8435   -0.0000 </r>
       <r>    9.8458   -0.0000 </r>
       <r>    9.8472   -0.0000 </r>
       <r>    9.8553   -0.0000 </r>
       <r>    9.8567   -0.0000 </r>
       <r>    9.8615   -0.0000 </r>
       <r>    9.8634   -0.0000 </r>
       <r>    9.8659   -0.0000 </r>
       <r>    9.9515   -0.0000 </r>
       <r>    9.9628   -0.0000 </r>
       <r>    9.9633   -0.0000 </r>
       <r>    9.9642   -0.0000 </r>
       <r>    9.9864   -0.0000 </r>
       <r>    9.9881   -0.0000 </r>
       <r>    9.9896   -0.0000 </r>
       <r>    9.9912   -0.0000 </r>
       <r>    9.9922   -0.0000 </r>
       <r>    9.9957   -0.0000 </r>
       <r>   10.0090   -0.0000 </r>
       <r>   10.0104   -0.0000 </r>
       <r>   10.3171   -0.0000 </r>
       <r>   10.3210   -0.0000 </r>
       <r>   10.3497   -0.0000 </r>
       <r>   10.3500   -0.0000 </r>
       <r>   10.3978   -0.0000 </r>
       <r>   10.4381   -0.0000 </r>
       <r>   10.4604   -0.0000 </r>
       <r>   10.4930   -0.0000 </r>
       <r>   10.5313   -0.0000 </r>
       <r>   10.6405   -0.0000 </r>
       <r>   12.7519    0.0000 </r>
      </set>
      <set comment="kpoint 4">
       <r>    0.3997    1.0000 </r>
       <r>    1.9193    1.0000 </r>
       <r>    1.9228    1.0000 </r>
       <r>    1.9229    1.0000 </r>
       <r>    1.9263    1.0000 </r>
       <r>    2.0746    1.0000 </r>
       <r>    2.1768    1.0000 </r>
       <r>    2.3691    1.0000 </r>
       <r>    2.3750    1.0000 </r>
       <r>    2.4101    1.0000 </r>
       <r>    2.4132    1.0000 </r>
       <r>    2.4133    1.0000 </r>
       <r>    2.4164    1.0000 </r>
       <r>    2.5248    1.0000 </r>
       <r>    2.5248    1.0000 </r>
       <r>    2.6853    1.0000 </r>
       <r>    2.7248    1.0000 </r>
       <r>    2.7310    1.0000 </r>
       <r>    2.7311    1.0000 </r>
       <r>    2.8772    1.0000 </r>
       <r>    2.9117    1.0000 </r>
       <r>    2.9119    1.0000 </r>
       <r>    3.2536    1.0000 </r>
       <r>    3.2984    1.0000 </r>
       <r>    3.2995    1.0000 </r>
       <r>    3.2995    1.0000 </r>
       <r>    3.3009    1.0000 </r>
[...]
      </set>
     </set>
    </set>
   </array>
  </eigenvalues>
  <separator name="orbital magnetization" >
   <v name="MAGDIPOLOUT">      0.00000000      0.00000000      0.00000000</v>
  </separator>
  <dos>
   <i name="efermi">      8.87827935 </i>
   <total>
    <array>
     <dimension dim="1">gridpoints</dimension>
     <dimension dim="2">spin</dimension>
     <field>energy</field>
     <field>total</field>
     <field>integrated</field>
     <set>
      <set comment="spin 1">
       <r>    -0.7393     0.0000     0.0000 </r>
       <r>    -0.6880     0.0000     0.0000 </r>
       <r>    -0.6367     0.0000     0.0000 </r>
       <r>    -0.5854    -0.0000    -0.0000 </r>
       <r>    -0.5341    -0.0000    -0.0000 </r>
       <r>    -0.4827    -0.0000    -0.0000 </r>
       <r>    -0.4314    -0.0000    -0.0000 </r>
       <r>    -0.3801    -0.0000    -0.0000 </r>
       <r>    -0.3288    -0.0000    -0.0000 </r>
       <r>    -0.2775    -0.0000    -0.0000 </r>
       <r>    -0.2262    -0.0000    -0.0000 </r>
       <r>    -0.1748    -0.0000    -0.0000 </r>
       <r>    -0.1235    -0.0000    -0.0000 </r>
       <r>    -0.0722    -0.0000    -0.0000 </r>
       <r>    -0.0209    -0.0001    -0.0000 </r>
       <r>     0.0304    -0.0008    -0.0000 </r>
       <r>     0.0817    -0.0044    -0.0003 </r>
       <r>     0.1331    -0.0129    -0.0009 </r>
       <r>     0.1844    -0.0199    -0.0020 </r>
       <r>     0.2357     0.0034    -0.0018 </r>
       <r>     0.2870     0.2280     0.0099 </r>
       <r>     0.3383     0.9245     0.0574 </r>
       <r>     0.3896     1.6115     0.1401 </r>
       <r>     0.4410     1.4134     0.2126 </r>
       <r>     0.4923     1.0192     0.2649 </r>
       <r>     0.5436     1.5346     0.3436 </r>
       <r>     0.5949     2.8805     0.4915 </r>
       <r>     0.6462     4.1226     0.7030 </r>
       <r>     0.6975     3.4601     0.8806 </r>
       <r>     0.7489     1.3732     0.9510 </r>
       <r>     0.8002     0.6275     0.9832 </r>
       <r>     0.8515     2.3578     1.1042 </r>
       <r>     0.9028     5.1378     1.3679 </r>
       <r>     0.9541     5.6977     1.6603 </r>
       <r>     1.0054     4.0652     1.8689 </r>
       <r>     1.0568     3.6347     2.0554 </r>
       <r>     1.1081     4.5760     2.2902 </r>
       <r>     1.1594     4.6226     2.5275 </r>
       <r>     1.2107     2.7387     2.6680 </r>
       <r>     1.2620     1.1959     2.7294 </r>
       <r>     1.3133     3.2529     2.8963 </r>
       <r>     1.3647     8.1766     3.3159 </r>
       <r>     1.4160     9.9353     3.8257 </r>
       <r>     1.4673     6.5111     4.1599 </r>
       <r>     1.5186     4.6566     4.3988 </r>
       <r>     1.5699     6.3611     4.7253 </r>
       <r>     1.6212     6.8811     5.0784 </r>
       <r>     1.6726     4.4424     5.3063 </r>
       <r>     1.7239     2.0192     5.4100 </r>
       <r>     1.7752     3.6862     5.5991 </r>
       <r>     1.8265     8.6763     6.0444 </r>
       <r>     1.8778    12.3341     6.6773 </r>
       <r>     1.9291    12.7101     7.3296 </r>
       <r>     1.9805    10.8748     7.8876 </r>
       <r>     2.0318     9.1906     8.3592 </r>
       <r>     2.0831     8.9023     8.8161 </r>
       <r>     2.1344     9.5349     9.3054 </r>
       <r>     2.1857     9.0790     9.7713 </r>
       <r>     2.2370     7.9765    10.1806 </r>
       <r>     2.2884    12.4876    10.8214 </r>
       <r>     2.3397    24.7309    12.0905 </r>
       <r>     2.3910    34.9916    13.8862 </r>
       <r>     2.4423    37.4189    15.8064 </r>
       <r>     2.4936    38.6066    17.7876 </r>
       <r>     2.5449    38.4977    19.7631 </r>
       <r>     2.5963    35.7573    21.5981 </r>
       <r>     2.6476    36.1410    23.4527 </r>
       <r>     2.6989    37.9877    25.4021 </r>
       <r>     2.7502    41.5961    27.5367 </r>
       <r>     2.8015    51.5230    30.1807 </r>
       <r>     2.8528    59.0261    33.2097 </r>
       <r>     2.9042    56.3489    36.1013 </r>
       <r>     2.9555    52.2414    38.7822 </r>
       <r>     3.0068    54.0420    41.5554 </r>
       <r>     3.0581    60.0610    44.6376 </r>
       <r>     3.1094    67.3755    48.0951 </r>
       <r>     3.1607    69.3033    51.6515 </r>
       <r>     3.2121    66.9277    55.0860 </r>
       <r>     3.2634    70.0888    58.6827 </r>
       <r>     3.3147    79.9578    62.7859 </r>
       <r>     3.3660    96.2558    67.7254 </r>
       <r>     3.4173   113.8262    73.5666 </r>
       <r>     3.4686   118.7301    79.6594 </r>
       <r>     3.5200   117.0047    85.6637 </r>
       <r>     3.5713   119.5591    91.7991 </r>
       <r>     3.6226   111.2286    97.5070 </r>
       <r>     3.6739    92.7962   102.2689 </r>
       <r>     3.7252    93.6705   107.0758 </r>
       <r>     3.7765   111.3356   112.7892 </r>
       <r>     3.8279   112.6971   118.5724 </r>
       <r>     3.8792    93.8994   123.3910 </r>
       <r>     3.9305    75.3621   127.2583 </r>
       <r>     3.9818    70.1682   130.8591 </r>
       <r>     4.0331    80.9025   135.0108 </r>
       <r>     4.0844    91.6817   139.7156 </r>
       <r>     4.1358    86.1760   144.1379 </r>
       <r>     4.1871    75.2544   147.9997 </r>
       <r>     4.2384    70.5480   151.6199 </r>
       <r>     4.2897    67.3183   155.0745 </r>
       <r>     4.3410    62.0454   158.2585 </r>
       <r>     4.3923    64.9271   161.5903 </r>
       <r>     4.4437    73.1182   165.3425 </r>
       <r>     4.4950    64.5358   168.6542 </r>
       <r>     4.5463    48.4182   171.1389 </r>
       <r>     4.5976    52.7824   173.8475 </r>
       <r>     4.6489    75.0106   177.6968 </r>
       <r>     4.7002    89.5973   182.2947 </r>
       <r>     4.7516    80.5690   186.4292 </r>
       <r>     4.8029    62.3299   189.6277 </r>
       <r>     4.8542    60.9905   192.7576 </r>
       <r>     4.9055    75.7544   196.6450 </r>
       <r>     4.9568    82.6225   200.8849 </r>
       <r>     5.0081    75.3280   204.7505 </r>
       <r>     5.0594    65.7921   208.1268 </r>
       <r>     5.1108    60.6396   211.2386 </r>
       <r>     5.1621    61.5922   214.3993 </r>
       <r>     5.2134    67.0160   217.8383 </r>
       <r>     5.2647    76.1744   221.7473 </r>
       <r>     5.3160    90.5864   226.3959 </r>
       <r>     5.3673    97.3101   231.3896 </r>
       <r>     5.4187    82.2053   235.6081 </r>
       <r>     5.4700    62.1033   238.7950 </r>
       <r>     5.5213    63.0014   242.0280 </r>
       <r>     5.5726    77.6756   246.0141 </r>
       <r>     5.6239    85.1602   250.3842 </r>
       <r>     5.6752    87.0140   254.8495 </r>
       <r>     5.7266    93.5926   259.6523 </r>
       <r>     5.7779    90.7527   264.3094 </r>
       <r>     5.8292    71.6313   267.9853 </r>
       <r>     5.8805    60.9369   271.1124 </r>
       <r>     5.9318    62.9790   274.3443 </r>
       <r>     5.9831    65.7552   277.7186 </r>
       <r>     6.0345    74.5259   281.5430 </r>
       <r>     6.0858    90.5317   286.1888 </r>
       <r>     6.1371   101.5158   291.3983 </r>
       <r>     6.1884    99.7995   296.5197 </r>
       <r>     6.2397    99.6071   301.6312 </r>
       <r>     6.2910   111.9130   307.3742 </r>
       <r>     6.3424   120.6318   313.5646 </r>
       <r>     6.3937   126.9950   320.0815 </r>
       <r>     6.4450   145.6243   327.5545 </r>
       <r>     6.4963   158.0534   335.6653 </r>
       <r>     6.5476   149.1940   343.3214 </r>
       <r>     6.5989   132.4069   350.1161 </r>
       <r>     6.6503   119.3401   356.2402 </r>
       <r>     6.7016   110.6279   361.9173 </r>
       <r>     6.7529    99.7335   367.0353 </r>
       <r>     6.8042    83.5112   371.3208 </r>
       <r>     6.8555    71.0403   374.9663 </r>
       <r>     6.9068    68.3430   378.4735 </r>
       <r>     6.9582    75.8274   382.3647 </r>
       <r>     7.0095    86.5227   386.8047 </r>
       <r>     7.0608    90.4453   391.4461 </r>
       <r>     7.1121    90.1275   396.0711 </r>
       <r>     7.1634    85.0783   400.4370 </r>
       <r>     7.2147    71.8875   404.1261 </r>
       <r>     7.2661    60.9751   407.2551 </r>
       <r>     7.3174    61.9612   410.4348 </r>
       <r>     7.3687    68.7229   413.9614 </r>
       <r>     7.4200    66.0914   417.3530 </r>
       <r>     7.4713    57.7651   420.3173 </r>
       <r>     7.5226    58.5067   423.3197 </r>
       <r>     7.5740    64.9626   426.6533 </r>
       <r>     7.6253    72.5910   430.3784 </r>
       <r>     7.6766    79.1051   434.4379 </r>
       <r>     7.7279    76.2153   438.3490 </r>
       <r>     7.7792    67.3381   441.8045 </r>
       <r>     7.8305    63.7764   445.0773 </r>
       <r>     7.8819    69.9446   448.6666 </r>
       <r>     7.9332    84.8775   453.0223 </r>
       <r>     7.9845    96.2533   457.9617 </r>
       <r>     8.0358    93.9590   462.7833 </r>
       <r>     8.0871    85.5331   467.1726 </r>
       <r>     8.1384    75.5620   471.0502 </r>
       <r>     8.1898    68.8599   474.5838 </r>
       <r>     8.2411    70.5169   478.2025 </r>
       <r>     8.2924    77.4955   482.1794 </r>
       <r>     8.3437    88.4672   486.7192 </r>
       <r>     8.3950    91.2455   491.4016 </r>
       <r>     8.4463    71.6788   495.0799 </r>
       <r>     8.4977    44.6951   497.3735 </r>
       <r>     8.5490    45.7759   499.7226 </r>
       <r>     8.6003    73.5352   503.4962 </r>
       <r>     8.6516    88.8117   508.0537 </r>
       <r>     8.7029    86.5961   512.4975 </r>
       <r>     8.7542    88.3195   517.0298 </r>
       <r>     8.8056    93.0559   521.8051 </r>
       <r>     8.8569    88.2353   526.3330 </r>
       <r>     8.9082    72.6929   530.0634 </r>
       <r>     8.9595    56.5436   532.9650 </r>
       <r>     9.0108    44.5326   535.2503 </r>
       <r>     9.0621    37.4988   537.1746 </r>
       <r>     9.1135    44.2947   539.4476 </r>
       <r>     9.1648    60.3683   542.5455 </r>
       <r>     9.2161    64.4109   545.8509 </r>
       <r>     9.2674    55.0439   548.6756 </r>
       <r>     9.3187    49.8690   551.2347 </r>
       <r>     9.3700    63.0810   554.4718 </r>
       <r>     9.4214    86.9657   558.9346 </r>
       <r>     9.4727    95.4204   563.8312 </r>
       <r>     9.5240    80.5857   567.9666 </r>
       <r>     9.5753    64.0118   571.2515 </r>
       <r>     9.6266    63.4786   574.5090 </r>
       <r>     9.6779    63.2296   577.7537 </r>
       <r>     9.7293    54.6839   580.5599 </r>
       <r>     9.7806    54.5269   583.3581 </r>
       <r>     9.8319    61.6910   586.5238 </r>
       <r>     9.8832    68.3549   590.0316 </r>
       <r>     9.9345    78.5846   594.0643 </r>
       <r>     9.9858    88.1499   598.5878 </r>
       <r>    10.0372    88.4222   603.1254 </r>
       <r>    10.0885    87.0625   607.5931 </r>
       <r>    10.1398    91.8427   612.3062 </r>
       <r>    10.1911    93.7477   617.1170 </r>
       <r>    10.2424    86.0046   621.5305 </r>
       <r>    10.2937    76.2894   625.4454 </r>
       <r>    10.3451    69.5877   629.0164 </r>
       <r>    10.3964    61.5363   632.1742 </r>
       <r>    10.4477    50.2160   634.7512 </r>
       <r>    10.4990    36.5887   636.6288 </r>
       <r>    10.5503    23.5280   637.8361 </r>
       <r>    10.6016    14.7200   638.5915 </r>
       <r>    10.6530     9.2485   639.0661 </r>
       <r>    10.7043     4.5889   639.3016 </r>
       <r>    10.7556     1.3080   639.3687 </r>
       <r>    10.8069     0.0642   639.3720 </r>
       <r>    10.8582    -0.1214   639.3658 </r>
       <r>    10.9095    -0.0779   639.3618 </r>
       <r>    10.9609    -0.0283   639.3603 </r>
       <r>    11.0122    -0.0060   639.3600 </r>
       <r>    11.0635    -0.0007   639.3600 </r>
       <r>    11.1148    -0.0001   639.3600 </r>
       <r>    11.1661    -0.0000   639.3600 </r>
       <r>    11.2174    -0.0000   639.3600 </r>
       <r>    11.2688    -0.0002   639.3600 </r>
       <r>    11.3201    -0.0028   639.3598 </r>
       <r>    11.3714    -0.0169   639.3590 </r>
       <r>    11.4227    -0.0404   639.3569 </r>
       <r>    11.4740     0.0409   639.3590 </r>
       <r>    11.5253     0.3910   639.3791 </r>
       <r>    11.5767     0.7488   639.4175 </r>
       <r>    11.6280     0.7170   639.4543 </r>
       <r>    11.6793     0.5724   639.4837 </r>
       <r>    11.7306     0.4824   639.5084 </r>
       <r>    11.7819     0.2435   639.5209 </r>
       <r>    11.8332     0.0225   639.5221 </r>
       <r>    11.8846    -0.0304   639.5205 </r>
       <r>    11.9359    -0.0259   639.5192 </r>
       <r>    11.9872    -0.0298   639.5176 </r>
       <r>    12.0385     0.0438   639.5199 </r>
       <r>    12.0898     0.3208   639.5364 </r>
       <r>    12.1411     0.6480   639.5696 </r>
       <r>    12.1925     0.6621   639.6036 </r>
       <r>    12.2438     0.4335   639.6258 </r>
       <r>    12.2951     0.2742   639.6399 </r>
       <r>    12.3464     0.1516   639.6477 </r>
       <r>    12.3977     0.0297   639.6492 </r>
       <r>    12.4490    -0.0185   639.6483 </r>
       <r>    12.5004    -0.0272   639.6469 </r>
       <r>    12.5517    -0.0329   639.6452 </r>
       <r>    12.6030     0.0315   639.6468 </r>
       <r>    12.6543     0.3338   639.6639 </r>
       <r>    12.7056     1.0035   639.7154 </r>
       <r>    12.7569     1.6160   639.7983 </r>
       <r>    12.8083     1.4545   639.8730 </r>
       <r>    12.8596     0.8512   639.9167 </r>
       <r>    12.9109     0.5817   639.9465 </r>
       <r>    12.9622     0.5002   639.9722 </r>
       <r>    13.0135     0.2506   639.9850 </r>
       <r>    13.0648     0.0227   639.9862 </r>
       <r>    13.1162    -0.0289   639.9847 </r>
       <r>    13.1675    -0.0120   639.9841 </r>
       <r>    13.2188    -0.0020   639.9840 </r>
       <r>    13.2701    -0.0002   639.9840 </r>
       <r>    13.3214    -0.0000   639.9840 </r>
       <r>    13.3727    -0.0001   639.9840 </r>
       <r>    13.4241    -0.0007   639.9840 </r>
       <r>    13.4754    -0.0037   639.9838 </r>
       <r>    13.5267    -0.0064   639.9834 </r>
       <r>    13.5780     0.0159   639.9843 </r>
       <r>    13.6293     0.0840   639.9886 </r>
       <r>    13.6806     0.1306   639.9953 </r>
       <r>    13.7320     0.0860   639.9997 </r>
       <r>    13.7833     0.0172   640.0006 </r>
       <r>    13.8346    -0.0063   640.0002 </r>
       <r>    13.8859    -0.0038   640.0000 </r>
       <r>    13.9372    -0.0008   640.0000 </r>
       <r>    13.9885    -0.0001   640.0000 </r>
       <r>    14.0399    -0.0000   640.0000 </r>
       <r>    14.0912    -0.0000   640.0000 </r>
       <r>    14.1425    -0.0000   640.0000 </r>
       <r>    14.1938    -0.0000   640.0000 </r>
       <r>    14.2451    -0.0000   640.0000 </r>
       <r>    14.2964    -0.0000   640.0000 </r>
       <r>    14.3478     0.0000   640.0000 </r>
       <r>    14.3991     0.0000   640.0000 </r>
       <r>    14.4504     0.0000   640.0000 </r>
       <r>    14.5017     0.0000   640.0000 </r>
       <r>    14.5530     0.0000   640.0000 </r>
       <r>    14.6043     0.0000   640.0000 </r>
       <r>    14.6557     0.0000   640.0000 </r>
      </set>
     </set>
    </array>
   </total>
  </dos>
 </calculation>
 <structure name="finalpos" >
  <crystal>
   <varray name="basis" >
    <v>       7.65376000       0.00000000       7.65376000 </v>
    <v>       7.65376000       7.65376000       0.00000000 </v>
    <v>       0.00000000       7.65376000       7.65376000 </v>
   </varray>
   <i name="volume">    896.71516662 </i>
   <varray name="rec_basis" >
    <v>       0.06532737      -0.06532737       0.06532737 </v>
    <v>       0.06532737       0.06532737      -0.06532737 </v>
    <v>      -0.06532737       0.06532737       0.06532737 </v>
   </varray>
  </crystal>
  <varray name="positions" >
   <v>       0.25000000       0.25000000       0.25000000 </v>
   <v>       0.25000000       0.75000000       0.25000000 </v>
   <v>       0.75000000       0.25000000       0.25000000 </v>
   <v>       0.25000000       0.25000000       0.75000000 </v>
   <v>       0.50000000       0.50000000       0.50000000 </v>
   <v>       0.75000000       0.75000000       0.25000000 </v>
   <v>       0.25000000       0.75000000       0.75000000 </v>
   <v>       0.50000000       0.00000000       0.50000000 </v>
   <v>       0.75000000       0.25000000       0.75000000 </v>
   <v>       0.00000000       0.50000000       0.50000000 </v>
   <v>       0.50000000       0.50000000       0.00000000 </v>
   <v>       0.75000000       0.75000000       0.75000000 </v>
   <v>       0.00000000       0.00000000       0.50000000 </v>
   <v>       0.50000000       0.00000000       0.00000000 </v>
   <v>       0.00000000       0.50000000       0.00000000 </v>
   <v>       0.00000000       0.00000000       0.00000000 </v>
   <v>       0.25184750       0.25184750       0.00076750 </v>
   <v>       0.00000000       0.25000000       0.25000000 </v>
   <v>       0.25000000       0.00000000       0.25000000 </v>
   <v>       0.25000000       0.75000000       0.00000000 </v>
   <v>       0.00000000       0.75000000       0.25000000 </v>
   <v>       0.25000000       0.50000000       0.25000000 </v>
   <v>       0.75000000       0.25000000       0.00000000 </v>
   <v>       0.50000000       0.25000000       0.25000000 </v>
   <v>       0.75000000       0.00000000       0.25000000 </v>
   <v>       0.25000000       0.25000000       0.50000000 </v>
   <v>       0.00000000       0.25000000       0.75000000 </v>
   <v>       0.25000000       0.00000000       0.75000000 </v>
   <v>       0.50000000       0.50000000       0.25000000 </v>
   <v>       0.25000000       0.50000000       0.50000000 </v>
   <v>       0.50000000       0.25000000       0.50000000 </v>
   <v>       0.75000000       0.75000000       0.00000000 </v>
   <v>       0.50000000       0.75000000       0.25000000 </v>
   <v>       0.75000000       0.50000000       0.25000000 </v>
   <v>       0.25000000       0.75000000       0.50000000 </v>
   <v>       0.00000000       0.75000000       0.75000000 </v>
   <v>       0.25000000       0.50000000       0.75000000 </v>
   <v>       0.50000000       0.00000000       0.25000000 </v>
   <v>       0.25000000       0.00000000       0.50000000 </v>
   <v>       0.50000000       0.75000000       0.50000000 </v>
   <v>       0.75000000       0.25000000       0.50000000 </v>
   <v>       0.50000000       0.25000000       0.75000000 </v>
   <v>       0.75000000       0.00000000       0.75000000 </v>
   <v>       0.00000000       0.50000000       0.25000000 </v>
   <v>       0.75000000       0.50000000       0.50000000 </v>
   <v>       0.00000000       0.25000000       0.50000000 </v>
   <v>       0.50000000       0.50000000       0.75000000 </v>
   <v>       0.25000000       0.50000000       0.00000000 </v>
   <v>       0.50000000       0.25000000       0.00000000 </v>
   <v>       0.75000000       0.75000000       0.50000000 </v>
   <v>       0.50000000       0.75000000       0.75000000 </v>
   <v>       0.75000000       0.50000000       0.75000000 </v>
   <v>       0.00000000       0.00000000       0.25000000 </v>
   <v>       0.75000000       0.00000000       0.50000000 </v>
   <v>       0.00000000       0.75000000       0.50000000 </v>
   <v>       0.50000000       0.00000000       0.75000000 </v>
   <v>       0.25000000       0.00000000       0.00000000 </v>
   <v>       0.50000000       0.75000000       0.00000000 </v>
   <v>       0.00000000       0.50000000       0.75000000 </v>
   <v>       0.75000000       0.50000000       0.00000000 </v>
   <v>       0.00000000       0.25000000       0.00000000 </v>
   <v>       0.00000000       0.00000000       0.75000000 </v>
   <v>       0.75000000       0.00000000       0.00000000 </v>
   <v>       0.00000000       0.75000000       0.00000000 </v>
  </varray>
 </structure>
</modeling>
