 256 256   0   0
  0.1418917E+02  0.1588033E-08  0.1692661E-08  0.1693229E-08  0.5000000E-15
  1.000000000000000E-004
  CAR 
 Ir_Ru                                   
     14.29438490     -1.29205975  301      9.45704903      1.00000000
     -1.292  0.0000E+00  0.0000E+00
     -1.240  0.0000E+00  0.0000E+00
     -1.188  0.0000E+00  0.0000E+00
     -1.136 -0.2881E-30 -0.1497E-31
     -1.084 -0.1331E-26 -0.6915E-28
     -1.032 -0.3567E-23 -0.1854E-24
     -0.980 -0.5545E-20 -0.2883E-21
     -0.928 -0.4994E-17 -0.2598E-18
     -0.876 -0.2545E-14 -0.1325E-15
     -0.824 -0.7582E-12 -0.3952E-13
     -0.773 -0.1309E-09 -0.6841E-11
     -0.721 -0.1299E-07 -0.6816E-09
     -0.669 -0.7371E-06 -0.3898E-07
     -0.617 -0.2380E-04 -0.1276E-05
     -0.565 -0.4340E-03 -0.2382E-04
     -0.513 -0.4426E-02 -0.2538E-03
     -0.461 -0.2498E-01 -0.1551E-02
     -0.409 -0.7640E-01 -0.5521E-02
     -0.357 -0.1008E+00 -0.1076E-01
     -0.305  0.2224E+00  0.7997E-03
     -0.253  0.1694E+01  0.8883E-01
     -0.201  0.4470E+01  0.3211E+00
     -0.149  0.6375E+01  0.6523E+00
     -0.097  0.6419E+01  0.9858E+00
     -0.045  0.7003E+01  0.1350E+01
      0.007  0.8927E+01  0.1813E+01
      0.059  0.1126E+02  0.2398E+01
      0.111  0.1368E+02  0.3109E+01
      0.163  0.1430E+02  0.3852E+01
      0.215  0.1158E+02  0.4454E+01
      0.267  0.1011E+02  0.4980E+01
      0.319  0.1451E+02  0.5733E+01
      0.370  0.2051E+02  0.6799E+01
      0.422  0.2254E+02  0.7970E+01
      0.474  0.2275E+02  0.9152E+01
      0.526  0.2352E+02  0.1037E+02
      0.578  0.2241E+02  0.1154E+02
      0.630  0.2040E+02  0.1260E+02
      0.682  0.2106E+02  0.1369E+02
      0.734  0.2020E+02  0.1474E+02
      0.786  0.1424E+02  0.1548E+02
      0.838  0.8710E+01  0.1593E+02
      0.890  0.8136E+01  0.1636E+02
      0.942  0.1204E+02  0.1698E+02
      0.994  0.1945E+02  0.1799E+02
      1.046  0.2831E+02  0.1946E+02
      1.098  0.3342E+02  0.2120E+02
      1.150  0.3287E+02  0.2291E+02
      1.202  0.2847E+02  0.2439E+02
      1.254  0.2250E+02  0.2556E+02
      1.306  0.1943E+02  0.2657E+02
      1.358  0.2198E+02  0.2771E+02
      1.410  0.2750E+02  0.2914E+02
      1.462  0.3040E+02  0.3072E+02
      1.514  0.2975E+02  0.3226E+02
      1.565  0.2937E+02  0.3379E+02
      1.617  0.3049E+02  0.3537E+02
      1.669  0.3113E+02  0.3699E+02
      1.721  0.3215E+02  0.3866E+02
      1.773  0.3526E+02  0.4049E+02
      1.825  0.3941E+02  0.4254E+02
      1.877  0.4606E+02  0.4493E+02
      1.929  0.5526E+02  0.4780E+02
      1.981  0.5932E+02  0.5088E+02
      2.033  0.5425E+02  0.5370E+02
      2.085  0.5066E+02  0.5633E+02
      2.137  0.6314E+02  0.5962E+02
      2.189  0.8890E+02  0.6423E+02
      2.241  0.1100E+03  0.6995E+02
      2.293  0.1203E+03  0.7620E+02
      2.345  0.1262E+03  0.8275E+02
      2.397  0.1320E+03  0.8961E+02
      2.449  0.1382E+03  0.9680E+02
      2.501  0.1484E+03  0.1045E+03
      2.553  0.1661E+03  0.1131E+03
      2.605  0.1842E+03  0.1227E+03
      2.657  0.1955E+03  0.1329E+03
      2.708  0.2079E+03  0.1437E+03
      2.760  0.2249E+03  0.1554E+03
      2.812  0.2306E+03  0.1673E+03
      2.864  0.2242E+03  0.1790E+03
      2.916  0.2289E+03  0.1909E+03
      2.968  0.2468E+03  0.2037E+03
      3.020  0.2585E+03  0.2171E+03
      3.072  0.2600E+03  0.2306E+03
      3.124  0.2607E+03  0.2442E+03
      3.176  0.2646E+03  0.2579E+03
      3.228  0.2742E+03  0.2722E+03
      3.280  0.2898E+03  0.2872E+03
      3.332  0.3093E+03  0.3033E+03
      3.384  0.3255E+03  0.3202E+03
      3.436  0.3308E+03  0.3374E+03
      3.488  0.3272E+03  0.3544E+03
      3.540  0.3208E+03  0.3711E+03
      3.592  0.3179E+03  0.3876E+03
      3.644  0.3160E+03  0.4040E+03
      3.696  0.3102E+03  0.4201E+03
      3.748  0.3046E+03  0.4359E+03
      3.800  0.3007E+03  0.4516E+03
      3.851  0.2963E+03  0.4669E+03
      3.903  0.2929E+03  0.4822E+03
      3.955  0.2875E+03  0.4971E+03
      4.007  0.2744E+03  0.5114E+03
      4.059  0.2664E+03  0.5252E+03
      4.111  0.2778E+03  0.5396E+03
      4.163  0.2959E+03  0.5550E+03
      4.215  0.3030E+03  0.5707E+03
      4.267  0.3055E+03  0.5866E+03
      4.319  0.3129E+03  0.6029E+03
      4.371  0.3190E+03  0.6195E+03
      4.423  0.3215E+03  0.6362E+03
      4.475  0.3237E+03  0.6530E+03
      4.527  0.3201E+03  0.6696E+03
      4.579  0.3078E+03  0.6856E+03
      4.631  0.2961E+03  0.7010E+03
      4.683  0.2938E+03  0.7162E+03
      4.735  0.2991E+03  0.7318E+03
      4.787  0.3070E+03  0.7477E+03
      4.839  0.3198E+03  0.7643E+03
      4.891  0.3328E+03  0.7816E+03
      4.943  0.3385E+03  0.7992E+03
      4.994  0.3468E+03  0.8172E+03
      5.046  0.3599E+03  0.8359E+03
      5.098  0.3659E+03  0.8549E+03
      5.150  0.3634E+03  0.8738E+03
      5.202  0.3528E+03  0.8922E+03
      5.254  0.3305E+03  0.9093E+03
      5.306  0.2967E+03  0.9248E+03
      5.358  0.2548E+03  0.9380E+03
      5.410  0.2123E+03  0.9490E+03
      5.462  0.1810E+03  0.9584E+03
      5.514  0.1733E+03  0.9674E+03
      5.566  0.1941E+03  0.9775E+03
      5.618  0.2347E+03  0.9897E+03
      5.670  0.2839E+03  0.1004E+04
      5.722  0.3333E+03  0.1022E+04
      5.774  0.3733E+03  0.1041E+04
      5.826  0.3984E+03  0.1062E+04
      5.878  0.4121E+03  0.1083E+04
      5.930  0.4204E+03  0.1105E+04
      5.982  0.4268E+03  0.1127E+04
      6.034  0.4275E+03  0.1149E+04
      6.086  0.4127E+03  0.1171E+04
      6.137  0.3879E+03  0.1191E+04
      6.189  0.3696E+03  0.1210E+04
      6.241  0.3600E+03  0.1229E+04
      6.293  0.3548E+03  0.1247E+04
      6.345  0.3577E+03  0.1266E+04
      6.397  0.3719E+03  0.1285E+04
      6.449  0.3829E+03  0.1305E+04
      6.501  0.3847E+03  0.1325E+04
      6.553  0.3944E+03  0.1346E+04
      6.605  0.4131E+03  0.1367E+04
      6.657  0.4253E+03  0.1389E+04
      6.709  0.4282E+03  0.1412E+04
      6.761  0.4237E+03  0.1434E+04
      6.813  0.4095E+03  0.1455E+04
      6.865  0.3876E+03  0.1475E+04
      6.917  0.3712E+03  0.1494E+04
      6.969  0.3661E+03  0.1513E+04
      7.021  0.3637E+03  0.1532E+04
      7.073  0.3713E+03  0.1551E+04
      7.125  0.3965E+03  0.1572E+04
      7.177  0.4173E+03  0.1594E+04
      7.229  0.4225E+03  0.1616E+04
      7.280  0.4217E+03  0.1638E+04
      7.332  0.4096E+03  0.1659E+04
      7.384  0.3819E+03  0.1679E+04
      7.436  0.3541E+03  0.1697E+04
      7.488  0.3380E+03  0.1715E+04
      7.540  0.3320E+03  0.1732E+04
      7.592  0.3273E+03  0.1749E+04
      7.644  0.3132E+03  0.1765E+04
      7.696  0.2914E+03  0.1780E+04
      7.748  0.2751E+03  0.1795E+04
      7.800  0.2675E+03  0.1809E+04
      7.852  0.2625E+03  0.1822E+04
      7.904  0.2558E+03  0.1835E+04
      7.956  0.2466E+03  0.1848E+04
      8.008  0.2427E+03  0.1861E+04
      8.060  0.2429E+03  0.1873E+04
      8.112  0.2375E+03  0.1886E+04
      8.164  0.2301E+03  0.1898E+04
      8.216  0.2295E+03  0.1910E+04
      8.268  0.2346E+03  0.1922E+04
      8.320  0.2383E+03  0.1934E+04
      8.372  0.2390E+03  0.1947E+04
      8.423  0.2356E+03  0.1959E+04
      8.475  0.2264E+03  0.1971E+04
      8.527  0.2166E+03  0.1982E+04
      8.579  0.2111E+03  0.1993E+04
      8.631  0.2058E+03  0.2004E+04
      8.683  0.1980E+03  0.2014E+04
      8.735  0.1894E+03  0.2024E+04
      8.787  0.1816E+03  0.2033E+04
      8.839  0.1800E+03  0.2043E+04
      8.891  0.1927E+03  0.2053E+04
      8.943  0.2195E+03  0.2064E+04
      8.995  0.2377E+03  0.2076E+04
      9.047  0.2341E+03  0.2088E+04
      9.099  0.2199E+03  0.2100E+04
      9.151  0.2018E+03  0.2110E+04
      9.203  0.1832E+03  0.2120E+04
      9.255  0.1808E+03  0.2129E+04
      9.307  0.2050E+03  0.2140E+04
      9.359  0.2341E+03  0.2152E+04
      9.411  0.2435E+03  0.2165E+04
      9.463  0.2430E+03  0.2177E+04
      9.515  0.2454E+03  0.2190E+04
      9.566  0.2437E+03  0.2203E+04
      9.618  0.2503E+03  0.2216E+04
      9.670  0.2854E+03  0.2231E+04
      9.722  0.3255E+03  0.2248E+04
      9.774  0.3348E+03  0.2265E+04
      9.826  0.3231E+03  0.2282E+04
      9.878  0.3154E+03  0.2298E+04
      9.930  0.3160E+03  0.2314E+04
      9.982  0.3255E+03  0.2331E+04
     10.034  0.3517E+03  0.2350E+04
     10.086  0.3899E+03  0.2370E+04
     10.138  0.4188E+03  0.2392E+04
     10.190  0.4307E+03  0.2414E+04
     10.242  0.4389E+03  0.2437E+04
     10.294  0.4533E+03  0.2460E+04
     10.346  0.4726E+03  0.2485E+04
     10.398  0.4902E+03  0.2510E+04
     10.450  0.4979E+03  0.2536E+04
     10.502  0.4830E+03  0.2561E+04
     10.554  0.4373E+03  0.2584E+04
     10.606  0.3736E+03  0.2604E+04
     10.658  0.3019E+03  0.2619E+04
     10.710  0.2122E+03  0.2630E+04
     10.761  0.1102E+03  0.2636E+04
     10.813  0.3125E+02  0.2638E+04
     10.865 -0.2090E+01  0.2637E+04
     10.917 -0.5147E+01  0.2637E+04
     10.969 -0.1847E+01  0.2637E+04
     11.021 -0.3438E+00  0.2637E+04
     11.073 -0.4020E-01  0.2637E+04
     11.125 -0.3261E-02  0.2637E+04
     11.177 -0.1852E-03  0.2637E+04
     11.229 -0.6915E-05  0.2637E+04
     11.281 -0.1588E-06  0.2637E+04
     11.333 -0.2161E-08  0.2637E+04
     11.385 -0.1713E-10  0.2637E+04
     11.437 -0.1099E-11  0.2637E+04
     11.489 -0.1969E-09  0.2637E+04
     11.541 -0.2186E-07  0.2637E+04
     11.593 -0.1390E-05  0.2637E+04
     11.645 -0.5020E-04  0.2637E+04
     11.697 -0.1015E-02  0.2637E+04
     11.749 -0.1116E-01  0.2637E+04
     11.801 -0.6183E-01  0.2637E+04
     11.853 -0.1270E+00  0.2637E+04
     11.904  0.2112E+00  0.2637E+04
     11.956  0.1443E+01  0.2637E+04
     12.008  0.2606E+01  0.2637E+04
     12.060  0.2328E+01  0.2637E+04
     12.112  0.1287E+01  0.2638E+04
     12.164  0.6204E+00  0.2638E+04
     12.216  0.1039E+01  0.2638E+04
     12.268  0.2610E+01  0.2638E+04
     12.320  0.3654E+01  0.2638E+04
     12.372  0.3140E+01  0.2638E+04
     12.424  0.2293E+01  0.2638E+04
     12.476  0.1983E+01  0.2638E+04
     12.528  0.2043E+01  0.2638E+04
     12.580  0.2453E+01  0.2639E+04
     12.632  0.2930E+01  0.2639E+04
     12.684  0.3682E+01  0.2639E+04
     12.736  0.4223E+01  0.2639E+04
     12.788  0.3392E+01  0.2639E+04
     12.840  0.2368E+01  0.2639E+04
     12.892  0.2083E+01  0.2640E+04
     12.944  0.1729E+01  0.2640E+04
     12.996  0.1320E+01  0.2640E+04
     13.047  0.1132E+01  0.2640E+04
     13.099  0.8101E+00  0.2640E+04
     13.151  0.6380E+00  0.2640E+04
     13.203  0.8845E+00  0.2640E+04
     13.255  0.1090E+01  0.2640E+04
     13.307  0.1050E+01  0.2640E+04
     13.359  0.6727E+00  0.2640E+04
     13.411  0.1713E+00  0.2640E+04
     13.463 -0.4046E-01  0.2640E+04
     13.515 -0.3326E-01  0.2640E+04
     13.567 -0.7477E-02  0.2640E+04
     13.619 -0.8033E-03  0.2640E+04
     13.671 -0.4585E-04  0.2640E+04
     13.723 -0.1447E-05  0.2640E+04
     13.775 -0.2572E-07  0.2640E+04
     13.827 -0.2605E-09  0.2640E+04
     13.879 -0.1512E-11  0.2640E+04
     13.931 -0.5224E-14  0.2640E+04
     13.983  0.0000E+00  0.2640E+04
     14.035  0.0000E+00  0.2640E+04
     14.087  0.0000E+00  0.2640E+04
     14.139  0.0000E+00  0.2640E+04
     14.190  0.0000E+00  0.2640E+04
     14.242  0.0000E+00  0.2640E+04
     14.294  0.0000E+00  0.2640E+04
