       N       E                     dE             d eps       ncg     rms          rms(c)
RMM:   1     0.136790960303E+05    0.13679E+05   -0.47218E+05 25080   0.725E+02
RMM:   2     0.131340432808E+04   -0.12366E+05   -0.13120E+05 25080   0.260E+02
RMM:   3    -0.104564203822E+04   -0.23590E+04   -0.22856E+04 25080   0.111E+02
RMM:   4    -0.184598803676E+04   -0.80035E+03   -0.57408E+03 25080   0.768E+01
RMM:   5    -0.212910363961E+04   -0.28312E+03   -0.24896E+03 25080   0.451E+01
RMM:   6    -0.227482662386E+04   -0.14572E+03   -0.12952E+03 25080   0.349E+01
RMM:   7    -0.235269380603E+04   -0.77867E+02   -0.73856E+02 25080   0.236E+01
RMM:   8    -0.240019395625E+04   -0.47500E+02   -0.44558E+02 25080   0.195E+01
RMM:   9    -0.247908295904E+04   -0.78889E+02   -0.77969E+02 71870   0.137E+01
RMM:  10    -0.248863746940E+04   -0.95545E+01   -0.11977E+02 79663   0.283E+00
RMM:  11    -0.249087782946E+04   -0.22404E+01   -0.17843E+01 77271   0.686E-01
RMM:  12    -0.249118398918E+04   -0.30616E+00   -0.19823E+00 79554   0.198E-01    0.782E+01
RMM:  13    -0.241362989562E+04    0.77554E+02   -0.68472E+02 57175   0.246E+01    0.583E+01
RMM:  14    -0.236780290894E+04    0.45827E+02   -0.34136E+02 51451   0.174E+01    0.416E+01
RMM:  15    -0.233561779599E+04    0.32185E+02   -0.11848E+02 53306   0.101E+01    0.255E+01
RMM:  16    -0.232131587526E+04    0.14302E+02   -0.25841E+01 56018   0.435E+00    0.436E+00
RMM:  17    -0.232147288819E+04   -0.15701E+00   -0.64437E+00 73593   0.131E+00    0.429E+00
RMM:  18    -0.232112728577E+04    0.34560E+00   -0.11789E+00 64573   0.697E-01    0.345E+00
RMM:  19    -0.232074980971E+04    0.37748E+00   -0.63764E-01 60015   0.726E-01    0.166E+00
RMM:  20    -0.232069325846E+04    0.56551E-01   -0.23877E-01 62846   0.362E-01    0.149E+00
RMM:  21    -0.232066123340E+04    0.32025E-01   -0.11003E-01 63239   0.229E-01    0.125E+00
RMM:  22    -0.232063475791E+04    0.26475E-01   -0.47479E-02 61473   0.157E-01    0.719E-01
RMM:  23    -0.232062924434E+04    0.55136E-02   -0.13572E-02 66840   0.691E-02    0.490E-01
RMM:  24    -0.232062568632E+04    0.35580E-02   -0.10781E-02 62661   0.769E-02    0.248E-01
RMM:  25    -0.232062661701E+04   -0.93069E-03   -0.12916E-02 66520   0.777E-02    0.259E-01
RMM:  26    -0.232062679746E+04   -0.18045E-03   -0.34169E-03 74394   0.301E-02    0.269E-01
RMM:  27    -0.232062586510E+04    0.93235E-03   -0.72692E-04 59979   0.208E-02    0.178E-01
RMM:  28    -0.232062530270E+04    0.56241E-03   -0.10488E-03 63957   0.235E-02    0.769E-02
RMM:  29    -0.232062519799E+04    0.10471E-03   -0.58238E-04 70529   0.153E-02    0.283E-02
RMM:  30    -0.232062517712E+04    0.20865E-04   -0.10800E-04 69581   0.620E-03
   1 F= -.23206252E+04 E0= -.23206252E+04  d E =-.505462E-04
