 256 256   0   0
  0.1418917E+02  0.1588033E-08  0.1692661E-08  0.1693229E-08  0.5000000E-15
  1.000000000000000E-004
  CAR 
 Ir_Ru                                   
     14.28392055     -1.29198667  301      9.45700675      1.00000000
     -1.292  0.0000E+00  0.0000E+00
     -1.240  0.0000E+00  0.0000E+00
     -1.188  0.0000E+00  0.0000E+00
     -1.136 -0.2833E-30 -0.1471E-31
     -1.084 -0.1302E-26 -0.6764E-28
     -1.032 -0.3479E-23 -0.1807E-24
     -0.980 -0.5391E-20 -0.2801E-21
     -0.929 -0.4846E-17 -0.2519E-18
     -0.877 -0.2464E-14 -0.1282E-15
     -0.825 -0.7340E-12 -0.3824E-13
     -0.773 -0.1268E-09 -0.6619E-11
     -0.721 -0.1258E-07 -0.6600E-09
     -0.669 -0.7154E-06 -0.3780E-07
     -0.617 -0.2316E-04 -0.1240E-05
     -0.565 -0.4236E-03 -0.2323E-04
     -0.513 -0.4338E-02 -0.2484E-03
     -0.461 -0.2460E-01 -0.1526E-02
     -0.409 -0.7573E-01 -0.5458E-02
     -0.357 -0.1015E+00 -0.1073E-01
     -0.306  0.2132E+00  0.3458E-03
     -0.254  0.1664E+01  0.8676E-01
     -0.202  0.4431E+01  0.3168E+00
     -0.150  0.6364E+01  0.6473E+00
     -0.098  0.6421E+01  0.9806E+00
     -0.046  0.6981E+01  0.1343E+01
      0.006  0.8891E+01  0.1805E+01
      0.058  0.1122E+02  0.2387E+01
      0.110  0.1364E+02  0.3095E+01
      0.162  0.1433E+02  0.3839E+01
      0.214  0.1164E+02  0.4444E+01
      0.266  0.1009E+02  0.4968E+01
      0.318  0.1439E+02  0.5715E+01
      0.369  0.2043E+02  0.6776E+01
      0.421  0.2253E+02  0.7945E+01
      0.473  0.2273E+02  0.9125E+01
      0.525  0.2352E+02  0.1035E+02
      0.577  0.2248E+02  0.1151E+02
      0.629  0.2044E+02  0.1257E+02
      0.681  0.2105E+02  0.1367E+02
      0.733  0.2030E+02  0.1472E+02
      0.785  0.1441E+02  0.1547E+02
      0.837  0.8766E+01  0.1592E+02
      0.889  0.8040E+01  0.1634E+02
      0.941  0.1181E+02  0.1696E+02
      0.992  0.1911E+02  0.1795E+02
      1.044  0.2804E+02  0.1940E+02
      1.096  0.3340E+02  0.2114E+02
      1.148  0.3300E+02  0.2285E+02
      1.200  0.2868E+02  0.2434E+02
      1.252  0.2269E+02  0.2552E+02
      1.304  0.1945E+02  0.2653E+02
      1.356  0.2179E+02  0.2766E+02
      1.408  0.2729E+02  0.2908E+02
      1.460  0.3034E+02  0.3065E+02
      1.512  0.2978E+02  0.3220E+02
      1.564  0.2936E+02  0.3372E+02
      1.616  0.3047E+02  0.3530E+02
      1.667  0.3115E+02  0.3692E+02
      1.719  0.3209E+02  0.3859E+02
      1.771  0.3512E+02  0.4041E+02
      1.823  0.3923E+02  0.4245E+02
      1.875  0.4573E+02  0.4482E+02
      1.927  0.5489E+02  0.4767E+02
      1.979  0.5932E+02  0.5075E+02
      2.031  0.5456E+02  0.5358E+02
      2.083  0.5060E+02  0.5621E+02
      2.135  0.6225E+02  0.5944E+02
      2.187  0.8770E+02  0.6400E+02
      2.239  0.1092E+03  0.6967E+02
      2.290  0.1199E+03  0.7589E+02
      2.342  0.1260E+03  0.8243E+02
      2.394  0.1317E+03  0.8927E+02
      2.446  0.1378E+03  0.9643E+02
      2.498  0.1477E+03  0.1041E+03
      2.550  0.1651E+03  0.1127E+03
      2.602  0.1834E+03  0.1222E+03
      2.654  0.1952E+03  0.1323E+03
      2.706  0.2073E+03  0.1431E+03
      2.758  0.2242E+03  0.1547E+03
      2.810  0.2307E+03  0.1667E+03
      2.862  0.2243E+03  0.1783E+03
      2.914  0.2280E+03  0.1902E+03
      2.965  0.2458E+03  0.2029E+03
      3.017  0.2582E+03  0.2164E+03
      3.069  0.2600E+03  0.2299E+03
      3.121  0.2606E+03  0.2434E+03
      3.173  0.2643E+03  0.2571E+03
      3.225  0.2735E+03  0.2713E+03
      3.277  0.2888E+03  0.2863E+03
      3.329  0.3080E+03  0.3023E+03
      3.381  0.3246E+03  0.3191E+03
      3.433  0.3307E+03  0.3363E+03
      3.485  0.3276E+03  0.3533E+03
      3.537  0.3211E+03  0.3700E+03
      3.588  0.3181E+03  0.3865E+03
      3.640  0.3164E+03  0.4029E+03
      3.692  0.3107E+03  0.4191E+03
      3.744  0.3049E+03  0.4349E+03
      3.796  0.3010E+03  0.4505E+03
      3.848  0.2967E+03  0.4659E+03
      3.900  0.2932E+03  0.4812E+03
      3.952  0.2882E+03  0.4961E+03
      4.004  0.2754E+03  0.5104E+03
      4.056  0.2663E+03  0.5242E+03
      4.108  0.2764E+03  0.5386E+03
      4.160  0.2949E+03  0.5539E+03
      4.212  0.3029E+03  0.5696E+03
      4.263  0.3053E+03  0.5855E+03
      4.315  0.3125E+03  0.6017E+03
      4.367  0.3190E+03  0.6183E+03
      4.419  0.3215E+03  0.6350E+03
      4.471  0.3237E+03  0.6518E+03
      4.523  0.3206E+03  0.6684E+03
      4.575  0.3089E+03  0.6844E+03
      4.627  0.2968E+03  0.6999E+03
      4.679  0.2935E+03  0.7151E+03
      4.731  0.2985E+03  0.7306E+03
      4.783  0.3064E+03  0.7465E+03
      4.835  0.3187E+03  0.7630E+03
      4.886  0.3320E+03  0.7803E+03
      4.938  0.3380E+03  0.7978E+03
      4.990  0.3458E+03  0.8158E+03
      5.042  0.3590E+03  0.8344E+03
      5.094  0.3659E+03  0.8534E+03
      5.146  0.3639E+03  0.8723E+03
      5.198  0.3540E+03  0.8907E+03
      5.250  0.3327E+03  0.9080E+03
      5.302  0.2999E+03  0.9235E+03
      5.354  0.2586E+03  0.9370E+03
      5.406  0.2156E+03  0.9482E+03
      5.458  0.1828E+03  0.9576E+03
      5.509  0.1729E+03  0.9666E+03
      5.561  0.1914E+03  0.9766E+03
      5.613  0.2306E+03  0.9885E+03
      5.665  0.2793E+03  0.1003E+04
      5.717  0.3290E+03  0.1020E+04
      5.769  0.3701E+03  0.1039E+04
      5.821  0.3967E+03  0.1060E+04
      5.873  0.4113E+03  0.1081E+04
      5.925  0.4198E+03  0.1103E+04
      5.977  0.4262E+03  0.1125E+04
      6.029  0.4279E+03  0.1147E+04
      6.081  0.4147E+03  0.1169E+04
      6.133  0.3901E+03  0.1189E+04
      6.184  0.3707E+03  0.1208E+04
      6.236  0.3605E+03  0.1227E+04
      6.288  0.3551E+03  0.1246E+04
      6.340  0.3571E+03  0.1264E+04
      6.392  0.3705E+03  0.1283E+04
      6.444  0.3824E+03  0.1303E+04
      6.496  0.3845E+03  0.1323E+04
      6.548  0.3929E+03  0.1344E+04
      6.600  0.4112E+03  0.1365E+04
      6.652  0.4244E+03  0.1387E+04
      6.704  0.4280E+03  0.1409E+04
      6.756  0.4246E+03  0.1431E+04
      6.807  0.4117E+03  0.1453E+04
      6.859  0.3902E+03  0.1473E+04
      6.911  0.3724E+03  0.1492E+04
      6.963  0.3664E+03  0.1511E+04
      7.015  0.3637E+03  0.1530E+04
      7.067  0.3694E+03  0.1549E+04
      7.119  0.3936E+03  0.1570E+04
      7.171  0.4158E+03  0.1591E+04
      7.223  0.4222E+03  0.1613E+04
      7.275  0.4220E+03  0.1635E+04
      7.327  0.4117E+03  0.1657E+04
      7.379  0.3853E+03  0.1677E+04
      7.431  0.3568E+03  0.1695E+04
      7.482  0.3394E+03  0.1713E+04
      7.534  0.3325E+03  0.1730E+04
      7.586  0.3283E+03  0.1747E+04
      7.638  0.3154E+03  0.1763E+04
      7.690  0.2937E+03  0.1779E+04
      7.742  0.2763E+03  0.1793E+04
      7.794  0.2681E+03  0.1807E+04
      7.846  0.2631E+03  0.1821E+04
      7.898  0.2567E+03  0.1834E+04
      7.950  0.2476E+03  0.1847E+04
      8.002  0.2427E+03  0.1859E+04
      8.054  0.2431E+03  0.1872E+04
      8.105  0.2385E+03  0.1884E+04
      8.157  0.2307E+03  0.1896E+04
      8.209  0.2292E+03  0.1908E+04
      8.261  0.2339E+03  0.1920E+04
      8.313  0.2380E+03  0.1933E+04
      8.365  0.2391E+03  0.1945E+04
      8.417  0.2364E+03  0.1957E+04
      8.469  0.2278E+03  0.1969E+04
      8.521  0.2177E+03  0.1981E+04
      8.573  0.2116E+03  0.1992E+04
      8.625  0.2065E+03  0.2002E+04
      8.677  0.1990E+03  0.2013E+04
      8.729  0.1905E+03  0.2022E+04
      8.780  0.1824E+03  0.2032E+04
      8.832  0.1796E+03  0.2041E+04
      8.884  0.1901E+03  0.2051E+04
      8.936  0.2159E+03  0.2062E+04
      8.988  0.2365E+03  0.2075E+04
      9.040  0.2355E+03  0.2087E+04
      9.092  0.2220E+03  0.2098E+04
      9.144  0.2045E+03  0.2109E+04
      9.196  0.1853E+03  0.2119E+04
      9.248  0.1795E+03  0.2128E+04
      9.300  0.2006E+03  0.2138E+04
      9.352  0.2310E+03  0.2150E+04
      9.403  0.2434E+03  0.2163E+04
      9.455  0.2430E+03  0.2176E+04
      9.507  0.2451E+03  0.2188E+04
      9.559  0.2440E+03  0.2201E+04
      9.611  0.2478E+03  0.2214E+04
      9.663  0.2792E+03  0.2228E+04
      9.715  0.3212E+03  0.2245E+04
      9.767  0.3354E+03  0.2262E+04
      9.819  0.3249E+03  0.2279E+04
      9.871  0.3161E+03  0.2296E+04
      9.923  0.3156E+03  0.2312E+04
      9.975  0.3232E+03  0.2329E+04
     10.027  0.3467E+03  0.2347E+04
     10.078  0.3843E+03  0.2367E+04
     10.130  0.4156E+03  0.2388E+04
     10.182  0.4294E+03  0.2411E+04
     10.234  0.4373E+03  0.2433E+04
     10.286  0.4507E+03  0.2457E+04
     10.338  0.4698E+03  0.2481E+04
     10.390  0.4882E+03  0.2507E+04
     10.442  0.4978E+03  0.2532E+04
     10.494  0.4870E+03  0.2558E+04
     10.546  0.4457E+03  0.2581E+04
     10.598  0.3836E+03  0.2601E+04
     10.650  0.3132E+03  0.2617E+04
     10.701  0.2268E+03  0.2629E+04
     10.753  0.1253E+03  0.2635E+04
     10.805  0.4078E+02  0.2637E+04
     10.857  0.5129E+00  0.2637E+04
     10.909 -0.5548E+01  0.2637E+04
     10.961 -0.2307E+01  0.2637E+04
     11.013 -0.4674E+00  0.2637E+04
     11.065 -0.5670E-01  0.2637E+04
     11.117 -0.4533E-02  0.2637E+04
     11.169 -0.2486E-03  0.2637E+04
     11.221 -0.4933E-04  0.2637E+04
     11.273 -0.7231E-03  0.2637E+04
     11.324 -0.6880E-02  0.2637E+04
     11.376 -0.3120E-01  0.2637E+04
     11.428 -0.3661E-01  0.2637E+04
     11.480  0.1841E+00  0.2637E+04
     11.532  0.6904E+00  0.2637E+04
     11.584  0.8895E+00  0.2637E+04
     11.636  0.4703E+00  0.2637E+04
     11.688  0.4294E-01  0.2637E+04
     11.740 -0.7672E-01  0.2637E+04
     11.792 -0.9667E-01  0.2637E+04
     11.844  0.3401E-01  0.2637E+04
     11.896  0.6734E+00  0.2637E+04
     11.948  0.1655E+01  0.2637E+04
     11.999  0.2137E+01  0.2637E+04
     12.051  0.1850E+01  0.2637E+04
     12.103  0.1317E+01  0.2638E+04
     12.155  0.8824E+00  0.2638E+04
     12.207  0.7551E+00  0.2638E+04
     12.259  0.1288E+01  0.2638E+04
     12.311  0.2682E+01  0.2638E+04
     12.363  0.3790E+01  0.2638E+04
     12.415  0.3309E+01  0.2638E+04
     12.467  0.2283E+01  0.2638E+04
     12.519  0.1918E+01  0.2638E+04
     12.571  0.2368E+01  0.2639E+04
     12.622  0.3073E+01  0.2639E+04
     12.674  0.3552E+01  0.2639E+04
     12.726  0.3722E+01  0.2639E+04
     12.778  0.3053E+01  0.2639E+04
     12.830  0.2228E+01  0.2639E+04
     12.882  0.2397E+01  0.2639E+04
     12.934  0.2530E+01  0.2640E+04
     12.986  0.1776E+01  0.2640E+04
     13.038  0.1106E+01  0.2640E+04
     13.090  0.8807E+00  0.2640E+04
     13.142  0.8524E+00  0.2640E+04
     13.194  0.9367E+00  0.2640E+04
     13.246  0.9809E+00  0.2640E+04
     13.297  0.9713E+00  0.2640E+04
     13.349  0.6583E+00  0.2640E+04
     13.401  0.1730E+00  0.2640E+04
     13.453 -0.3897E-01  0.2640E+04
     13.505 -0.3263E-01  0.2640E+04
     13.557 -0.7321E-02  0.2640E+04
     13.609 -0.7839E-03  0.2640E+04
     13.661 -0.4460E-04  0.2640E+04
     13.713 -0.1404E-05  0.2640E+04
     13.765 -0.2493E-07  0.2640E+04
     13.817 -0.2522E-09  0.2640E+04
     13.869 -0.1464E-11  0.2640E+04
     13.920 -0.5227E-14  0.2640E+04
     13.972  0.0000E+00  0.2640E+04
     14.024  0.0000E+00  0.2640E+04
     14.076  0.0000E+00  0.2640E+04
     14.128  0.0000E+00  0.2640E+04
     14.180  0.0000E+00  0.2640E+04
     14.232  0.0000E+00  0.2640E+04
     14.284  0.0000E+00  0.2640E+04
