   4   4   0   0
  0.1382106E+02  0.3809493E-09  0.3809493E-09  0.3809493E-09  0.5000000E-15
  1.000000000000000E-004
  CAR 
 Ir_Ru                                   
     14.99378321     -0.13911569  301      8.62250011      1.00000000
     -0.139  0.0000E+00  0.0000E+00
     -0.089  0.0000E+00  0.0000E+00
     -0.038  0.0000E+00  0.0000E+00
      0.012  0.0000E+00  0.0000E+00
      0.063  0.0000E+00  0.0000E+00
      0.113  0.0000E+00  0.0000E+00
      0.164  0.0000E+00  0.0000E+00
      0.214  0.0000E+00  0.0000E+00
      0.264  0.0000E+00  0.0000E+00
      0.315  0.0000E+00  0.0000E+00
      0.365  0.0000E+00  0.0000E+00
      0.416  0.0000E+00  0.0000E+00
      0.466  0.0000E+00  0.0000E+00
      0.517  0.0000E+00  0.0000E+00
      0.567  0.0000E+00  0.0000E+00
      0.618  0.0000E+00  0.0000E+00
      0.668  0.0000E+00  0.0000E+00
      0.718  0.0000E+00  0.0000E+00
      0.769  0.0000E+00  0.0000E+00
      0.819  0.0000E+00  0.0000E+00
      0.870  0.5121E-03  0.1512E-05
      0.920  0.2294E-01  0.4535E-03
      0.971  0.6961E-01  0.2796E-02
      1.021  0.9042E-01  0.6974E-02
      1.072  0.9626E-01  0.1164E-01
      1.122  0.1136E+00  0.1689E-01
      1.172  0.1349E+00  0.2315E-01
      1.223  0.1539E+00  0.3048E-01
      1.273  0.1608E+00  0.3846E-01
      1.324  0.1687E+00  0.4674E-01
      1.374  0.1812E+00  0.5557E-01
      1.425  0.1935E+00  0.6502E-01
      1.475  0.2056E+00  0.7509E-01
      1.526  0.2182E+00  0.8577E-01
      1.576  0.2336E+00  0.9716E-01
      1.626  0.2469E+00  0.1093E+00
      1.677  0.2562E+00  0.1220E+00
      1.727  0.2670E+00  0.1352E+00
      1.778  0.2785E+00  0.1489E+00
      1.828  0.2896E+00  0.1633E+00
      1.879  0.3013E+00  0.1782E+00
      1.929  0.3159E+00  0.1937E+00
      1.979  0.3305E+00  0.2100E+00
      2.030  0.3461E+00  0.2271E+00
      2.080  0.3628E+00  0.2450E+00
      2.131  0.3781E+00  0.2636E+00
      2.181  0.3924E+00  0.2831E+00
      2.232  0.4083E+00  0.3033E+00
      2.282  0.4267E+00  0.3243E+00
      2.333  0.4471E+00  0.3463E+00
      2.383  0.4688E+00  0.3694E+00
      2.433  0.6386E+00  0.3961E+00
      2.484  0.9025E+00  0.4358E+00
      2.534  0.9793E+00  0.4831E+00
      2.585  0.1137E+01  0.5363E+00
      2.635  0.1296E+01  0.5978E+00
      2.686  0.1400E+01  0.6658E+00
      2.736  0.1877E+01  0.7491E+00
      2.787  0.2401E+01  0.8565E+00
      2.837  0.2776E+01  0.9861E+00
      2.887  0.3488E+01  0.1140E+01
      2.938  0.4073E+01  0.1337E+01
      2.988  0.4294E+01  0.1548E+01
      3.039  0.4576E+01  0.1772E+01
      3.089  0.4862E+01  0.2009E+01
      3.140  0.5223E+01  0.2264E+01
      3.190  0.5393E+01  0.2531E+01
      3.241  0.5610E+01  0.2809E+01
      3.291  0.6028E+01  0.3101E+01
      3.341  0.6723E+01  0.3425E+01
      3.392  0.6684E+01  0.3765E+01
      3.442  0.7039E+01  0.4109E+01
      3.493  0.7610E+01  0.4478E+01
      3.543  0.9037E+01  0.4911E+01
      3.594  0.7642E+01  0.5332E+01
      3.644  0.7329E+01  0.5712E+01
      3.695  0.6941E+01  0.6072E+01
      3.745  0.6674E+01  0.6414E+01
      3.795  0.6639E+01  0.6748E+01
      3.846  0.6715E+01  0.7087E+01
      3.896  0.6234E+01  0.7414E+01
      3.947  0.5892E+01  0.7719E+01
      3.997  0.5637E+01  0.8010E+01
      4.048  0.5447E+01  0.8289E+01
      4.098  0.5560E+01  0.8565E+01
      4.149  0.5367E+01  0.8840E+01
      4.199  0.4727E+01  0.9103E+01
      4.249  0.4381E+01  0.9333E+01
      4.300  0.3900E+01  0.9549E+01
      4.350  0.3804E+01  0.9742E+01
      4.401  0.3868E+01  0.9935E+01
      4.451  0.4011E+01  0.1013E+02
      4.502  0.4169E+01  0.1034E+02
      4.552  0.4506E+01  0.1056E+02
      4.603  0.4697E+01  0.1079E+02
      4.653  0.4462E+01  0.1103E+02
      4.703  0.3998E+01  0.1125E+02
      4.754  0.3852E+01  0.1144E+02
      4.804  0.4022E+01  0.1164E+02
      4.855  0.5452E+01  0.1188E+02
      4.905  0.6130E+01  0.1220E+02
      4.956  0.4689E+01  0.1246E+02
      5.006  0.4494E+01  0.1269E+02
      5.057  0.4566E+01  0.1292E+02
      5.107  0.4471E+01  0.1315E+02
      5.157  0.4347E+01  0.1337E+02
      5.208  0.4279E+01  0.1359E+02
      5.258  0.4169E+01  0.1380E+02
      5.309  0.4164E+01  0.1401E+02
      5.359  0.4154E+01  0.1422E+02
      5.410  0.4153E+01  0.1443E+02
      5.460  0.4542E+01  0.1464E+02
      5.510  0.4833E+01  0.1488E+02
      5.561  0.5339E+01  0.1513E+02
      5.611  0.5692E+01  0.1542E+02
      5.662  0.5184E+01  0.1570E+02
      5.712  0.4836E+01  0.1595E+02
      5.763  0.4696E+01  0.1619E+02
      5.813  0.4707E+01  0.1643E+02
      5.864  0.4875E+01  0.1667E+02
      5.914  0.4724E+01  0.1691E+02
      5.964  0.5143E+01  0.1716E+02
      6.015  0.7906E+01  0.1748E+02
      6.065  0.5599E+01  0.1776E+02
      6.116  0.6073E+01  0.1805E+02
      6.166  0.6841E+01  0.1838E+02
      6.217  0.7255E+01  0.1875E+02
      6.267  0.8301E+01  0.1913E+02
      6.318  0.9011E+01  0.1957E+02
      6.368  0.8858E+01  0.2003E+02
      6.418  0.8940E+01  0.2048E+02
      6.469  0.9298E+01  0.2093E+02
      6.519  0.1037E+02  0.2143E+02
      6.570  0.8238E+01  0.2190E+02
      6.620  0.6836E+01  0.2228E+02
      6.671  0.6036E+01  0.2260E+02
      6.721  0.5132E+01  0.2288E+02
      6.772  0.4410E+01  0.2312E+02
      6.822  0.3603E+01  0.2333E+02
      6.872  0.3729E+01  0.2351E+02
      6.923  0.3814E+01  0.2370E+02
      6.973  0.4679E+01  0.2391E+02
      7.024  0.5417E+01  0.2417E+02
      7.074  0.5442E+01  0.2445E+02
      7.125  0.5507E+01  0.2473E+02
      7.175  0.5401E+01  0.2500E+02
      7.226  0.5085E+01  0.2527E+02
      7.276  0.4675E+01  0.2552E+02
      7.326  0.4581E+01  0.2575E+02
      7.377  0.4419E+01  0.2598E+02
      7.427  0.4324E+01  0.2620E+02
      7.478  0.4402E+01  0.2642E+02
      7.528  0.4475E+01  0.2664E+02
      7.579  0.4682E+01  0.2687E+02
      7.629  0.4679E+01  0.2711E+02
      7.680  0.4333E+01  0.2734E+02
      7.730  0.4504E+01  0.2756E+02
      7.780  0.5074E+01  0.2780E+02
      7.831  0.5408E+01  0.2807E+02
      7.881  0.5584E+01  0.2835E+02
      7.932  0.5524E+01  0.2863E+02
      7.982  0.4863E+01  0.2889E+02
      8.033  0.4528E+01  0.2913E+02
      8.083  0.4537E+01  0.2935E+02
      8.134  0.4742E+01  0.2959E+02
      8.184  0.5968E+01  0.2986E+02
      8.234  0.4668E+01  0.3015E+02
      8.285  0.4660E+01  0.3039E+02
      8.335  0.4802E+01  0.3063E+02
      8.386  0.5222E+01  0.3088E+02
      8.436  0.4935E+01  0.3114E+02
      8.487  0.5337E+01  0.3140E+02
      8.537  0.4398E+01  0.3164E+02
      8.588  0.4160E+01  0.3185E+02
      8.638  0.4230E+01  0.3206E+02
      8.688  0.4127E+01  0.3228E+02
      8.739  0.3948E+01  0.3248E+02
      8.789  0.3613E+01  0.3267E+02
      8.840  0.3313E+01  0.3284E+02
      8.890  0.3313E+01  0.3301E+02
      8.941  0.3207E+01  0.3318E+02
      8.991  0.3212E+01  0.3334E+02
      9.042  0.3406E+01  0.3350E+02
      9.092  0.3645E+01  0.3369E+02
      9.142  0.3534E+01  0.3387E+02
      9.193  0.3493E+01  0.3404E+02
      9.243  0.3581E+01  0.3422E+02
      9.294  0.3547E+01  0.3440E+02
      9.344  0.3643E+01  0.3458E+02
      9.395  0.3732E+01  0.3477E+02
      9.445  0.3560E+01  0.3496E+02
      9.495  0.3710E+01  0.3514E+02
      9.546  0.3630E+01  0.3532E+02
      9.596  0.3584E+01  0.3550E+02
      9.647  0.3705E+01  0.3569E+02
      9.697  0.3860E+01  0.3588E+02
      9.748  0.3889E+01  0.3607E+02
      9.798  0.4029E+01  0.3627E+02
      9.849  0.4265E+01  0.3648E+02
      9.899  0.4105E+01  0.3670E+02
      9.949  0.3869E+01  0.3690E+02
     10.000  0.3684E+01  0.3709E+02
     10.050  0.3898E+01  0.3728E+02
     10.101  0.3645E+01  0.3747E+02
     10.151  0.3499E+01  0.3766E+02
     10.202  0.3457E+01  0.3784E+02
     10.252  0.3001E+01  0.3800E+02
     10.303  0.2892E+01  0.3814E+02
     10.353  0.3330E+01  0.3832E+02
     10.403  0.2632E+01  0.3847E+02
     10.454  0.2760E+01  0.3860E+02
     10.504  0.2438E+01  0.3874E+02
     10.555  0.2139E+01  0.3885E+02
     10.605  0.2009E+01  0.3895E+02
     10.656  0.1916E+01  0.3905E+02
     10.706  0.1254E+01  0.3913E+02
     10.757  0.1133E+01  0.3919E+02
     10.807  0.1064E+01  0.3924E+02
     10.857  0.1020E+01  0.3929E+02
     10.908  0.9691E+00  0.3934E+02
     10.958  0.9173E+00  0.3939E+02
     11.009  0.8648E+00  0.3944E+02
     11.059  0.8117E+00  0.3948E+02
     11.110  0.7580E+00  0.3952E+02
     11.160  0.7023E+00  0.3956E+02
     11.211  0.6294E+00  0.3959E+02
     11.261  0.6120E+00  0.3962E+02
     11.311  0.5348E+00  0.3965E+02
     11.362  0.4473E+00  0.3967E+02
     11.412  0.4150E+00  0.3970E+02
     11.463  0.3915E+00  0.3972E+02
     11.513  0.3688E+00  0.3973E+02
     11.564  0.3470E+00  0.3975E+02
     11.614  0.3261E+00  0.3977E+02
     11.665  0.2864E+00  0.3979E+02
     11.715  0.2699E+00  0.3980E+02
     11.765  0.2543E+00  0.3981E+02
     11.816  0.2395E+00  0.3983E+02
     11.866  0.2257E+00  0.3984E+02
     11.917  0.2128E+00  0.3985E+02
     11.967  0.2192E+00  0.3986E+02
     12.018  0.2044E+00  0.3987E+02
     12.068  0.1900E+00  0.3988E+02
     12.119  0.1764E+00  0.3989E+02
     12.169  0.1637E+00  0.3990E+02
     12.219  0.1517E+00  0.3991E+02
     12.270  0.1221E+00  0.3991E+02
     12.320  0.1159E+00  0.3992E+02
     12.371  0.1099E+00  0.3992E+02
     12.421  0.1043E+00  0.3993E+02
     12.472  0.9897E-01  0.3993E+02
     12.522  0.9397E-01  0.3994E+02
     12.573  0.8929E-01  0.3994E+02
     12.623  0.8492E-01  0.3995E+02
     12.673  0.8086E-01  0.3995E+02
     12.724  0.7711E-01  0.3996E+02
     12.774  0.7368E-01  0.3996E+02
     12.825  0.7056E-01  0.3996E+02
     12.875  0.6776E-01  0.3997E+02
     12.926  0.6527E-01  0.3997E+02
     12.976  0.6349E-01  0.3997E+02
     13.027  0.6129E-01  0.3998E+02
     13.077  0.5996E-01  0.3998E+02
     13.127  0.5875E-01  0.3998E+02
     13.178  0.5596E-01  0.3999E+02
     13.228  0.5122E-01  0.3999E+02
     13.279  0.4428E-01  0.3999E+02
     13.329  0.3514E-01  0.3999E+02
     13.380  0.2450E-01  0.4000E+02
     13.430  0.1667E-01  0.4000E+02
     13.480  0.1435E-01  0.4000E+02
     13.531  0.1219E-01  0.4000E+02
     13.581  0.1019E-01  0.4000E+02
     13.632  0.8362E-02  0.4000E+02
     13.682  0.6693E-02  0.4000E+02
     13.733  0.5188E-02  0.4000E+02
     13.783  0.3845E-02  0.4000E+02
     13.834  0.2665E-02  0.4000E+02
     13.884  0.1649E-02  0.4000E+02
     13.934  0.7950E-03  0.4000E+02
     13.985  0.1045E-03  0.4000E+02
     14.035  0.0000E+00  0.4000E+02
     14.086  0.0000E+00  0.4000E+02
     14.136  0.0000E+00  0.4000E+02
     14.187  0.0000E+00  0.4000E+02
     14.237  0.0000E+00  0.4000E+02
     14.288  0.0000E+00  0.4000E+02
     14.338  0.0000E+00  0.4000E+02
     14.388  0.0000E+00  0.4000E+02
     14.439  0.0000E+00  0.4000E+02
     14.489  0.0000E+00  0.4000E+02
     14.540  0.0000E+00  0.4000E+02
     14.590  0.0000E+00  0.4000E+02
     14.641  0.0000E+00  0.4000E+02
     14.691  0.0000E+00  0.4000E+02
     14.742  0.0000E+00  0.4000E+02
     14.792  0.0000E+00  0.4000E+02
     14.842  0.0000E+00  0.4000E+02
     14.893  0.0000E+00  0.4000E+02
     14.943  0.0000E+00  0.4000E+02
     14.994  0.0000E+00  0.4000E+02
