 256 256   0   0
  0.1418917E+02  0.1588033E-08  0.1692661E-08  0.1693229E-08  0.5000000E-15
  1.000000000000000E-004
  CAR 
 Ir_Ru                                   
     14.28796111     -1.29203745  301      9.45707957      1.00000000
     -1.292  0.0000E+00  0.0000E+00
     -1.240  0.0000E+00  0.0000E+00
     -1.188  0.0000E+00  0.0000E+00
     -1.136 -0.2852E-30 -0.1481E-31
     -1.084 -0.1313E-26 -0.6822E-28
     -1.032 -0.3513E-23 -0.1825E-24
     -0.980 -0.5450E-20 -0.2832E-21
     -0.929 -0.4903E-17 -0.2549E-18
     -0.877 -0.2495E-14 -0.1298E-15
     -0.825 -0.7433E-12 -0.3873E-13
     -0.773 -0.1284E-09 -0.6704E-11
     -0.721 -0.1274E-07 -0.6683E-09
     -0.669 -0.7237E-06 -0.3825E-07
     -0.617 -0.2340E-04 -0.1254E-05
     -0.565 -0.4276E-03 -0.2346E-04
     -0.513 -0.4372E-02 -0.2505E-03
     -0.461 -0.2475E-01 -0.1536E-02
     -0.409 -0.7599E-01 -0.5482E-02
     -0.357 -0.1012E+00 -0.1074E-01
     -0.305  0.2168E+00  0.5205E-03
     -0.253  0.1676E+01  0.8756E-01
     -0.201  0.4447E+01  0.3185E+00
     -0.150  0.6368E+01  0.6492E+00
     -0.098  0.6421E+01  0.9827E+00
     -0.046  0.6990E+01  0.1346E+01
      0.006  0.8906E+01  0.1808E+01
      0.058  0.1123E+02  0.2392E+01
      0.110  0.1366E+02  0.3101E+01
      0.162  0.1432E+02  0.3845E+01
      0.214  0.1162E+02  0.4448E+01
      0.266  0.1010E+02  0.4973E+01
      0.318  0.1444E+02  0.5723E+01
      0.370  0.2047E+02  0.6786E+01
      0.422  0.2253E+02  0.7956E+01
      0.474  0.2272E+02  0.9136E+01
      0.526  0.2353E+02  0.1036E+02
      0.578  0.2246E+02  0.1152E+02
      0.629  0.2043E+02  0.1259E+02
      0.681  0.2105E+02  0.1368E+02
      0.733  0.2025E+02  0.1473E+02
      0.785  0.1434E+02  0.1547E+02
      0.837  0.8722E+01  0.1593E+02
      0.889  0.8047E+01  0.1635E+02
      0.941  0.1186E+02  0.1696E+02
      0.993  0.1919E+02  0.1796E+02
      1.045  0.2814E+02  0.1942E+02
      1.097  0.3348E+02  0.2116E+02
      1.149  0.3302E+02  0.2287E+02
      1.201  0.2862E+02  0.2436E+02
      1.253  0.2263E+02  0.2553E+02
      1.305  0.1945E+02  0.2654E+02
      1.357  0.2186E+02  0.2768E+02
      1.408  0.2737E+02  0.2910E+02
      1.460  0.3038E+02  0.3068E+02
      1.512  0.2978E+02  0.3223E+02
      1.564  0.2935E+02  0.3375E+02
      1.616  0.3046E+02  0.3533E+02
      1.668  0.3112E+02  0.3695E+02
      1.720  0.3207E+02  0.3861E+02
      1.772  0.3514E+02  0.4044E+02
      1.824  0.3932E+02  0.4248E+02
      1.876  0.4591E+02  0.4487E+02
      1.928  0.5505E+02  0.4772E+02
      1.980  0.5929E+02  0.5080E+02
      2.032  0.5438E+02  0.5363E+02
      2.084  0.5056E+02  0.5625E+02
      2.136  0.6253E+02  0.5950E+02
      2.187  0.8813E+02  0.6408E+02
      2.239  0.1095E+03  0.6977E+02
      2.291  0.1201E+03  0.7601E+02
      2.343  0.1262E+03  0.8256E+02
      2.395  0.1318E+03  0.8941E+02
      2.447  0.1378E+03  0.9656E+02
      2.499  0.1478E+03  0.1042E+03
      2.551  0.1653E+03  0.1128E+03
      2.603  0.1836E+03  0.1224E+03
      2.655  0.1954E+03  0.1325E+03
      2.707  0.2078E+03  0.1433E+03
      2.759  0.2246E+03  0.1550E+03
      2.811  0.2306E+03  0.1669E+03
      2.863  0.2243E+03  0.1786E+03
      2.915  0.2285E+03  0.1905E+03
      2.966  0.2463E+03  0.2032E+03
      3.018  0.2582E+03  0.2167E+03
      3.070  0.2598E+03  0.2301E+03
      3.122  0.2604E+03  0.2437E+03
      3.174  0.2642E+03  0.2574E+03
      3.226  0.2737E+03  0.2716E+03
      3.278  0.2891E+03  0.2866E+03
      3.330  0.3085E+03  0.3026E+03
      3.382  0.3250E+03  0.3195E+03
      3.434  0.3308E+03  0.3367E+03
      3.486  0.3274E+03  0.3537E+03
      3.538  0.3210E+03  0.3704E+03
      3.590  0.3180E+03  0.3869E+03
      3.642  0.3162E+03  0.4033E+03
      3.694  0.3105E+03  0.4194E+03
      3.745  0.3048E+03  0.4353E+03
      3.797  0.3009E+03  0.4509E+03
      3.849  0.2965E+03  0.4663E+03
      3.901  0.2931E+03  0.4815E+03
      3.953  0.2879E+03  0.4965E+03
      4.005  0.2750E+03  0.5108E+03
      4.057  0.2664E+03  0.5246E+03
      4.109  0.2770E+03  0.5390E+03
      4.161  0.2953E+03  0.5543E+03
      4.213  0.3030E+03  0.5700E+03
      4.265  0.3055E+03  0.5859E+03
      4.317  0.3128E+03  0.6022E+03
      4.369  0.3190E+03  0.6187E+03
      4.421  0.3215E+03  0.6354E+03
      4.473  0.3237E+03  0.6522E+03
      4.524  0.3203E+03  0.6689E+03
      4.576  0.3084E+03  0.6849E+03
      4.628  0.2965E+03  0.7003E+03
      4.680  0.2936E+03  0.7155E+03
      4.732  0.2988E+03  0.7310E+03
      4.784  0.3068E+03  0.7470E+03
      4.836  0.3192E+03  0.7636E+03
      4.888  0.3323E+03  0.7808E+03
      4.940  0.3381E+03  0.7984E+03
      4.992  0.3462E+03  0.8164E+03
      5.044  0.3594E+03  0.8350E+03
      5.096  0.3659E+03  0.8540E+03
      5.148  0.3638E+03  0.8729E+03
      5.200  0.3536E+03  0.8913E+03
      5.252  0.3319E+03  0.9085E+03
      5.303  0.2986E+03  0.9240E+03
      5.355  0.2570E+03  0.9374E+03
      5.407  0.2142E+03  0.9485E+03
      5.459  0.1822E+03  0.9579E+03
      5.511  0.1732E+03  0.9669E+03
      5.563  0.1925E+03  0.9769E+03
      5.615  0.2321E+03  0.9890E+03
      5.667  0.2809E+03  0.1004E+04
      5.719  0.3306E+03  0.1021E+04
      5.771  0.3715E+03  0.1040E+04
      5.823  0.3977E+03  0.1061E+04
      5.875  0.4119E+03  0.1082E+04
      5.927  0.4200E+03  0.1104E+04
      5.979  0.4262E+03  0.1126E+04
      6.031  0.4275E+03  0.1148E+04
      6.082  0.4138E+03  0.1170E+04
      6.134  0.3891E+03  0.1190E+04
      6.186  0.3701E+03  0.1209E+04
      6.238  0.3602E+03  0.1228E+04
      6.290  0.3551E+03  0.1246E+04
      6.342  0.3575E+03  0.1265E+04
      6.394  0.3712E+03  0.1284E+04
      6.446  0.3827E+03  0.1304E+04
      6.498  0.3844E+03  0.1324E+04
      6.550  0.3933E+03  0.1344E+04
      6.602  0.4121E+03  0.1366E+04
      6.654  0.4249E+03  0.1388E+04
      6.706  0.4281E+03  0.1410E+04
      6.758  0.4242E+03  0.1432E+04
      6.810  0.4109E+03  0.1453E+04
      6.861  0.3893E+03  0.1474E+04
      6.913  0.3720E+03  0.1493E+04
      6.965  0.3661E+03  0.1512E+04
      7.017  0.3635E+03  0.1531E+04
      7.069  0.3699E+03  0.1550E+04
      7.121  0.3947E+03  0.1571E+04
      7.173  0.4165E+03  0.1592E+04
      7.225  0.4225E+03  0.1614E+04
      7.277  0.4220E+03  0.1636E+04
      7.329  0.4110E+03  0.1657E+04
      7.381  0.3841E+03  0.1677E+04
      7.433  0.3557E+03  0.1696E+04
      7.485  0.3386E+03  0.1713E+04
      7.537  0.3320E+03  0.1731E+04
      7.589  0.3279E+03  0.1748E+04
      7.640  0.3147E+03  0.1764E+04
      7.692  0.2929E+03  0.1779E+04
      7.744  0.2760E+03  0.1794E+04
      7.796  0.2679E+03  0.1808E+04
      7.848  0.2628E+03  0.1821E+04
      7.900  0.2565E+03  0.1834E+04
      7.952  0.2474E+03  0.1847E+04
      8.004  0.2428E+03  0.1860E+04
      8.056  0.2432E+03  0.1873E+04
      8.108  0.2382E+03  0.1885E+04
      8.160  0.2305E+03  0.1897E+04
      8.212  0.2293E+03  0.1909E+04
      8.264  0.2342E+03  0.1921E+04
      8.316  0.2380E+03  0.1933E+04
      8.368  0.2390E+03  0.1946E+04
      8.419  0.2361E+03  0.1958E+04
      8.471  0.2273E+03  0.1970E+04
      8.523  0.2173E+03  0.1981E+04
      8.575  0.2114E+03  0.1992E+04
      8.627  0.2062E+03  0.2003E+04
      8.679  0.1986E+03  0.2013E+04
      8.731  0.1901E+03  0.2023E+04
      8.783  0.1821E+03  0.2032E+04
      8.835  0.1797E+03  0.2042E+04
      8.887  0.1912E+03  0.2052E+04
      8.939  0.2174E+03  0.2063E+04
      8.991  0.2370E+03  0.2075E+04
      9.043  0.2349E+03  0.2087E+04
      9.095  0.2212E+03  0.2099E+04
      9.147  0.2035E+03  0.2110E+04
      9.198  0.1844E+03  0.2119E+04
      9.250  0.1799E+03  0.2128E+04
      9.302  0.2023E+03  0.2139E+04
      9.354  0.2322E+03  0.2151E+04
      9.406  0.2433E+03  0.2164E+04
      9.458  0.2428E+03  0.2176E+04
      9.510  0.2453E+03  0.2189E+04
      9.562  0.2440E+03  0.2202E+04
      9.614  0.2487E+03  0.2215E+04
      9.666  0.2815E+03  0.2229E+04
      9.718  0.3229E+03  0.2246E+04
      9.770  0.3353E+03  0.2263E+04
      9.822  0.3243E+03  0.2280E+04
      9.874  0.3158E+03  0.2297E+04
      9.926  0.3157E+03  0.2313E+04
      9.977  0.3240E+03  0.2330E+04
     10.029  0.3485E+03  0.2348E+04
     10.081  0.3865E+03  0.2368E+04
     10.133  0.4169E+03  0.2390E+04
     10.185  0.4299E+03  0.2412E+04
     10.237  0.4379E+03  0.2435E+04
     10.289  0.4517E+03  0.2458E+04
     10.341  0.4708E+03  0.2483E+04
     10.393  0.4890E+03  0.2508E+04
     10.445  0.4980E+03  0.2534E+04
     10.497  0.4857E+03  0.2559E+04
     10.549  0.4425E+03  0.2582E+04
     10.601  0.3794E+03  0.2602E+04
     10.653  0.3087E+03  0.2618E+04
     10.705  0.2216E+03  0.2629E+04
     10.756  0.1202E+03  0.2636E+04
     10.808  0.3755E+02  0.2638E+04
     10.860 -0.3883E+00  0.2638E+04
     10.912 -0.5423E+01  0.2637E+04
     10.964 -0.2155E+01  0.2637E+04
     11.016 -0.4250E+00  0.2637E+04
     11.068 -0.5026E-01  0.2637E+04
     11.120 -0.3883E-02  0.2637E+04
     11.172 -0.2019E-03  0.2637E+04
     11.224 -0.6898E-05  0.2637E+04
     11.276 -0.1480E-06  0.2637E+04
     11.328 -0.1917E-08  0.2637E+04
     11.380 -0.1467E-10  0.2637E+04
     11.432 -0.3870E-12  0.2637E+04
     11.484 -0.6915E-10  0.2637E+04
     11.535 -0.8591E-08  0.2637E+04
     11.587 -0.6145E-06  0.2637E+04
     11.639 -0.2512E-04  0.2637E+04
     11.691 -0.5792E-03  0.2637E+04
     11.743 -0.7335E-02  0.2637E+04
     11.795 -0.4791E-01  0.2637E+04
     11.847 -0.1299E+00  0.2637E+04
     11.899  0.7893E-01  0.2637E+04
     11.951  0.1199E+01  0.2637E+04
     12.003  0.2532E+01  0.2637E+04
     12.055  0.2423E+01  0.2637E+04
     12.107  0.1401E+01  0.2637E+04
     12.159  0.7261E+00  0.2638E+04
     12.211  0.5016E+00  0.2638E+04
     12.263  0.1056E+01  0.2638E+04
     12.314  0.2501E+01  0.2638E+04
     12.366  0.3785E+01  0.2638E+04
     12.418  0.3672E+01  0.2638E+04
     12.470  0.2771E+01  0.2638E+04
     12.522  0.2446E+01  0.2638E+04
     12.574  0.2578E+01  0.2639E+04
     12.626  0.2551E+01  0.2639E+04
     12.678  0.3040E+01  0.2639E+04
     12.730  0.3909E+01  0.2639E+04
     12.782  0.3588E+01  0.2639E+04
     12.834  0.2793E+01  0.2639E+04
     12.886  0.2704E+01  0.2640E+04
     12.938  0.2191E+01  0.2640E+04
     12.990  0.1174E+01  0.2640E+04
     13.042  0.8219E+00  0.2640E+04
     13.093  0.9476E+00  0.2640E+04
     13.145  0.1002E+01  0.2640E+04
     13.197  0.9148E+00  0.2640E+04
     13.249  0.8394E+00  0.2640E+04
     13.301  0.9012E+00  0.2640E+04
     13.353  0.6608E+00  0.2640E+04
     13.405  0.1823E+00  0.2640E+04
     13.457 -0.3679E-01  0.2640E+04
     13.509 -0.3255E-01  0.2640E+04
     13.561 -0.7363E-02  0.2640E+04
     13.613 -0.7908E-03  0.2640E+04
     13.665 -0.4507E-04  0.2640E+04
     13.717 -0.1420E-05  0.2640E+04
     13.769 -0.2523E-07  0.2640E+04
     13.821 -0.2554E-09  0.2640E+04
     13.872 -0.1482E-11  0.2640E+04
     13.924 -0.5226E-14  0.2640E+04
     13.976  0.0000E+00  0.2640E+04
     14.028  0.0000E+00  0.2640E+04
     14.080  0.0000E+00  0.2640E+04
     14.132  0.0000E+00  0.2640E+04
     14.184  0.0000E+00  0.2640E+04
     14.236  0.0000E+00  0.2640E+04
     14.288  0.0000E+00  0.2640E+04
