  48  48   0   0
  0.1647849E+02  0.7164579E-09  0.1001836E-08  0.1173839E-08  0.1500000E-14
   3000.00000000000     
  CAR 
 Ir_Ru                                   
     23.58119566     -3.16255806  301      6.64368335      1.00000000
     -3.163  0.0000E+00  0.0000E+00
     -3.073  0.0000E+00  0.0000E+00
     -2.984  0.0000E+00  0.0000E+00
     -2.895  0.0000E+00  0.0000E+00
     -2.806  0.0000E+00  0.0000E+00
     -2.717  0.0000E+00  0.0000E+00
     -2.628  0.1431E-03  0.1273E-04
     -2.539  0.4427E-03  0.5208E-04
     -2.449  0.7140E-03  0.1156E-03
     -2.360  0.1315E-02  0.2325E-03
     -2.271  0.1848E-02  0.3968E-03
     -2.182  0.2383E-02  0.6087E-03
     -2.093  0.3640E-02  0.9324E-03
     -2.004  0.5204E-02  0.1395E-02
     -1.915  0.7221E-02  0.2037E-02
     -1.825  0.1065E-01  0.2984E-02
     -1.736  0.1535E-01  0.4349E-02
     -1.647  0.2187E-01  0.6294E-02
     -1.558  0.3160E-01  0.9104E-02
     -1.469  0.4412E-01  0.1303E-01
     -1.380  0.6159E-01  0.1851E-01
     -1.290  0.8616E-01  0.2617E-01
     -1.201  0.1195E+00  0.3679E-01
     -1.112  0.1646E+00  0.5143E-01
     -1.023  0.2257E+00  0.7150E-01
     -0.934  0.3071E+00  0.9882E-01
     -0.845  0.4153E+00  0.1357E+00
     -0.756  0.5581E+00  0.1854E+00
     -0.666  0.7439E+00  0.2515E+00
     -0.577  0.9833E+00  0.3390E+00
     -0.488  0.1287E+01  0.4534E+00
     -0.399  0.1666E+01  0.6016E+00
     -0.310  0.2133E+01  0.7912E+00
     -0.221  0.2700E+01  0.1031E+01
     -0.132  0.3385E+01  0.1332E+01
     -0.042  0.4205E+01  0.1706E+01
      0.047  0.5186E+01  0.2168E+01
      0.136  0.6355E+01  0.2733E+01
      0.225  0.7747E+01  0.3422E+01
      0.314  0.9394E+01  0.4257E+01
      0.403  0.1133E+02  0.5264E+01
      0.492  0.1357E+02  0.6471E+01
      0.582  0.1613E+02  0.7906E+01
      0.671  0.1902E+02  0.9597E+01
      0.760  0.2221E+02  0.1157E+02
      0.849  0.2567E+02  0.1385E+02
      0.938  0.2934E+02  0.1646E+02
      1.027  0.3317E+02  0.1941E+02
      1.116  0.3708E+02  0.2271E+02
      1.206  0.4098E+02  0.2635E+02
      1.295  0.4479E+02  0.3034E+02
      1.384  0.4843E+02  0.3464E+02
      1.473  0.5184E+02  0.3925E+02
      1.562  0.5497E+02  0.4414E+02
      1.651  0.5778E+02  0.4928E+02
      1.740  0.6026E+02  0.5463E+02
      1.830  0.6242E+02  0.6018E+02
      1.919  0.6426E+02  0.6590E+02
      2.008  0.6581E+02  0.7175E+02
      2.097  0.6709E+02  0.7771E+02
      2.186  0.6813E+02  0.8377E+02
      2.275  0.6896E+02  0.8990E+02
      2.364  0.6961E+02  0.9609E+02
      2.454  0.7012E+02  0.1023E+03
      2.543  0.7050E+02  0.1086E+03
      2.632  0.7077E+02  0.1149E+03
      2.721  0.7096E+02  0.1212E+03
      2.810  0.7108E+02  0.1275E+03
      2.899  0.7113E+02  0.1338E+03
      2.989  0.7112E+02  0.1402E+03
      3.078  0.7106E+02  0.1465E+03
      3.167  0.7096E+02  0.1528E+03
      3.256  0.7080E+02  0.1591E+03
      3.345  0.7061E+02  0.1654E+03
      3.434  0.7037E+02  0.1716E+03
      3.523  0.7010E+02  0.1779E+03
      3.613  0.6979E+02  0.1841E+03
      3.702  0.6946E+02  0.1902E+03
      3.791  0.6911E+02  0.1964E+03
      3.880  0.6873E+02  0.2025E+03
      3.969  0.6835E+02  0.2086E+03
      4.058  0.6795E+02  0.2146E+03
      4.147  0.6755E+02  0.2206E+03
      4.237  0.6713E+02  0.2266E+03
      4.326  0.6672E+02  0.2325E+03
      4.415  0.6631E+02  0.2384E+03
      4.504  0.6590E+02  0.2443E+03
      4.593  0.6550E+02  0.2501E+03
      4.682  0.6512E+02  0.2559E+03
      4.771  0.6476E+02  0.2617E+03
      4.861  0.6442E+02  0.2674E+03
      4.950  0.6412E+02  0.2731E+03
      5.039  0.6385E+02  0.2788E+03
      5.128  0.6363E+02  0.2844E+03
      5.217  0.6345E+02  0.2901E+03
      5.306  0.6333E+02  0.2957E+03
      5.395  0.6327E+02  0.3013E+03
      5.485  0.6327E+02  0.3070E+03
      5.574  0.6335E+02  0.3126E+03
      5.663  0.6350E+02  0.3183E+03
      5.752  0.6373E+02  0.3239E+03
      5.841  0.6402E+02  0.3296E+03
      5.930  0.6438E+02  0.3353E+03
      6.019  0.6480E+02  0.3411E+03
      6.109  0.6527E+02  0.3469E+03
      6.198  0.6578E+02  0.3528E+03
      6.287  0.6632E+02  0.3587E+03
      6.376  0.6688E+02  0.3646E+03
      6.465  0.6745E+02  0.3706E+03
      6.554  0.6803E+02  0.3767E+03
      6.643  0.6858E+02  0.3828E+03
      6.733  0.6910E+02  0.3889E+03
      6.822  0.6955E+02  0.3951E+03
      6.911  0.6992E+02  0.4013E+03
      7.000  0.7017E+02  0.4075E+03
      7.089  0.7028E+02  0.4138E+03
      7.178  0.7022E+02  0.4200E+03
      7.268  0.6995E+02  0.4263E+03
      7.357  0.6946E+02  0.4324E+03
      7.446  0.6871E+02  0.4386E+03
      7.535  0.6769E+02  0.4446E+03
      7.624  0.6639E+02  0.4505E+03
      7.713  0.6478E+02  0.4562E+03
      7.802  0.6288E+02  0.4618E+03
      7.892  0.6069E+02  0.4672E+03
      7.981  0.5825E+02  0.4724E+03
      8.070  0.5556E+02  0.4774E+03
      8.159  0.5268E+02  0.4820E+03
      8.248  0.4964E+02  0.4865E+03
      8.337  0.4649E+02  0.4906E+03
      8.426  0.4329E+02  0.4944E+03
      8.516  0.4010E+02  0.4980E+03
      8.605  0.3698E+02  0.5013E+03
      8.694  0.3400E+02  0.5043E+03
      8.783  0.3120E+02  0.5071E+03
      8.872  0.2863E+02  0.5096E+03
      8.961  0.2632E+02  0.5120E+03
      9.050  0.2428E+02  0.5142E+03
      9.140  0.2251E+02  0.5162E+03
      9.229  0.2101E+02  0.5180E+03
      9.318  0.1974E+02  0.5198E+03
      9.407  0.1868E+02  0.5214E+03
      9.496  0.1781E+02  0.5230E+03
      9.585  0.1709E+02  0.5246E+03
      9.674  0.1650E+02  0.5260E+03
      9.764  0.1600E+02  0.5274E+03
      9.853  0.1558E+02  0.5288E+03
      9.942  0.1522E+02  0.5302E+03
     10.031  0.1491E+02  0.5315E+03
     10.120  0.1463E+02  0.5328E+03
     10.209  0.1437E+02  0.5341E+03
     10.298  0.1413E+02  0.5354E+03
     10.388  0.1390E+02  0.5366E+03
     10.477  0.1369E+02  0.5378E+03
     10.566  0.1349E+02  0.5390E+03
     10.655  0.1331E+02  0.5402E+03
     10.744  0.1315E+02  0.5414E+03
     10.833  0.1302E+02  0.5425E+03
     10.922  0.1291E+02  0.5437E+03
     11.012  0.1283E+02  0.5448E+03
     11.101  0.1277E+02  0.5460E+03
     11.190  0.1275E+02  0.5471E+03
     11.279  0.1273E+02  0.5482E+03
     11.368  0.1273E+02  0.5494E+03
     11.457  0.1273E+02  0.5505E+03
     11.547  0.1272E+02  0.5516E+03
     11.636  0.1270E+02  0.5528E+03
     11.725  0.1267E+02  0.5539E+03
     11.814  0.1262E+02  0.5550E+03
     11.903  0.1255E+02  0.5561E+03
     11.992  0.1246E+02  0.5572E+03
     12.081  0.1236E+02  0.5583E+03
     12.171  0.1226E+02  0.5594E+03
     12.260  0.1217E+02  0.5605E+03
     12.349  0.1209E+02  0.5616E+03
     12.438  0.1203E+02  0.5626E+03
     12.527  0.1200E+02  0.5637E+03
     12.616  0.1199E+02  0.5648E+03
     12.705  0.1202E+02  0.5659E+03
     12.795  0.1206E+02  0.5669E+03
     12.884  0.1213E+02  0.5680E+03
     12.973  0.1221E+02  0.5691E+03
     13.062  0.1230E+02  0.5702E+03
     13.151  0.1240E+02  0.5713E+03
     13.240  0.1249E+02  0.5724E+03
     13.329  0.1259E+02  0.5735E+03
     13.419  0.1268E+02  0.5746E+03
     13.508  0.1276E+02  0.5758E+03
     13.597  0.1285E+02  0.5769E+03
     13.686  0.1293E+02  0.5781E+03
     13.775  0.1302E+02  0.5792E+03
     13.864  0.1311E+02  0.5804E+03
     13.953  0.1321E+02  0.5816E+03
     14.043  0.1332E+02  0.5828E+03
     14.132  0.1344E+02  0.5840E+03
     14.221  0.1357E+02  0.5852E+03
     14.310  0.1370E+02  0.5864E+03
     14.399  0.1384E+02  0.5876E+03
     14.488  0.1398E+02  0.5889E+03
     14.577  0.1412E+02  0.5901E+03
     14.667  0.1426E+02  0.5914E+03
     14.756  0.1440E+02  0.5927E+03
     14.845  0.1454E+02  0.5939E+03
     14.934  0.1467E+02  0.5953E+03
     15.023  0.1479E+02  0.5966E+03
     15.112  0.1491E+02  0.5979E+03
     15.201  0.1502E+02  0.5992E+03
     15.291  0.1513E+02  0.6006E+03
     15.380  0.1523E+02  0.6019E+03
     15.469  0.1534E+02  0.6033E+03
     15.558  0.1545E+02  0.6047E+03
     15.647  0.1556E+02  0.6061E+03
     15.736  0.1568E+02  0.6074E+03
     15.826  0.1580E+02  0.6089E+03
     15.915  0.1592E+02  0.6103E+03
     16.004  0.1606E+02  0.6117E+03
     16.093  0.1620E+02  0.6131E+03
     16.182  0.1634E+02  0.6146E+03
     16.271  0.1650E+02  0.6161E+03
     16.360  0.1666E+02  0.6175E+03
     16.450  0.1683E+02  0.6190E+03
     16.539  0.1700E+02  0.6206E+03
     16.628  0.1717E+02  0.6221E+03
     16.717  0.1735E+02  0.6236E+03
     16.806  0.1753E+02  0.6252E+03
     16.895  0.1771E+02  0.6268E+03
     16.984  0.1789E+02  0.6283E+03
     17.074  0.1807E+02  0.6300E+03
     17.163  0.1825E+02  0.6316E+03
     17.252  0.1842E+02  0.6332E+03
     17.341  0.1860E+02  0.6349E+03
     17.430  0.1877E+02  0.6365E+03
     17.519  0.1894E+02  0.6382E+03
     17.608  0.1910E+02  0.6399E+03
     17.698  0.1926E+02  0.6416E+03
     17.787  0.1941E+02  0.6434E+03
     17.876  0.1957E+02  0.6451E+03
     17.965  0.1972E+02  0.6469E+03
     18.054  0.1987E+02  0.6486E+03
     18.143  0.2002E+02  0.6504E+03
     18.232  0.2018E+02  0.6522E+03
     18.322  0.2033E+02  0.6540E+03
     18.411  0.2050E+02  0.6558E+03
     18.500  0.2066E+02  0.6577E+03
     18.589  0.2082E+02  0.6595E+03
     18.678  0.2099E+02  0.6614E+03
     18.767  0.2114E+02  0.6633E+03
     18.856  0.2129E+02  0.6652E+03
     18.946  0.2141E+02  0.6671E+03
     19.035  0.2151E+02  0.6690E+03
     19.124  0.2158E+02  0.6709E+03
     19.213  0.2161E+02  0.6728E+03
     19.302  0.2159E+02  0.6747E+03
     19.391  0.2151E+02  0.6766E+03
     19.480  0.2135E+02  0.6785E+03
     19.570  0.2110E+02  0.6804E+03
     19.659  0.2075E+02  0.6823E+03
     19.748  0.2029E+02  0.6841E+03
     19.837  0.1970E+02  0.6858E+03
     19.926  0.1897E+02  0.6875E+03
     20.015  0.1809E+02  0.6891E+03
     20.105  0.1705E+02  0.6906E+03
     20.194  0.1587E+02  0.6920E+03
     20.283  0.1454E+02  0.6933E+03
     20.372  0.1310E+02  0.6945E+03
     20.461  0.1157E+02  0.6955E+03
     20.550  0.1001E+02  0.6964E+03
     20.639  0.8482E+01  0.6972E+03
     20.729  0.7030E+01  0.6978E+03
     20.818  0.5706E+01  0.6983E+03
     20.907  0.4542E+01  0.6987E+03
     20.996  0.3553E+01  0.6990E+03
     21.085  0.2737E+01  0.6993E+03
     21.174  0.2081E+01  0.6995E+03
     21.263  0.1566E+01  0.6996E+03
     21.353  0.1168E+01  0.6997E+03
     21.442  0.8644E+00  0.6998E+03
     21.531  0.6362E+00  0.6998E+03
     21.620  0.4658E+00  0.6999E+03
     21.709  0.3395E+00  0.6999E+03
     21.798  0.2462E+00  0.6999E+03
     21.887  0.1776E+00  0.7000E+03
     21.977  0.1272E+00  0.7000E+03
     22.066  0.9049E-01  0.7000E+03
     22.155  0.6367E-01  0.7000E+03
     22.244  0.4420E-01  0.7000E+03
     22.333  0.3008E-01  0.7000E+03
     22.422  0.1985E-01  0.7000E+03
     22.511  0.1245E-01  0.7000E+03
     22.601  0.7189E-02  0.7000E+03
     22.690  0.3646E-02  0.7000E+03
     22.779  0.1505E-02  0.7000E+03
     22.868  0.4626E-03  0.7000E+03
     22.957  0.1040E-03  0.7000E+03
     23.046  0.0000E+00  0.7000E+03
     23.135  0.0000E+00  0.7000E+03
     23.225  0.0000E+00  0.7000E+03
     23.314  0.0000E+00  0.7000E+03
     23.403  0.0000E+00  0.7000E+03
     23.492  0.0000E+00  0.7000E+03
     23.581  0.0000E+00  0.7000E+03
     23.44440846     -3.15481936  301      6.62278777      1.00000000
     -3.155  0.0000E+00  0.0000E+00
     -3.066  0.0000E+00  0.0000E+00
     -2.977  0.0000E+00  0.0000E+00
     -2.889  0.0000E+00  0.0000E+00
     -2.800  0.0000E+00  0.0000E+00
     -2.711  0.0000E+00  0.0000E+00
     -2.623  0.1418E-03  0.1260E-04
     -2.534  0.4456E-03  0.5221E-04
     -2.446  0.7211E-03  0.1163E-03
     -2.357  0.1330E-02  0.2345E-03
     -2.268  0.1814E-02  0.3957E-03
     -2.180  0.2504E-02  0.6182E-03
     -2.091  0.3465E-02  0.9262E-03
     -2.002  0.5132E-02  0.1382E-02
     -1.914  0.7163E-02  0.2019E-02
     -1.825  0.1052E-01  0.2954E-02
     -1.736  0.1484E-01  0.4273E-02
     -1.648  0.2108E-01  0.6147E-02
     -1.559  0.3055E-01  0.8862E-02
     -1.470  0.4368E-01  0.1274E-01
     -1.382  0.6139E-01  0.1820E-01
     -1.293  0.8571E-01  0.2582E-01
     -1.204  0.1182E+00  0.3632E-01
     -1.116  0.1629E+00  0.5081E-01
     -1.027  0.2226E+00  0.7059E-01
     -0.938  0.3028E+00  0.9750E-01
     -0.850  0.4093E+00  0.1339E+00
     -0.761  0.5498E+00  0.1827E+00
     -0.672  0.7328E+00  0.2479E+00
     -0.584  0.9681E+00  0.3339E+00
     -0.495  0.1266E+01  0.4464E+00
     -0.406  0.1638E+01  0.5919E+00
     -0.318  0.2095E+01  0.7781E+00
     -0.229  0.2652E+01  0.1014E+01
     -0.140  0.3323E+01  0.1309E+01
     -0.052  0.4129E+01  0.1676E+01
      0.037  0.5094E+01  0.2129E+01
      0.126  0.6250E+01  0.2684E+01
      0.214  0.7633E+01  0.3363E+01
      0.303  0.9279E+01  0.4187E+01
      0.392  0.1122E+02  0.5185E+01
      0.480  0.1349E+02  0.6383E+01
      0.569  0.1609E+02  0.7813E+01
      0.658  0.1902E+02  0.9503E+01
      0.746  0.2225E+02  0.1148E+02
      0.835  0.2573E+02  0.1377E+02
      0.924  0.2940E+02  0.1638E+02
      1.012  0.3317E+02  0.1933E+02
      1.101  0.3698E+02  0.2261E+02
      1.190  0.4073E+02  0.2623E+02
      1.278  0.4436E+02  0.3018E+02
      1.367  0.4781E+02  0.3443E+02
      1.456  0.5103E+02  0.3896E+02
      1.544  0.5398E+02  0.4376E+02
      1.633  0.5664E+02  0.4879E+02
      1.722  0.5901E+02  0.5403E+02
      1.810  0.6109E+02  0.5946E+02
      1.899  0.6289E+02  0.6505E+02
      1.988  0.6444E+02  0.7078E+02
      2.076  0.6575E+02  0.7662E+02
      2.165  0.6685E+02  0.8256E+02
      2.254  0.6777E+02  0.8859E+02
      2.342  0.6852E+02  0.9468E+02
      2.431  0.6913E+02  0.1008E+03
      2.520  0.6962E+02  0.1070E+03
      2.608  0.7000E+02  0.1132E+03
      2.697  0.7029E+02  0.1195E+03
      2.786  0.7051E+02  0.1257E+03
      2.874  0.7065E+02  0.1320E+03
      2.963  0.7074E+02  0.1383E+03
      3.052  0.7077E+02  0.1446E+03
      3.140  0.7076E+02  0.1509E+03
      3.229  0.7070E+02  0.1572E+03
      3.318  0.7059E+02  0.1634E+03
      3.406  0.7044E+02  0.1697E+03
      3.495  0.7024E+02  0.1759E+03
      3.584  0.7000E+02  0.1822E+03
      3.672  0.6972E+02  0.1884E+03
      3.761  0.6939E+02  0.1945E+03
      3.850  0.6903E+02  0.2007E+03
      3.938  0.6865E+02  0.2068E+03
      4.027  0.6823E+02  0.2128E+03
      4.116  0.6781E+02  0.2189E+03
      4.204  0.6737E+02  0.2249E+03
      4.293  0.6693E+02  0.2308E+03
      4.382  0.6650E+02  0.2367E+03
      4.470  0.6608E+02  0.2426E+03
      4.559  0.6568E+02  0.2484E+03
      4.648  0.6530E+02  0.2542E+03
      4.736  0.6496E+02  0.2600E+03
      4.825  0.6465E+02  0.2658E+03
      4.914  0.6438E+02  0.2715E+03
      5.002  0.6415E+02  0.2772E+03
      5.091  0.6397E+02  0.2829E+03
      5.180  0.6383E+02  0.2886E+03
      5.268  0.6374E+02  0.2942E+03
      5.357  0.6370E+02  0.2999E+03
      5.446  0.6372E+02  0.3056E+03
      5.534  0.6378E+02  0.3112E+03
      5.623  0.6390E+02  0.3169E+03
      5.712  0.6407E+02  0.3226E+03
      5.800  0.6430E+02  0.3283E+03
      5.889  0.6459E+02  0.3341E+03
      5.978  0.6493E+02  0.3398E+03
      6.066  0.6533E+02  0.3456E+03
      6.155  0.6578E+02  0.3515E+03
      6.244  0.6627E+02  0.3574E+03
      6.332  0.6679E+02  0.3633E+03
      6.421  0.6734E+02  0.3693E+03
      6.510  0.6789E+02  0.3753E+03
      6.598  0.6843E+02  0.3814E+03
      6.687  0.6893E+02  0.3876E+03
      6.776  0.6939E+02  0.3937E+03
      6.864  0.6977E+02  0.3999E+03
      6.953  0.7006E+02  0.4062E+03
      7.042  0.7021E+02  0.4124E+03
      7.130  0.7021E+02  0.4186E+03
      7.219  0.7003E+02  0.4249E+03
      7.308  0.6963E+02  0.4311E+03
      7.396  0.6898E+02  0.4372E+03
      7.485  0.6808E+02  0.4432E+03
      7.574  0.6688E+02  0.4492E+03
      7.662  0.6539E+02  0.4550E+03
      7.751  0.6358E+02  0.4606E+03
      7.840  0.6148E+02  0.4661E+03
      7.928  0.5909E+02  0.4714E+03
      8.017  0.5644E+02  0.4764E+03
      8.106  0.5356E+02  0.4811E+03
      8.194  0.5050E+02  0.4856E+03
      8.283  0.4731E+02  0.4898E+03
      8.372  0.4405E+02  0.4938E+03
      8.460  0.4079E+02  0.4974E+03
      8.549  0.3759E+02  0.5007E+03
      8.638  0.3452E+02  0.5038E+03
      8.726  0.3164E+02  0.5066E+03
      8.815  0.2900E+02  0.5092E+03
      8.903  0.2662E+02  0.5116E+03
      8.992  0.2453E+02  0.5137E+03
      9.081  0.2273E+02  0.5158E+03
      9.169  0.2120E+02  0.5177E+03
      9.258  0.1992E+02  0.5194E+03
      9.347  0.1886E+02  0.5211E+03
      9.435  0.1799E+02  0.5227E+03
      9.524  0.1728E+02  0.5242E+03
      9.613  0.1668E+02  0.5257E+03
      9.701  0.1618E+02  0.5272E+03
      9.790  0.1575E+02  0.5286E+03
      9.879  0.1537E+02  0.5299E+03
      9.967  0.1503E+02  0.5313E+03
     10.056  0.1471E+02  0.5326E+03
     10.145  0.1442E+02  0.5339E+03
     10.233  0.1413E+02  0.5351E+03
     10.322  0.1386E+02  0.5364E+03
     10.411  0.1361E+02  0.5376E+03
     10.499  0.1336E+02  0.5388E+03
     10.588  0.1314E+02  0.5399E+03
     10.677  0.1294E+02  0.5411E+03
     10.765  0.1276E+02  0.5422E+03
     10.854  0.1261E+02  0.5433E+03
     10.943  0.1250E+02  0.5445E+03
     11.031  0.1241E+02  0.5456E+03
     11.120  0.1236E+02  0.5467E+03
     11.209  0.1234E+02  0.5478E+03
     11.297  0.1233E+02  0.5489E+03
     11.386  0.1235E+02  0.5499E+03
     11.475  0.1238E+02  0.5510E+03
     11.563  0.1242E+02  0.5522E+03
     11.652  0.1245E+02  0.5533E+03
     11.741  0.1247E+02  0.5544E+03
     11.829  0.1248E+02  0.5555E+03
     11.918  0.1247E+02  0.5566E+03
     12.007  0.1243E+02  0.5577E+03
     12.095  0.1239E+02  0.5588E+03
     12.184  0.1233E+02  0.5599E+03
     12.273  0.1227E+02  0.5610E+03
     12.361  0.1222E+02  0.5621E+03
     12.450  0.1218E+02  0.5632E+03
     12.539  0.1216E+02  0.5642E+03
     12.627  0.1216E+02  0.5653E+03
     12.716  0.1218E+02  0.5664E+03
     12.805  0.1222E+02  0.5675E+03
     12.893  0.1227E+02  0.5686E+03
     12.982  0.1232E+02  0.5697E+03
     13.071  0.1238E+02  0.5708E+03
     13.159  0.1245E+02  0.5719E+03
     13.248  0.1251E+02  0.5730E+03
     13.337  0.1258E+02  0.5741E+03
     13.425  0.1266E+02  0.5752E+03
     13.514  0.1273E+02  0.5764E+03
     13.603  0.1282E+02  0.5775E+03
     13.691  0.1290E+02  0.5787E+03
     13.780  0.1299E+02  0.5798E+03
     13.869  0.1308E+02  0.5810E+03
     13.957  0.1318E+02  0.5821E+03
     14.046  0.1328E+02  0.5833E+03
     14.135  0.1339E+02  0.5845E+03
     14.223  0.1351E+02  0.5857E+03
     14.312  0.1364E+02  0.5869E+03
     14.401  0.1378E+02  0.5882E+03
     14.489  0.1393E+02  0.5894E+03
     14.578  0.1408E+02  0.5906E+03
     14.667  0.1424E+02  0.5919E+03
     14.755  0.1440E+02  0.5932E+03
     14.844  0.1457E+02  0.5945E+03
     14.933  0.1474E+02  0.5958E+03
     15.021  0.1490E+02  0.5971E+03
     15.110  0.1507E+02  0.5985E+03
     15.199  0.1523E+02  0.5998E+03
     15.287  0.1539E+02  0.6012E+03
     15.376  0.1553E+02  0.6026E+03
     15.465  0.1567E+02  0.6040E+03
     15.553  0.1580E+02  0.6054E+03
     15.642  0.1593E+02  0.6068E+03
     15.731  0.1604E+02  0.6082E+03
     15.819  0.1616E+02  0.6096E+03
     15.908  0.1627E+02  0.6111E+03
     15.997  0.1638E+02  0.6125E+03
     16.085  0.1650E+02  0.6140E+03
     16.174  0.1663E+02  0.6155E+03
     16.263  0.1676E+02  0.6170E+03
     16.351  0.1690E+02  0.6185E+03
     16.440  0.1705E+02  0.6200E+03
     16.529  0.1720E+02  0.6215E+03
     16.617  0.1736E+02  0.6231E+03
     16.706  0.1753E+02  0.6246E+03
     16.795  0.1770E+02  0.6262E+03
     16.883  0.1788E+02  0.6278E+03
     16.972  0.1805E+02  0.6294E+03
     17.061  0.1823E+02  0.6310E+03
     17.149  0.1840E+02  0.6326E+03
     17.238  0.1857E+02  0.6343E+03
     17.327  0.1875E+02  0.6360E+03
     17.415  0.1892E+02  0.6376E+03
     17.504  0.1909E+02  0.6393E+03
     17.593  0.1926E+02  0.6411E+03
     17.681  0.1943E+02  0.6428E+03
     17.770  0.1961E+02  0.6445E+03
     17.859  0.1978E+02  0.6463E+03
     17.947  0.1995E+02  0.6481E+03
     18.036  0.2011E+02  0.6498E+03
     18.125  0.2027E+02  0.6516E+03
     18.213  0.2042E+02  0.6535E+03
     18.302  0.2056E+02  0.6553E+03
     18.391  0.2070E+02  0.6571E+03
     18.479  0.2083E+02  0.6590E+03
     18.568  0.2095E+02  0.6608E+03
     18.657  0.2107E+02  0.6627E+03
     18.745  0.2118E+02  0.6646E+03
     18.834  0.2129E+02  0.6665E+03
     18.923  0.2138E+02  0.6684E+03
     19.011  0.2145E+02  0.6703E+03
     19.100  0.2149E+02  0.6722E+03
     19.189  0.2149E+02  0.6741E+03
     19.277  0.2145E+02  0.6760E+03
     19.366  0.2133E+02  0.6779E+03
     19.455  0.2114E+02  0.6798E+03
     19.543  0.2085E+02  0.6817E+03
     19.632  0.2045E+02  0.6835E+03
     19.721  0.1992E+02  0.6852E+03
     19.809  0.1926E+02  0.6870E+03
     19.898  0.1844E+02  0.6886E+03
     19.987  0.1746E+02  0.6901E+03
     20.075  0.1633E+02  0.6916E+03
     20.164  0.1504E+02  0.6929E+03
     20.253  0.1363E+02  0.6941E+03
     20.341  0.1211E+02  0.6952E+03
     20.430  0.1055E+02  0.6962E+03
     20.518  0.8988E+01  0.6970E+03
     20.607  0.7492E+01  0.6976E+03
     20.696  0.6113E+01  0.6982E+03
     20.784  0.4889E+01  0.6986E+03
     20.873  0.3839E+01  0.6990E+03
     20.962  0.2967E+01  0.6992E+03
     21.050  0.2263E+01  0.6994E+03
     21.139  0.1706E+01  0.6996E+03
     21.228  0.1275E+01  0.6997E+03
     21.316  0.9451E+00  0.6998E+03
     21.405  0.6966E+00  0.6998E+03
     21.494  0.5107E+00  0.6999E+03
     21.582  0.3726E+00  0.6999E+03
     21.671  0.2706E+00  0.6999E+03
     21.760  0.1955E+00  0.7000E+03
     21.848  0.1404E+00  0.7000E+03
     21.937  0.1000E+00  0.7000E+03
     22.026  0.7059E-01  0.7000E+03
     22.114  0.4921E-01  0.7000E+03
     22.203  0.3371E-01  0.7000E+03
     22.292  0.2250E-01  0.7000E+03
     22.380  0.1434E-01  0.7000E+03
     22.469  0.8485E-02  0.7000E+03
     22.558  0.4426E-02  0.7000E+03
     22.646  0.1876E-02  0.7000E+03
     22.735  0.5945E-03  0.7000E+03
     22.824  0.1293E-03  0.7000E+03
     22.912  0.0000E+00  0.7000E+03
     23.001  0.0000E+00  0.7000E+03
     23.090  0.0000E+00  0.7000E+03
     23.178  0.0000E+00  0.7000E+03
     23.267  0.0000E+00  0.7000E+03
     23.356  0.0000E+00  0.7000E+03
     23.444  0.0000E+00  0.7000E+03
     23.46338068     -3.11617811  301      6.65031304      1.00000000
     -3.116  0.0000E+00  0.0000E+00
     -3.028  0.0000E+00  0.0000E+00
     -2.939  0.0000E+00  0.0000E+00
     -2.850  0.0000E+00  0.0000E+00
     -2.762  0.0000E+00  0.0000E+00
     -2.673  0.0000E+00  0.0000E+00
     -2.585  0.1393E-03  0.1237E-04
     -2.496  0.4447E-03  0.5184E-04
     -2.407  0.6847E-03  0.1126E-03
     -2.319  0.1310E-02  0.2289E-03
     -2.230  0.1731E-02  0.3826E-03
     -2.142  0.2557E-02  0.6096E-03
     -2.053  0.3590E-02  0.9282E-03
     -1.964  0.5220E-02  0.1392E-02
     -1.876  0.7186E-02  0.2029E-02
     -1.787  0.1045E-01  0.2957E-02
     -1.699  0.1453E-01  0.4247E-02
     -1.610  0.2084E-01  0.6097E-02
     -1.521  0.2961E-01  0.8726E-02
     -1.433  0.4225E-01  0.1248E-01
     -1.344  0.5967E-01  0.1777E-01
     -1.256  0.8329E-01  0.2517E-01
     -1.167  0.1160E+00  0.3546E-01
     -1.078  0.1598E+00  0.4965E-01
     -0.990  0.2188E+00  0.6907E-01
     -0.901  0.2973E+00  0.9546E-01
     -0.813  0.4017E+00  0.1311E+00
     -0.724  0.5393E+00  0.1790E+00
     -0.635  0.7185E+00  0.2428E+00
     -0.547  0.9491E+00  0.3270E+00
     -0.458  0.1241E+01  0.4372E+00
     -0.370  0.1606E+01  0.5798E+00
     -0.281  0.2053E+01  0.7620E+00
     -0.192  0.2597E+01  0.9926E+00
     -0.104  0.3250E+01  0.1281E+01
     -0.015  0.4031E+01  0.1639E+01
      0.073  0.4964E+01  0.2080E+01
      0.162  0.6075E+01  0.2619E+01
      0.251  0.7402E+01  0.3276E+01
      0.339  0.8981E+01  0.4073E+01
      0.428  0.1085E+02  0.5037E+01
      0.516  0.1305E+02  0.6195E+01
      0.605  0.1560E+02  0.7580E+01
      0.694  0.1850E+02  0.9222E+01
      0.782  0.2175E+02  0.1115E+02
      0.871  0.2530E+02  0.1340E+02
      0.959  0.2909E+02  0.1598E+02
      1.048  0.3304E+02  0.1891E+02
      1.137  0.3704E+02  0.2220E+02
      1.225  0.4101E+02  0.2584E+02
      1.314  0.4484E+02  0.2982E+02
      1.402  0.4846E+02  0.3412E+02
      1.491  0.5183E+02  0.3872E+02
      1.580  0.5488E+02  0.4360E+02
      1.668  0.5762E+02  0.4871E+02
      1.757  0.6003E+02  0.5404E+02
      1.845  0.6213E+02  0.5955E+02
      1.934  0.6392E+02  0.6523E+02
      2.023  0.6543E+02  0.7103E+02
      2.111  0.6669E+02  0.7695E+02
      2.200  0.6771E+02  0.8296E+02
      2.288  0.6853E+02  0.8905E+02
      2.377  0.6916E+02  0.9519E+02
      2.466  0.6964E+02  0.1014E+03
      2.554  0.6999E+02  0.1076E+03
      2.643  0.7023E+02  0.1138E+03
      2.731  0.7039E+02  0.1201E+03
      2.820  0.7047E+02  0.1263E+03
      2.909  0.7050E+02  0.1326E+03
      2.997  0.7049E+02  0.1388E+03
      3.086  0.7044E+02  0.1451E+03
      3.174  0.7036E+02  0.1513E+03
      3.263  0.7026E+02  0.1576E+03
      3.352  0.7013E+02  0.1638E+03
      3.440  0.6997E+02  0.1700E+03
      3.529  0.6978E+02  0.1762E+03
      3.617  0.6957E+02  0.1824E+03
      3.706  0.6933E+02  0.1885E+03
      3.795  0.6907E+02  0.1947E+03
      3.883  0.6879E+02  0.2008E+03
      3.972  0.6850E+02  0.2069E+03
      4.060  0.6819E+02  0.2129E+03
      4.149  0.6787E+02  0.2189E+03
      4.237  0.6754E+02  0.2249E+03
      4.326  0.6720E+02  0.2309E+03
      4.415  0.6685E+02  0.2368E+03
      4.503  0.6650E+02  0.2427E+03
      4.592  0.6615E+02  0.2486E+03
      4.680  0.6581E+02  0.2545E+03
      4.769  0.6549E+02  0.2603E+03
      4.858  0.6519E+02  0.2661E+03
      4.946  0.6492E+02  0.2718E+03
      5.035  0.6468E+02  0.2776E+03
      5.123  0.6448E+02  0.2833E+03
      5.212  0.6431E+02  0.2890E+03
      5.301  0.6419E+02  0.2947E+03
      5.389  0.6411E+02  0.3004E+03
      5.478  0.6408E+02  0.3061E+03
      5.566  0.6410E+02  0.3118E+03
      5.655  0.6417E+02  0.3175E+03
      5.744  0.6430E+02  0.3232E+03
      5.832  0.6449E+02  0.3289E+03
      5.921  0.6475E+02  0.3347E+03
      6.009  0.6506E+02  0.3404E+03
      6.098  0.6544E+02  0.3463E+03
      6.187  0.6587E+02  0.3521E+03
      6.275  0.6635E+02  0.3580E+03
      6.364  0.6686E+02  0.3639E+03
      6.452  0.6739E+02  0.3699E+03
      6.541  0.6792E+02  0.3760E+03
      6.630  0.6844E+02  0.3820E+03
      6.718  0.6892E+02  0.3881E+03
      6.807  0.6934E+02  0.3943E+03
      6.895  0.6969E+02  0.4005E+03
      6.984  0.6993E+02  0.4067E+03
      7.073  0.7004E+02  0.4129E+03
      7.161  0.7000E+02  0.4191E+03
      7.250  0.6979E+02  0.4253E+03
      7.338  0.6937E+02  0.4315E+03
      7.427  0.6873E+02  0.4376E+03
      7.516  0.6784E+02  0.4436E+03
      7.604  0.6667E+02  0.4495E+03
      7.693  0.6522E+02  0.4553E+03
      7.781  0.6347E+02  0.4610E+03
      7.870  0.6142E+02  0.4664E+03
      7.959  0.5908E+02  0.4717E+03
      8.047  0.5646E+02  0.4767E+03
      8.136  0.5359E+02  0.4814E+03
      8.224  0.5053E+02  0.4859E+03
      8.313  0.4732E+02  0.4901E+03
      8.402  0.4402E+02  0.4940E+03
      8.490  0.4071E+02  0.4977E+03
      8.579  0.3746E+02  0.5010E+03
      8.667  0.3435E+02  0.5040E+03
      8.756  0.3143E+02  0.5068E+03
      8.845  0.2877E+02  0.5094E+03
      8.933  0.2639E+02  0.5117E+03
      9.022  0.2431E+02  0.5139E+03
      9.110  0.2252E+02  0.5159E+03
      9.199  0.2101E+02  0.5178E+03
      9.288  0.1976E+02  0.5195E+03
      9.376  0.1872E+02  0.5212E+03
      9.465  0.1787E+02  0.5228E+03
      9.553  0.1717E+02  0.5243E+03
      9.642  0.1658E+02  0.5258E+03
      9.731  0.1609E+02  0.5272E+03
      9.819  0.1566E+02  0.5286E+03
      9.908  0.1528E+02  0.5299E+03
      9.996  0.1495E+02  0.5313E+03
     10.085  0.1464E+02  0.5326E+03
     10.174  0.1436E+02  0.5339E+03
     10.262  0.1411E+02  0.5351E+03
     10.351  0.1388E+02  0.5363E+03
     10.439  0.1367E+02  0.5376E+03
     10.528  0.1349E+02  0.5388E+03
     10.617  0.1333E+02  0.5399E+03
     10.705  0.1320E+02  0.5411E+03
     10.794  0.1310E+02  0.5423E+03
     10.882  0.1301E+02  0.5434E+03
     10.971  0.1295E+02  0.5446E+03
     11.060  0.1291E+02  0.5457E+03
     11.148  0.1287E+02  0.5469E+03
     11.237  0.1285E+02  0.5480E+03
     11.325  0.1282E+02  0.5492E+03
     11.414  0.1279E+02  0.5503E+03
     11.503  0.1276E+02  0.5514E+03
     11.591  0.1272E+02  0.5526E+03
     11.680  0.1267E+02  0.5537E+03
     11.768  0.1260E+02  0.5548E+03
     11.857  0.1253E+02  0.5559E+03
     11.946  0.1245E+02  0.5570E+03
     12.034  0.1236E+02  0.5581E+03
     12.123  0.1225E+02  0.5592E+03
     12.211  0.1215E+02  0.5603E+03
     12.300  0.1204E+02  0.5614E+03
     12.389  0.1194E+02  0.5624E+03
     12.477  0.1186E+02  0.5635E+03
     12.566  0.1179E+02  0.5645E+03
     12.654  0.1174E+02  0.5656E+03
     12.743  0.1172E+02  0.5666E+03
     12.832  0.1171E+02  0.5676E+03
     12.920  0.1173E+02  0.5687E+03
     13.009  0.1177E+02  0.5697E+03
     13.097  0.1183E+02  0.5708E+03
     13.186  0.1191E+02  0.5718E+03
     13.275  0.1200E+02  0.5729E+03
     13.363  0.1210E+02  0.5740E+03
     13.452  0.1222E+02  0.5751E+03
     13.540  0.1234E+02  0.5762E+03
     13.629  0.1247E+02  0.5773E+03
     13.718  0.1261E+02  0.5784E+03
     13.806  0.1275E+02  0.5795E+03
     13.895  0.1290E+02  0.5807E+03
     13.983  0.1304E+02  0.5818E+03
     14.072  0.1318E+02  0.5830E+03
     14.161  0.1333E+02  0.5842E+03
     14.249  0.1348E+02  0.5854E+03
     14.338  0.1362E+02  0.5866E+03
     14.426  0.1377E+02  0.5878E+03
     14.515  0.1392E+02  0.5890E+03
     14.604  0.1407E+02  0.5903E+03
     14.692  0.1423E+02  0.5915E+03
     14.781  0.1439E+02  0.5928E+03
     14.869  0.1455E+02  0.5941E+03
     14.958  0.1472E+02  0.5954E+03
     15.047  0.1490E+02  0.5967E+03
     15.135  0.1509E+02  0.5981E+03
     15.224  0.1528E+02  0.5994E+03
     15.312  0.1547E+02  0.6008E+03
     15.401  0.1565E+02  0.6022E+03
     15.490  0.1584E+02  0.6036E+03
     15.578  0.1601E+02  0.6050E+03
     15.667  0.1618E+02  0.6065E+03
     15.755  0.1634E+02  0.6079E+03
     15.844  0.1648E+02  0.6094E+03
     15.933  0.1661E+02  0.6109E+03
     16.021  0.1673E+02  0.6123E+03
     16.110  0.1684E+02  0.6138E+03
     16.198  0.1695E+02  0.6153E+03
     16.287  0.1705E+02  0.6169E+03