  48  48   0   0
  0.1647849E+02  0.7164579E-09  0.1001836E-08  0.1173839E-08  0.1500000E-14
   3000.00000000000     
  CAR 
 Ir_Ru                                   
     23.52413474     -3.17130134  301      6.60418958      1.00000000
     -3.171  0.0000E+00  0.0000E+00
     -3.082  0.0000E+00  0.0000E+00
     -2.993  0.0000E+00  0.0000E+00
     -2.904  0.0000E+00  0.0000E+00
     -2.815  0.0000E+00  0.0000E+00
     -2.726  0.0000E+00  0.0000E+00
     -2.637  0.8558E-03  0.7591E-04
     -2.548  0.3188E-03  0.1042E-03
     -2.459  0.7820E-03  0.1736E-03
     -2.370  0.1196E-02  0.2797E-03
     -2.281  0.1785E-02  0.4381E-03
     -2.192  0.2851E-02  0.6909E-03
     -2.103  0.4076E-02  0.1052E-02
     -2.014  0.5474E-02  0.1538E-02
     -1.926  0.7224E-02  0.2179E-02
     -1.837  0.1014E-01  0.3078E-02
     -1.748  0.1565E-01  0.4466E-02
     -1.659  0.2223E-01  0.6438E-02
     -1.570  0.3172E-01  0.9252E-02
     -1.481  0.4476E-01  0.1322E-01
     -1.392  0.6286E-01  0.1880E-01
     -1.303  0.8777E-01  0.2658E-01
     -1.214  0.1208E+00  0.3730E-01
     -1.125  0.1652E+00  0.5196E-01
     -1.036  0.2246E+00  0.7188E-01
     -0.947  0.3041E+00  0.9886E-01
     -0.858  0.4078E+00  0.1350E+00
     -0.769  0.5424E+00  0.1831E+00
     -0.680  0.7147E+00  0.2466E+00
     -0.591  0.9329E+00  0.3293E+00
     -0.502  0.1205E+01  0.4362E+00
     -0.413  0.1543E+01  0.5731E+00
     -0.324  0.1957E+01  0.7467E+00
     -0.235  0.2462E+01  0.9651E+00
     -0.146  0.3078E+01  0.1238E+01
     -0.057  0.3827E+01  0.1578E+01
      0.032  0.4738E+01  0.1998E+01
      0.121  0.5844E+01  0.2516E+01
      0.210  0.7180E+01  0.3153E+01
      0.299  0.8787E+01  0.3933E+01
      0.388  0.1070E+02  0.4882E+01
      0.477  0.1295E+02  0.6030E+01
      0.566  0.1554E+02  0.7409E+01
      0.655  0.1847E+02  0.9048E+01
      0.744  0.2172E+02  0.1097E+02
      0.833  0.2522E+02  0.1321E+02
      0.922  0.2893E+02  0.1578E+02
      1.011  0.3275E+02  0.1868E+02
      1.100  0.3661E+02  0.2193E+02
      1.189  0.4042E+02  0.2552E+02
      1.278  0.4413E+02  0.2943E+02
      1.367  0.4765E+02  0.3366E+02
      1.456  0.5094E+02  0.3817E+02
      1.545  0.5396E+02  0.4296E+02
      1.634  0.5669E+02  0.4799E+02
      1.723  0.5913E+02  0.5323E+02
      1.812  0.6127E+02  0.5867E+02
      1.901  0.6313E+02  0.6427E+02
      1.990  0.6471E+02  0.7001E+02
      2.079  0.6605E+02  0.7586E+02
      2.168  0.6716E+02  0.8182E+02
      2.257  0.6806E+02  0.8786E+02
      2.346  0.6878E+02  0.9396E+02
      2.435  0.6935E+02  0.1001E+03
      2.524  0.6978E+02  0.1063E+03
      2.613  0.7010E+02  0.1125E+03
      2.702  0.7033E+02  0.1188E+03
      2.791  0.7048E+02  0.1250E+03
      2.880  0.7057E+02  0.1313E+03
      2.969  0.7060E+02  0.1375E+03
      3.058  0.7059E+02  0.1438E+03
      3.147  0.7054E+02  0.1500E+03
      3.236  0.7045E+02  0.1563E+03
      3.325  0.7033E+02  0.1625E+03
      3.414  0.7018E+02  0.1688E+03
      3.503  0.6999E+02  0.1750E+03
      3.592  0.6977E+02  0.1812E+03
      3.681  0.6951E+02  0.1873E+03
      3.770  0.6923E+02  0.1935E+03
      3.858  0.6891E+02  0.1996E+03
      3.947  0.6858E+02  0.2057E+03
      4.036  0.6824E+02  0.2117E+03
      4.125  0.6788E+02  0.2177E+03
      4.214  0.6751E+02  0.2237E+03
      4.303  0.6715E+02  0.2297E+03
      4.392  0.6677E+02  0.2356E+03
      4.481  0.6640E+02  0.2415E+03
      4.570  0.6604E+02  0.2474E+03
      4.659  0.6568E+02  0.2532E+03
      4.748  0.6533E+02  0.2590E+03
      4.837  0.6500E+02  0.2648E+03
      4.926  0.6471E+02  0.2705E+03
      5.015  0.6445E+02  0.2762E+03
      5.104  0.6423E+02  0.2819E+03
      5.193  0.6406E+02  0.2876E+03
      5.282  0.6393E+02  0.2933E+03
      5.371  0.6385E+02  0.2989E+03
      5.460  0.6381E+02  0.3046E+03
      5.549  0.6383E+02  0.3103E+03
      5.638  0.6391E+02  0.3159E+03
      5.727  0.6404E+02  0.3216E+03
      5.816  0.6424E+02  0.3273E+03
      5.905  0.6451E+02  0.3331E+03
      5.994  0.6484E+02  0.3388E+03
      6.083  0.6525E+02  0.3446E+03
      6.172  0.6571E+02  0.3504E+03
      6.261  0.6623E+02  0.3563E+03
      6.350  0.6680E+02  0.3622E+03
      6.439  0.6739E+02  0.3682E+03
      6.528  0.6800E+02  0.3742E+03
      6.617  0.6859E+02  0.3803E+03
      6.706  0.6915E+02  0.3865E+03
      6.795  0.6965E+02  0.3926E+03
      6.884  0.7007E+02  0.3989E+03
      6.973  0.7037E+02  0.4051E+03
      7.062  0.7054E+02  0.4114E+03
      7.151  0.7053E+02  0.4176E+03
      7.240  0.7033E+02  0.4239E+03
      7.329  0.6991E+02  0.4301E+03
      7.418  0.6924E+02  0.4362E+03
      7.507  0.6831E+02  0.4423E+03
      7.596  0.6709E+02  0.4482E+03
      7.685  0.6559E+02  0.4540E+03
      7.774  0.6381E+02  0.4597E+03
      7.863  0.6175E+02  0.4652E+03
      7.952  0.5944E+02  0.4705E+03
      8.041  0.5690E+02  0.4755E+03
      8.130  0.5414E+02  0.4803E+03
      8.219  0.5122E+02  0.4849E+03
      8.308  0.4816E+02  0.4891E+03
      8.397  0.4500E+02  0.4931E+03
      8.486  0.4180E+02  0.4968E+03
      8.575  0.3862E+02  0.5003E+03
      8.664  0.3552E+02  0.5034E+03
      8.753  0.3256E+02  0.5063E+03
      8.842  0.2978E+02  0.5089E+03
      8.931  0.2725E+02  0.5114E+03
      9.020  0.2497E+02  0.5136E+03
      9.109  0.2296E+02  0.5156E+03
      9.198  0.2122E+02  0.5175E+03
      9.287  0.1973E+02  0.5193E+03
      9.376  0.1847E+02  0.5209E+03
      9.465  0.1741E+02  0.5224E+03
      9.554  0.1654E+02  0.5239E+03
      9.643  0.1584E+02  0.5253E+03
      9.731  0.1528E+02  0.5267E+03
      9.820  0.1486E+02  0.5280E+03
      9.909  0.1454E+02  0.5293E+03
      9.998  0.1432E+02  0.5306E+03
     10.087  0.1418E+02  0.5318E+03
     10.176  0.1410E+02  0.5331E+03
     10.265  0.1406E+02  0.5343E+03
     10.354  0.1403E+02  0.5356E+03
     10.443  0.1399E+02  0.5368E+03
     10.532  0.1394E+02  0.5381E+03
     10.621  0.1386E+02  0.5393E+03
     10.710  0.1376E+02  0.5405E+03
     10.799  0.1362E+02  0.5417E+03
     10.888  0.1347E+02  0.5429E+03
     10.977  0.1330E+02  0.5441E+03
     11.066  0.1312E+02  0.5453E+03
     11.155  0.1295E+02  0.5464E+03
     11.244  0.1280E+02  0.5475E+03
     11.333  0.1266E+02  0.5487E+03
     11.422  0.1255E+02  0.5498E+03
     11.511  0.1247E+02  0.5509E+03
     11.600  0.1241E+02  0.5520E+03
     11.689  0.1239E+02  0.5531E+03
     11.778  0.1240E+02  0.5542E+03
     11.867  0.1242E+02  0.5553E+03
     11.956  0.1247E+02  0.5564E+03
     12.045  0.1252E+02  0.5575E+03
     12.134  0.1258E+02  0.5586E+03
     12.223  0.1263E+02  0.5597E+03
     12.312  0.1268E+02  0.5609E+03
     12.401  0.1270E+02  0.5620E+03
     12.490  0.1271E+02  0.5631E+03
     12.579  0.1270E+02  0.5643E+03
     12.668  0.1267E+02  0.5654E+03
     12.757  0.1263E+02  0.5665E+03
     12.846  0.1258E+02  0.5676E+03
     12.935  0.1254E+02  0.5687E+03
     13.024  0.1250E+02  0.5698E+03
     13.113  0.1246E+02  0.5709E+03
     13.202  0.1244E+02  0.5720E+03
     13.291  0.1241E+02  0.5731E+03
     13.380  0.1238E+02  0.5742E+03
     13.469  0.1236E+02  0.5753E+03
     13.558  0.1235E+02  0.5764E+03
     13.647  0.1235E+02  0.5775E+03
     13.736  0.1237E+02  0.5786E+03
     13.825  0.1241E+02  0.5797E+03
     13.914  0.1248E+02  0.5808E+03
     14.003  0.1258E+02  0.5820E+03
     14.092  0.1270E+02  0.5831E+03
     14.181  0.1285E+02  0.5842E+03
     14.270  0.1301E+02  0.5854E+03
     14.359  0.1318E+02  0.5865E+03
     14.448  0.1336E+02  0.5877E+03
     14.537  0.1353E+02  0.5889E+03
     14.626  0.1370E+02  0.5901E+03
     14.715  0.1385E+02  0.5914E+03
     14.804  0.1400E+02  0.5926E+03
     14.893  0.1413E+02  0.5939E+03
     14.982  0.1426E+02  0.5951E+03
     15.071  0.1438E+02  0.5964E+03
     15.160  0.1452E+02  0.5977E+03
     15.249  0.1466E+02  0.5990E+03
     15.338  0.1482E+02  0.6003E+03
     15.427  0.1500E+02  0.6016E+03
     15.516  0.1520E+02  0.6030E+03
     15.604  0.1542E+02  0.6044E+03
     15.693  0.1564E+02  0.6058E+03
     15.782  0.1587E+02  0.6072E+03
     15.871  0.1610E+02  0.6086E+03
     15.960  0.1633E+02  0.6100E+03
     16.049  0.1656E+02  0.6115E+03
     16.138  0.1678E+02  0.6130E+03
     16.227  0.1700E+02  0.6145E+03
     16.316  0.1720E+02  0.6160E+03
     16.405  0.1740E+02  0.6176E+03
     16.494  0.1757E+02  0.6191E+03
     16.583  0.1773E+02  0.6207E+03
     16.672  0.1787E+02  0.6223E+03
     16.761  0.1799E+02  0.6239E+03
     16.850  0.1809E+02  0.6255E+03
     16.939  0.1818E+02  0.6271E+03
     17.028  0.1826E+02  0.6287E+03
     17.117  0.1835E+02  0.6304E+03
     17.206  0.1844E+02  0.6320E+03
     17.295  0.1855E+02  0.6336E+03
     17.384  0.1867E+02  0.6353E+03
     17.473  0.1880E+02  0.6370E+03
     17.562  0.1896E+02  0.6386E+03
     17.651  0.1913E+02  0.6403E+03
     17.740  0.1933E+02  0.6421E+03
     17.829  0.1954E+02  0.6438E+03
     17.918  0.1977E+02  0.6455E+03
     18.007  0.2000E+02  0.6473E+03
     18.096  0.2024E+02  0.6491E+03
     18.185  0.2048E+02  0.6509E+03
     18.274  0.2072E+02  0.6528E+03
     18.363  0.2094E+02  0.6546E+03
     18.452  0.2115E+02  0.6565E+03
     18.541  0.2134E+02  0.6584E+03
     18.630  0.2151E+02  0.6603E+03
     18.719  0.2166E+02  0.6622E+03
     18.808  0.2178E+02  0.6642E+03
     18.897  0.2186E+02  0.6661E+03
     18.986  0.2191E+02  0.6680E+03
     19.075  0.2191E+02  0.6700E+03
     19.164  0.2187E+02  0.6719E+03
     19.253  0.2179E+02  0.6739E+03
     19.342  0.2165E+02  0.6758E+03
     19.431  0.2145E+02  0.6777E+03
     19.520  0.2118E+02  0.6796E+03
     19.609  0.2082E+02  0.6814E+03
     19.698  0.2038E+02  0.6832E+03
     19.787  0.1982E+02  0.6850E+03
     19.876  0.1914E+02  0.6867E+03
     19.965  0.1833E+02  0.6883E+03
     20.054  0.1738E+02  0.6898E+03
     20.143  0.1628E+02  0.6913E+03
     20.232  0.1506E+02  0.6926E+03
     20.321  0.1371E+02  0.6938E+03
     20.410  0.1227E+02  0.6949E+03
     20.499  0.1078E+02  0.6959E+03
     20.588  0.9288E+01  0.6967E+03
     20.677  0.7839E+01  0.6974E+03
     20.766  0.6483E+01  0.6980E+03
     20.855  0.5257E+01  0.6984E+03
     20.944  0.4184E+01  0.6988E+03
     21.033  0.3274E+01  0.6991E+03
     21.122  0.2524E+01  0.6993E+03
     21.211  0.1921E+01  0.6995E+03
     21.300  0.1447E+01  0.6996E+03
     21.388  0.1080E+01  0.6997E+03
     21.477  0.8005E+00  0.6998E+03
     21.566  0.5896E+00  0.6999E+03
     21.655  0.4319E+00  0.6999E+03
     21.744  0.3150E+00  0.6999E+03
     21.833  0.2285E+00  0.6999E+03
     21.922  0.1648E+00  0.7000E+03
     22.011  0.1181E+00  0.7000E+03
     22.100  0.8403E-01  0.7000E+03
     22.189  0.5907E-01  0.7000E+03
     22.278  0.4093E-01  0.7000E+03
     22.367  0.2781E-01  0.7000E+03
     22.456  0.1825E-01  0.7000E+03
     22.545  0.1142E-01  0.7000E+03
     22.634  0.6653E-02  0.7000E+03
     22.723  0.3545E-02  0.7000E+03
     22.812  0.1674E-02  0.7000E+03
     22.901  0.6855E-03  0.7000E+03
     22.990  0.0000E+00  0.7000E+03
     23.079  0.0000E+00  0.7000E+03
     23.168  0.0000E+00  0.7000E+03
     23.257  0.0000E+00  0.7000E+03
     23.346  0.0000E+00  0.7000E+03
     23.435  0.0000E+00  0.7000E+03
     23.524  0.0000E+00  0.7000E+03
     23.49156235     -3.12527754  301      6.63526165      1.00000000
     -3.125  0.0000E+00  0.0000E+00
     -3.037  0.0000E+00  0.0000E+00
     -2.948  0.0000E+00  0.0000E+00
     -2.859  0.0000E+00  0.0000E+00
     -2.770  0.0000E+00  0.0000E+00
     -2.682  0.0000E+00  0.0000E+00
     -2.593  0.8543E-03  0.7563E-04
     -2.504  0.3176E-03  0.1037E-03
     -2.415  0.4465E-03  0.1433E-03
     -2.327  0.1258E-02  0.2547E-03
     -2.238  0.1718E-02  0.4068E-03
     -2.149  0.2908E-02  0.6642E-03
     -2.061  0.4171E-02  0.1033E-02
     -1.972  0.5140E-02  0.1488E-02
     -1.883  0.7002E-02  0.2108E-02
     -1.794  0.1005E-01  0.2998E-02
     -1.706  0.1494E-01  0.4321E-02
     -1.617  0.2102E-01  0.6182E-02
     -1.528  0.3048E-01  0.8880E-02
     -1.440  0.4256E-01  0.1265E-01
     -1.351  0.5949E-01  0.1792E-01
     -1.262  0.8328E-01  0.2529E-01
     -1.173  0.1147E+00  0.3544E-01
     -1.085  0.1576E+00  0.4940E-01
     -0.996  0.2147E+00  0.6841E-01
     -0.907  0.2899E+00  0.9407E-01
     -0.818  0.3891E+00  0.1285E+00
     -0.730  0.5180E+00  0.1744E+00
     -0.641  0.6833E+00  0.2349E+00
     -0.552  0.8928E+00  0.3139E+00
     -0.464  0.1155E+01  0.4162E+00
     -0.375  0.1480E+01  0.5471E+00
     -0.286  0.1879E+01  0.7135E+00
     -0.197  0.2365E+01  0.9228E+00
     -0.109  0.2956E+01  0.1184E+01
     -0.020  0.3671E+01  0.1509E+01
      0.069  0.4535E+01  0.1911E+01
      0.157  0.5576E+01  0.2405E+01
      0.246  0.6829E+01  0.3009E+01
      0.335  0.8333E+01  0.3747E+01
      0.424  0.1013E+02  0.4643E+01
      0.512  0.1224E+02  0.5727E+01
      0.601  0.1471E+02  0.7029E+01
      0.690  0.1752E+02  0.8580E+01
      0.779  0.2067E+02  0.1041E+02
      0.867  0.2412E+02  0.1254E+02
      0.956  0.2781E+02  0.1501E+02
      1.045  0.3169E+02  0.1781E+02
      1.133  0.3565E+02  0.2097E+02
      1.222  0.3963E+02  0.2448E+02
      1.311  0.4354E+02  0.2833E+02
      1.400  0.4729E+02  0.3252E+02
      1.488  0.5083E+02  0.3702E+02
      1.577  0.5410E+02  0.4181E+02
      1.666  0.5706E+02  0.4686E+02
      1.754  0.5971E+02  0.5214E+02
      1.843  0.6201E+02  0.5763E+02
      1.932  0.6400E+02  0.6330E+02
      2.021  0.6566E+02  0.6911E+02
      2.109  0.6704E+02  0.7504E+02
      2.198  0.6815E+02  0.8108E+02
      2.287  0.6903E+02  0.8719E+02
      2.376  0.6971E+02  0.9336E+02
      2.464  0.7022E+02  0.9958E+02
      2.553  0.7058E+02  0.1058E+03
      2.642  0.7082E+02  0.1121E+03
      2.730  0.7097E+02  0.1184E+03
      2.819  0.7105E+02  0.1247E+03
      2.908  0.7107E+02  0.1310E+03
      2.997  0.7105E+02  0.1372E+03
      3.085  0.7099E+02  0.1435E+03
      3.174  0.7091E+02  0.1498E+03
      3.263  0.7080E+02  0.1561E+03
      3.351  0.7068E+02  0.1623E+03
      3.440  0.7053E+02  0.1686E+03
      3.529  0.7037E+02  0.1748E+03
      3.618  0.7018E+02  0.1810E+03
      3.706  0.6997E+02  0.1872E+03
      3.795  0.6972E+02  0.1934E+03
      3.884  0.6945E+02  0.1995E+03
      3.973  0.6915E+02  0.2057E+03
      4.061  0.6882E+02  0.2118E+03
      4.150  0.6847E+02  0.2178E+03
      4.239  0.6809E+02  0.2239E+03
      4.327  0.6770E+02  0.2299E+03
      4.416  0.6731E+02  0.2358E+03
      4.505  0.6691E+02  0.2417E+03
      4.594  0.6652E+02  0.2476E+03
      4.682  0.6614E+02  0.2535E+03
      4.771  0.6578E+02  0.2593E+03
      4.860  0.6543E+02  0.2651E+03
      4.948  0.6511E+02  0.2709E+03
      5.037  0.6482E+02  0.2766E+03
      5.126  0.6456E+02  0.2823E+03
      5.215  0.6433E+02  0.2880E+03
      5.303  0.6415E+02  0.2937E+03
      5.392  0.6402E+02  0.2994E+03
      5.481  0.6394E+02  0.3050E+03
      5.570  0.6392E+02  0.3107E+03
      5.658  0.6396E+02  0.3164E+03
      5.747  0.6408E+02  0.3220E+03
      5.836  0.6426E+02  0.3277E+03
      5.924  0.6451E+02  0.3334E+03
      6.013  0.6482E+02  0.3392E+03
      6.102  0.6521E+02  0.3450E+03
      6.191  0.6566E+02  0.3508E+03
      6.279  0.6616E+02  0.3566E+03
      6.368  0.6672E+02  0.3625E+03
      6.457  0.6732E+02  0.3685E+03
      6.546  0.6794E+02  0.3745E+03
      6.634  0.6856E+02  0.3806E+03
      6.723  0.6915E+02  0.3867E+03
      6.812  0.6970E+02  0.3929E+03
      6.900  0.7016E+02  0.3991E+03
      6.989  0.7051E+02  0.4053E+03
      7.078  0.7071E+02  0.4116E+03
      7.167  0.7075E+02  0.4179E+03
      7.255  0.7058E+02  0.4241E+03
      7.344  0.7020E+02  0.4303E+03
      7.433  0.6957E+02  0.4365E+03
      7.521  0.6868E+02  0.4426E+03
      7.610  0.6751E+02  0.4486E+03
      7.699  0.6606E+02  0.4544E+03
      7.788  0.6431E+02  0.4601E+03
      7.876  0.6227E+02  0.4656E+03
      7.965  0.5994E+02  0.4709E+03
      8.054  0.5734E+02  0.4760E+03
      8.143  0.5449E+02  0.4808E+03
      8.231  0.5143E+02  0.4854E+03
      8.320  0.4822E+02  0.4897E+03
      8.409  0.4490E+02  0.4936E+03
      8.497  0.4154E+02  0.4973E+03
      8.586  0.3823E+02  0.5007E+03
      8.675  0.3501E+02  0.5038E+03
      8.764  0.3198E+02  0.5066E+03
      8.852  0.2918E+02  0.5092E+03
      8.941  0.2665E+02  0.5116E+03
      9.030  0.2442E+02  0.5137E+03
      9.118  0.2249E+02  0.5157E+03
      9.207  0.2084E+02  0.5176E+03
      9.296  0.1946E+02  0.5193E+03
      9.385  0.1830E+02  0.5209E+03
      9.473  0.1735E+02  0.5225E+03
      9.562  0.1659E+02  0.5239E+03
      9.651  0.1597E+02  0.5254E+03
      9.740  0.1550E+02  0.5267E+03
      9.828  0.1514E+02  0.5281E+03
      9.917  0.1488E+02  0.5294E+03
     10.006  0.1470E+02  0.5307E+03
     10.094  0.1457E+02  0.5320E+03
     10.183  0.1447E+02  0.5333E+03
     10.272  0.1439E+02  0.5345E+03
     10.361  0.1430E+02  0.5358E+03
     10.449  0.1420E+02  0.5371E+03
     10.538  0.1407E+02  0.5383E+03
     10.627  0.1391E+02  0.5396E+03
     10.715  0.1372E+02  0.5408E+03
     10.804  0.1352E+02  0.5420E+03
     10.893  0.1331E+02  0.5431E+03
     10.982  0.1312E+02  0.5443E+03
     11.070  0.1295E+02  0.5455E+03
     11.159  0.1281E+02  0.5466E+03
     11.248  0.1270E+02  0.5477E+03
     11.337  0.1261E+02  0.5488E+03
     11.425  0.1256E+02  0.5499E+03
     11.514  0.1253E+02  0.5511E+03
     11.603  0.1251E+02  0.5522E+03
     11.691  0.1250E+02  0.5533E+03
     11.780  0.1248E+02  0.5544E+03
     11.869  0.1246E+02  0.5555E+03
     11.958  0.1242E+02  0.5566E+03
     12.046  0.1237E+02  0.5577E+03
     12.135  0.1231E+02  0.5588E+03
     12.224  0.1226E+02  0.5598E+03
     12.312  0.1220E+02  0.5609E+03
     12.401  0.1215E+02  0.5620E+03
     12.490  0.1210E+02  0.5631E+03
     12.579  0.1207E+02  0.5641E+03
     12.667  0.1205E+02  0.5652E+03
     12.756  0.1204E+02  0.5663E+03
     12.845  0.1204E+02  0.5673E+03
     12.934  0.1204E+02  0.5684E+03
     13.022  0.1204E+02  0.5695E+03
     13.111  0.1204E+02  0.5705E+03
     13.200  0.1204E+02  0.5716E+03
     13.288  0.1204E+02  0.5727E+03
     13.377  0.1204E+02  0.5737E+03
     13.466  0.1205E+02  0.5748E+03
     13.555  0.1208E+02  0.5759E+03
     13.643  0.1212E+02  0.5770E+03
     13.732  0.1218E+02  0.5780E+03
     13.821  0.1225E+02  0.5791E+03
     13.909  0.1233E+02  0.5802E+03
     13.998  0.1243E+02  0.5813E+03
     14.087  0.1255E+02  0.5824E+03
     14.176  0.1267E+02  0.5835E+03
     14.264  0.1281E+02  0.5847E+03
     14.353  0.1296E+02  0.5858E+03
     14.442  0.1311E+02  0.5870E+03
     14.531  0.1328E+02  0.5882E+03
     14.619  0.1345E+02  0.5894E+03
     14.708  0.1363E+02  0.5906E+03
     14.797  0.1382E+02  0.5918E+03
     14.885  0.1400E+02  0.5930E+03
     14.974  0.1419E+02  0.5943E+03
     15.063  0.1438E+02  0.5956E+03
     15.152  0.1458E+02  0.5968E+03
     15.240  0.1478E+02  0.5982E+03
     15.329  0.1500E+02  0.5995E+03
     15.418  0.1523E+02  0.6008E+03
     15.507  0.1548E+02  0.6022E+03
     15.595  0.1574E+02  0.6036E+03
     15.684  0.1601E+02  0.6050E+03
     15.773  0.1627E+02  0.6065E+03
     15.861  0.1652E+02  0.6079E+03
     15.950  0.1676E+02  0.6094E+03
     16.039  0.1697E+02  0.6109E+03
     16.128  0.1717E+02  0.6124E+03
     16.216  0.1735E+02  0.6140E+03
     16.305  0.1751E+02  0.6155E+03
     16.394  0.1765E+02  0.6171E+03
     16.482  0.1778E+02  0.6186E+03
     16.571  0.1789E+02  0.6202E+03
     16.660  0.1799E+02  0.6218E+03
     16.749  0.1809E+02  0.6234E+03
     16.837  0.1817E+02  0.6250E+03
     16.926  0.1826E+02  0.6267E+03
     17.015  0.1834E+02  0.6283E+03
     17.104  0.1843E+02  0.6299E+03
     17.192  0.1853E+02  0.6315E+03
     17.281  0.1864E+02  0.6332E+03
     17.370  0.1877E+02  0.6349E+03
     17.458  0.1893E+02  0.6365E+03
     17.547  0.1910E+02  0.6382E+03
     17.636  0.1929E+02  0.6399E+03
     17.725  0.1949E+02  0.6417E+03
     17.813  0.1970E+02  0.6434E+03
     17.902  0.1992E+02  0.6452E+03
     17.991  0.2014E+02  0.6470E+03
     18.079  0.2037E+02  0.6488E+03
     18.168  0.2059E+02  0.6506E+03
     18.257  0.2082E+02  0.6524E+03
     18.346  0.2105E+02  0.6543E+03
     18.434  0.2127E+02  0.6562E+03
     18.523  0.2149E+02  0.6581E+03
     18.612  0.2170E+02  0.6600E+03
     18.701  0.2190E+02  0.6619E+03
     18.789  0.2206E+02  0.6639E+03
     18.878  0.2219E+02  0.6659E+03
     18.967  0.2228E+02  0.6678E+03
     19.055  0.2232E+02  0.6698E+03
     19.144  0.2230E+02  0.6718E+03
     19.233  0.2222E+02  0.6737E+03
     19.322  0.2206E+02  0.6757E+03
     19.410  0.2182E+02  0.6776E+03
     19.499  0.2151E+02  0.6795E+03
     19.588  0.2110E+02  0.6814E+03
     19.676  0.2060E+02  0.6832E+03
     19.765  0.1999E+02  0.6850E+03
     19.854  0.1927E+02  0.6867E+03
     19.943  0.1843E+02  0.6883E+03
     20.031  0.1746E+02  0.6899E+03
     20.120  0.1635E+02  0.6913E+03
     20.209  0.1510E+02  0.6927E+03
     20.298  0.1374E+02  0.6939E+03
     20.386  0.1228E+02  0.6950E+03
     20.475  0.1077E+02  0.6959E+03
     20.564  0.9260E+01  0.6967E+03
     20.652  0.7799E+01  0.6974E+03
     20.741  0.6436E+01  0.6980E+03
     20.830  0.5208E+01  0.6985E+03
     20.919  0.4138E+01  0.6988E+03
     21.007  0.3233E+01  0.6991E+03
     21.096  0.2490E+01  0.6993E+03
     21.185  0.1893E+01  0.6995E+03
     21.273  0.1425E+01  0.6996E+03
     21.362  0.1063E+01  0.6997E+03
     21.451  0.7878E+00  0.6998E+03
     21.540  0.5802E+00  0.6999E+03
     21.628  0.4251E+00  0.6999E+03
     21.717  0.3100E+00  0.6999E+03
     21.806  0.2249E+00  0.6999E+03
     21.895  0.1622E+00  0.7000E+03
     21.983  0.1163E+00  0.7000E+03
     22.072  0.8284E-01  0.7000E+03
     22.161  0.5837E-01  0.7000E+03
     22.249  0.4038E-01  0.7000E+03
     22.338  0.2736E-01  0.7000E+03
     22.427  0.1791E-01  0.7000E+03
     22.516  0.1109E-01  0.7000E+03
     22.604  0.6366E-02  0.7000E+03
     22.693  0.3353E-02  0.7000E+03
     22.782  0.1561E-02  0.7000E+03
     22.871  0.6523E-03  0.7000E+03
     22.959  0.0000E+00  0.7000E+03
     23.048  0.0000E+00  0.7000E+03
     23.137  0.0000E+00  0.7000E+03
     23.225  0.0000E+00  0.7000E+03
     23.314  0.0000E+00  0.7000E+03
     23.403  0.0000E+00  0.7000E+03
     23.492  0.0000E+00  0.7000E+03
     23.38089815     -3.12944675  301      6.66071555      1.00000000
     -3.129  0.0000E+00  0.0000E+00
     -3.041  0.0000E+00  0.0000E+00
     -2.953  0.0000E+00  0.0000E+00
     -2.864  0.0000E+00  0.0000E+00
     -2.776  0.0000E+00  0.0000E+00
     -2.688  0.0000E+00  0.0000E+00
     -2.599  0.8546E-03  0.7567E-04
     -2.511  0.3178E-03  0.1038E-03
     -2.423  0.4358E-03  0.1424E-03
     -2.334  0.1325E-02  0.2597E-03
     -2.246  0.1853E-02  0.4238E-03
     -2.157  0.2850E-02  0.6762E-03
     -2.069  0.4121E-02  0.1041E-02
     -1.981  0.5372E-02  0.1517E-02
     -1.892  0.7447E-02  0.2176E-02
     -1.804  0.1091E-01  0.3143E-02
     -1.716  0.1616E-01  0.4574E-02
     -1.627  0.2297E-01  0.6608E-02
     -1.539  0.3258E-01  0.9493E-02
     -1.450  0.4596E-01  0.1356E-01
     -1.362  0.6411E-01  0.1924E-01
     -1.274  0.8951E-01  0.2717E-01
     -1.185  0.1237E+00  0.3812E-01
     -1.097  0.1688E+00  0.5307E-01
     -1.009  0.2305E+00  0.7349E-01
     -0.920  0.3116E+00  0.1011E+00
     -0.832  0.4184E+00  0.1381E+00
     -0.744  0.5573E+00  0.1875E+00
     -0.655  0.7370E+00  0.2528E+00
     -0.567  0.9653E+00  0.3382E+00
     -0.478  0.1252E+01  0.4491E+00
     -0.390  0.1609E+01  0.5916E+00
     -0.302  0.2051E+01  0.7732E+00
     -0.213  0.2591E+01  0.1003E+01
     -0.125  0.3251E+01  0.1291E+01
     -0.037  0.4053E+01  0.1649E+01
      0.052  0.5021E+01  0.2094E+01
      0.140  0.6187E+01  0.2642E+01
      0.229  0.7583E+01  0.3314E+01
      0.317  0.9243E+01  0.4132E+01
      0.405  0.1120E+02  0.5124E+01
      0.494  0.1348E+02  0.6317E+01
      0.582  0.1609E+02  0.7742E+01
      0.670  0.1903E+02  0.9427E+01
      0.759  0.2227E+02  0.1140E+02
      0.847  0.2578E+02  0.1368E+02
      0.935  0.2949E+02  0.1629E+02
      1.024  0.3334E+02  0.1925E+02
      1.112  0.3724E+02  0.2254E+02
      1.201  0.4111E+02  0.2618E+02
      1.289  0.4487E+02  0.3016E+02
      1.377  0.4845E+02  0.3445E+02
      1.466  0.5179E+02  0.3903E+02
      1.554  0.5484E+02  0.4389E+02
      1.642  0.5759E+02  0.4899E+02
      1.731  0.6000E+02  0.5430E+02
      1.819  0.6208E+02  0.5980E+02
      1.908  0.6384E+02  0.6545E+02
      1.996  0.6532E+02  0.7124E+02
      2.084  0.6652E+02  0.7713E+02
      2.173  0.6750E+02  0.8310E+02
      2.261  0.6828E+02  0.8915E+02
      2.349  0.6890E+02  0.9525E+02
      2.438  0.6937E+02  0.1014E+03
      2.526  0.6974E+02  0.1076E+03
      2.614  0.7001E+02  0.1138E+03
      2.703  0.7020E+02  0.1200E+03
      2.791  0.7033E+02  0.1262E+03
      2.880  0.7040E+02  0.1324E+03
      2.968  0.7042E+02  0.1387E+03
      3.056  0.7039E+02  0.1449E+03
      3.145  0.7033E+02  0.1511E+03
      3.233  0.7024E+02  0.1574E+03
      3.321  0.7011E+02  0.1636E+03
      3.410  0.6995E+02  0.1698E+03
      3.498  0.6976E+02  0.1760E+03
      3.587  0.6955E+02  0.1821E+03
      3.675  0.6931E+02  0.1883E+03
      3.763  0.6905E+02  0.1944E+03
      3.852  0.6876E+02  0.2005E+03
      3.940  0.6845E+02  0.2065E+03
      4.028  0.6813E+02  0.2126E+03
      4.117  0.6778E+02  0.2186E+03
      4.205  0.6742E+02  0.2245E+03
      4.293  0.6706E+02  0.2305E+03
      4.382  0.6670E+02  0.2364E+03
      4.470  0.6635E+02  0.2423E+03
      4.559  0.6602E+02  0.2481E+03
      4.647  0.6569E+02  0.2539E+03
      4.735  0.6539E+02  0.2597E+03
      4.824  0.6510E+02  0.2655E+03
      4.912  0.6483E+02  0.2712E+03
      5.000  0.6458E+02  0.2770E+03
      5.089  0.6437E+02  0.2827E+03
      5.177  0.6419E+02  0.2883E+03
      5.265  0.6404E+02  0.2940E+03
      5.354  0.6394E+02  0.2997E+03
      5.442  0.6389E+02  0.3053E+03
      5.531  0.6390E+02  0.3110E+03
      5.619  0.6397E+02  0.3167E+03
      5.707  0.6410E+02  0.3223E+03
      5.796  0.6431E+02  0.3280E+03
      5.884  0.6460E+02  0.3338E+03
      5.972  0.6495E+02  0.3395E+03
      6.061  0.6538E+02  0.3453E+03
      6.149  0.6585E+02  0.3511E+03
      6.238  0.6637E+02  0.3570E+03
      6.326  0.6691E+02  0.3630E+03
      6.414  0.6747E+02  0.3689E+03
      6.503  0.6802E+02  0.3750E+03
      6.591  0.6855E+02  0.3810E+03
      6.679  0.6903E+02  0.3871E+03
      6.768  0.6945E+02  0.3933E+03
      6.856  0.6979E+02  0.3995E+03
      6.944  0.7002E+02  0.4057E+03
      7.033  0.7012E+02  0.4119E+03
      7.121  0.7006E+02  0.4181E+03
      7.210  0.6983E+02  0.4243E+03
      7.298  0.6940E+02  0.4304E+03
      7.386  0.6876E+02  0.4365E+03
      7.475  0.6787E+02  0.4425E+03
      7.563  0.6673E+02  0.4484E+03
      7.651  0.6531E+02  0.4542E+03
      7.740  0.6362E+02  0.4599E+03
      7.828  0.6165E+02  0.4653E+03
      7.917  0.5941E+02  0.4706E+03
      8.005  0.5691E+02  0.4756E+03
      8.093  0.5418E+02  0.4804E+03
      8.182  0.5124E+02  0.4850E+03
      8.270  0.4815E+02  0.4892E+03
      8.358  0.4496E+02  0.4932E+03
      8.447  0.4172E+02  0.4969E+03
      8.535  0.3849E+02  0.5003E+03
      8.623  0.3536E+02  0.5035E+03
      8.712  0.3237E+02  0.5063E+03
      8.800  0.2960E+02  0.5090E+03
      8.889  0.2707E+02  0.5114E+03
      8.977  0.2483E+02  0.5136E+03
      9.065  0.2286E+02  0.5156E+03
      9.154  0.2117E+02  0.5175E+03
      9.242  0.1974E+02  0.5192E+03
      9.330  0.1853E+02  0.5208E+03
      9.419  0.1753E+02  0.5224E+03
      9.507  0.1670E+02  0.5239E+03
      9.596  0.1603E+02  0.5253E+03
      9.684  0.1550E+02  0.5267E+03
      9.772  0.1508E+02  0.5280E+03
      9.861  0.1476E+02  0.5293E+03
      9.949  0.1451E+02  0.5306E+03
     10.037  0.1431E+02  0.5319E+03
     10.126  0.1416E+02  0.5331E+03
     10.214  0.1402E+02  0.5344E+03
     10.302  0.1390E+02  0.5356E+03
     10.391  0.1379E+02  0.5368E+03
     10.479  0.1369E+02  0.5381E+03
     10.568  0.1359E+02  0.5393E+03
     10.656  0.1350E+02  0.5405E+03
     10.744  0.1341E+02  0.5416E+03
     10.833  0.1332E+02  0.5428E+03
     10.921  0.1324E+02  0.5440E+03
     11.009  0.1316E+02  0.5452E+03
     11.098  0.1308E+02  0.5463E+03
     11.186  0.1301E+02  0.5475E+03
     11.275  0.1295E+02  0.5486E+03
     11.363  0.1290E+02  0.5498E+03
     11.451  0.1285E+02  0.5509E+03
     11.540  0.1282E+02  0.5520E+03
     11.628  0.1279E+02  0.5532E+03
     11.716  0.1277E+02  0.5543E+03
     11.805  0.1275E+02  0.5554E+03
     11.893  0.1274E+02  0.5566E+03
     11.981  0.1273E+02  0.5577E+03
     12.070  0.1271E+02  0.5588E+03
     12.158  0.1269E+02  0.5599E+03
     12.247  0.1267E+02  0.5611E+03
     12.335  0.1265E+02  0.5622E+03
     12.423  0.1262E+02  0.5633E+03
     12.512  0.1260E+02  0.5644E+03
     12.600  0.1257E+02  0.5655E+03
     12.688  0.1253E+02  0.5666E+03
     12.777  0.1250E+02  0.5678E+03
     12.865  0.1246E+02  0.5689E+03
     12.953  0.1242E+02  0.5700E+03
     13.042  0.1239E+02  0.5711E+03
     13.130  0.1235E+02  0.5721E+03
     13.219  0.1233E+02  0.5732E+03
     13.307  0.1232E+02  0.5743E+03
     13.395  0.1233E+02  0.5754E+03
     13.484  0.1235E+02  0.5765E+03
     13.572  0.1239E+02  0.5776E+03
     13.660  0.1245E+02  0.5787E+03
     13.749  0.1251E+02  0.5798E+03
     13.837  0.1259E+02  0.5809E+03
     13.926  0.1268E+02  0.5821E+03
     14.014  0.1278E+02  0.5832E+03
     14.102  0.1290E+02  0.5843E+03
     14.191  0.1302E+02  0.5855E+03
     14.279  0.1316E+02  0.5867E+03
     14.367  0.1330E+02  0.5878E+03
     14.456  0.1345E+02  0.5890E+03
     14.544  0.1361E+02  0.5902E+03
     14.632  0.1376E+02  0.5915E+03
     14.721  0.1392E+02  0.5927E+03
     14.809  0.1409E+02  0.5939E+03
     14.898  0.1425E+02  0.5952E+03
     14.986  0.1443E+02  0.5965E+03
     15.074  0.1462E+02  0.5978E+03
     15.163  0.1482E+02  0.5991E+03
     15.251  0.1504E+02  0.6004E+03
     15.339  0.1527E+02  0.6018E+03
     15.428  0.1551E+02  0.6031E+03
     15.516  0.1575E+02  0.6045E+03
     15.605  0.1599E+02  0.6060E+03
     15.693  0.1623E+02  0.6074E+03
     15.781  0.1645E+02  0.6088E+03
     15.870  0.1667E+02  0.6103E+03
     15.958  0.1688E+02  0.6118E+03
     16.046  0.1707E+02  0.6133E+03
     16.135  0.1726E+02  0.6149E+03
     16.223  0.1742E+02  0.6164E+03