   48   48  500    1
  0.1647849E+02  0.7164579E-09  0.1001836E-08  0.1173839E-08  0.1500000E-14
   3000.00000000000     
  CAR 
 Ir_Ru                                   
    384      8    350
 
  0.0000000E+00  0.0000000E+00  0.0000000E+00  0.1250000E+00
    1       -0.353368   1.000000
    2        0.645682   1.000000
    3        0.881872   1.000000
    4        0.933251   1.000000
    5        0.976364   1.000000
    6        1.043468   1.000000
    7        1.075732   1.000000
    8        1.089573   1.000000
    9        1.173659   1.000000
   10        1.207660   1.000000
   11        1.243171   1.000000
   12        1.282904   1.000000
   13        1.310992   1.000000
   14        1.337444   1.000000
   15        1.350792   1.000000
   16        1.384067   1.000000
   17        1.437827   1.000000
   18        1.502802   1.000000
   19        1.568759   1.000000
   20        1.588044   1.000000
   21        1.650857   1.000000
   22        1.672722   1.000000
   23        1.702120   1.000000
   24        1.720767   1.000000
   25        1.760514   1.000000
   26        1.799047   1.000000
   27        1.804522   1.000000
   28        1.865029   1.000000
   29        1.900908   1.000000
   30        1.922807   1.000000
   31        1.944523   1.000000
   32        1.971852   1.000000
   33        2.002177   1.000000
   34        2.021675   1.000000
   35        2.031116   1.000000
   36        2.058322   1.000000
   37        2.079311   1.000000
   38        2.115441   1.000000
   39        2.129339   1.000000
   40        2.200832   1.000000
   41        2.220155   1.000000
   42        2.233013   1.000000
   43        2.269535   1.000000
   44        2.276708   1.000000
   45        2.303239   1.000000
   46        2.343113   1.000000
   47        2.350312   1.000000
   48        2.384233   1.000000
   49        2.412206   1.000000
   50        2.466752   1.000000
   51        2.481605   1.000000
   52        2.527075   1.000000
   53        2.547030   1.000000
   54        2.572910   0.999999
   55        2.598984   0.999999
   56        2.629008   0.999999
   57        2.639114   0.999999
   58        2.668581   0.999999
   59        2.688722   0.999999
   60        2.721602   0.999999
   61        2.749432   0.999999
   62        2.795315   0.999999
   63        2.815688   0.999999
   64        2.834169   0.999999
   65        2.865029   0.999999
   66        2.885399   0.999998
   67        2.962092   0.999998
   68        2.993622   0.999998
   69        3.020530   0.999997
   70        3.053731   0.999997
   71        3.067886   0.999997
   72        3.094006   0.999997
   73        3.134527   0.999996
   74        3.151160   0.999996
   75        3.200341   0.999995
   76        3.221331   0.999995
   77        3.232244   0.999994
   78        3.248414   0.999994
   79        3.297031   0.999993
   80        3.315707   0.999993
   81        3.335507   0.999992
   82        3.366783   0.999991
   83        3.426433   0.999989
   84        3.435472   0.999989
   85        3.482210   0.999986
   86        3.496196   0.999986
   87        3.515628   0.999985
   88        3.530611   0.999984
   89        3.561829   0.999982
   90        3.632634   0.999977
   91        3.649079   0.999975
   92        3.663382   0.999974
   93        3.681233   0.999972
   94        3.708874   0.999970
   95        3.737855   0.999966
   96        3.766016   0.999963
   97        3.779145   0.999961
   98        3.801144   0.999958
   99        3.832128   0.999953
  100        3.899217   0.999940
  101        3.920739   0.999935
  102        3.930858   0.999933
  103        3.954955   0.999927
  104        3.982274   0.999919
  105        4.000954   0.999914
  106        4.091392   0.999881
  107        4.116809   0.999870
  108        4.131432   0.999863
  109        4.161105   0.999847
  110        4.176117   0.999839
  111        4.231269   0.999804
  112        4.239121   0.999798
  113        4.307200   0.999743
  114        4.315714   0.999735
  115        4.360840   0.999688
  116        4.365656   0.999683
  117        4.407788   0.999631
  118        4.424485   0.999609
  119        4.476805   0.999528
  120        4.493231   0.999500
  121        4.506999   0.999475
  122        4.529300   0.999431
  123        4.567347   0.999348
  124        4.578884   0.999321
  125        4.616701   0.999223
  126        4.637224   0.999164
  127        4.694663   0.998973
  128        4.720022   0.998876
  129        4.734625   0.998816
  130        4.770484   0.998655
  131        4.778578   0.998615
  132        4.798163   0.998515
  133        4.837885   0.998289
  134        4.849538   0.998217
  135        4.891144   0.997931
  136        4.926451   0.997654
  137        4.937128   0.997563
  138        4.984541   0.997115
  139        5.014395   0.996791
  140        5.054340   0.996301
  141        5.063519   0.996178
  142        5.095870   0.995712
  143        5.116976   0.995378
  144        5.132235   0.995120
  145        5.151734   0.994770
  146        5.216605   0.993416
  147        5.244699   0.992726
  148        5.281878   0.991702
  149        5.329022   0.990195
  150        5.338640   0.989856
  151        5.389493   0.987860
  152        5.415170   0.986710
  153        5.461458   0.984358
  154        5.490176   0.982698
  155        5.518648   0.980881
  156        5.529053   0.980171
  157        5.561333   0.977802
  158        5.575208   0.976701
  159        5.615781   0.973165
  160        5.663707   0.968315
  161        5.673686   0.967203
  162        5.747942   0.957664
  163        5.792866   0.950660
  164        5.807187   0.948205
  165        5.834939   0.943115
  166        5.848330   0.940494
  167        5.883726   0.933013
  168        5.902797   0.928628
  169        5.955822   0.915012
  170        6.004083   0.900614
  171        6.005802   0.900064
  172        6.039536   0.888692
  173        6.097516   0.866502
  174        6.130640   0.852215
  175        6.133642   0.850860
  176        6.203249   0.816493
  177        6.212308   0.811595
  178        6.246154   0.792413
  179        6.272874   0.776277
  180        6.301640   0.757931
  181        6.323928   0.743028
  182        6.351751   0.723602
  183        6.374629   0.706965
  184        6.392129   0.693852
  185        6.442425   0.654429
  186        6.467743   0.633705
  187        6.471902   0.630250
  188        6.525833   0.584355
  189        6.533259   0.577899
  190        6.556858   0.557217
  191        6.592372   0.525737
  192        6.618416   0.502506
  193        6.654038   0.470734
  194        6.684492   0.443749
  195        6.730506   0.403646
  196        6.747456   0.389162
  197        6.749652   0.387300
  198        6.783817   0.358773
  199        6.803738   0.342575
  200        6.826980   0.324131
  201        6.855455   0.302263
  202        6.890503   0.276535
  203        6.921506   0.254940
  204        6.941418   0.241668
  205        6.951419   0.235183
  206        7.007203   0.201250
  207        7.053509   0.175972
  208        7.075448   0.164897
  209        7.104791   0.150968
  210        7.120864   0.143757
  211        7.163962   0.125829
  212        7.189931   0.115976
  213        7.209465   0.109013
  214        7.214854   0.107157
  215        7.238202   0.099437
  216        7.286264   0.085088
  217        7.326645   0.074512
  218        7.334688   0.072555
  219        7.344750   0.070173
  220        7.396751   0.058981
  221        7.447751   0.049647
  222        7.449219   0.049401
  223        7.458394   0.047884
  224        7.486382   0.043528
  225        7.500759   0.041439
  226        7.524674   0.038177
  227        7.574261   0.032180
  228        7.612149   0.028222
  229        7.633855   0.026172
  230        7.660810   0.023827
  231        7.684286   0.021953
  232        7.707236   0.020260
  233        7.734797   0.018396
  234        7.739772   0.018078
  235        7.776783   0.015875
  236        7.823163   0.013484
  237        7.837798   0.012807
  238        7.882354   0.010943
  239        7.912647   0.009832
  240        7.929780   0.009254
  241        7.976067   0.007855
  242        8.064290   0.005744
  243        8.099107   0.005076
  244        8.145126   0.004310
  245        8.173437   0.003897
  246        8.203174   0.003506
  247        8.243451   0.003038
  248        8.273700   0.002727
  249        8.295713   0.002522
  250        8.387764   0.001816
  251        8.424765   0.001592
  252        8.472769   0.001341
  253        8.482047   0.001298
  254        8.562801   0.000973
  255        8.609445   0.000824
  256        8.649236   0.000715
  257        8.741849   0.000514
  258        8.800971   0.000416
  259        8.852381   0.000346
  260        8.920948   0.000271
  261        9.004501   0.000201
  262        9.161998   0.000115
  263        9.393921   0.000050
  264        9.605079   0.000024
  265        9.802816   0.000012
  266        9.926358   0.000007
  267        9.988391   0.000006
  268       10.166909   0.000003
  269       10.268507   0.000002
  270       10.318060   0.000002
  271       10.380934   0.000001
  272       10.581783   0.000001
  273       10.732936   0.000000
  274       10.867491   0.000000
  275       11.089375   0.000000
  276       11.282433   0.000000
  277       11.418847   0.000000
  278       11.564160   0.000000
  279       11.787508   0.000000
  280       12.101655   0.000000
  281       12.216949   0.000000
  282       12.371251   0.000000
  283       12.462290   0.000000
  284       12.688286   0.000000
  285       12.724538   0.000000
  286       12.978589   0.000000
  287       13.146808   0.000000
  288       13.380400   0.000000
  289       13.442556   0.000000
  290       13.553410   0.000000
  291       13.876727   0.000000
  292       13.980239   0.000000
  293       14.153749   0.000000
  294       14.189186   0.000000
  295       14.477437   0.000000
  296       14.737511   0.000000
  297       14.774657   0.000000
  298       14.965615   0.000000
  299       15.380006   0.000000
  300       15.578406   0.000000
  301       15.691450   0.000000
  302       15.756633   0.000000
  303       15.887007   0.000000
  304       16.079785   0.000000
  305       16.090624   0.000000
  306       16.202536   0.000000
  307       16.432274   0.000000
  308       16.489201   0.000000
  309       16.552076   0.000000
  310       16.672964   0.000000
  311       16.791086   0.000000
  312       16.960748   0.000000
  313       16.992457   0.000000
  314       17.249056   0.000000
  315       17.352047   0.000000
  316       17.394171   0.000000
  317       17.587897   0.000000
  318       17.668449   0.000000
  319       17.767011   0.000000
  320       17.865797   0.000000
  321       17.882112   0.000000
  322       18.038893   0.000000
  323       18.169001   0.000000
  324       18.206931   0.000000
  325       18.303226   0.000000
  326       18.373367   0.000000
  327       18.413526   0.000000
  328       18.497748   0.000000
  329       18.620468   0.000000
  330       18.668413   0.000000
  331       18.768541   0.000000
  332       18.776706   0.000000
  333       18.822623   0.000000
  334       18.877951   0.000000
  335       18.980648   0.000000
  336       19.010388   0.000000
  337       19.124279   0.000000
  338       19.182827   0.000000
  339       19.268605   0.000000
  340       19.305926   0.000000
  341       19.401808   0.000000
  342       19.462929   0.000000
  343       19.478068   0.000000
  344       19.577141   0.000000
  345       19.634885   0.000000
  346       19.754715   0.000000
  347       19.864680   0.000000
  348       19.966742   0.000000
  349       20.055926   0.000000
  350       20.235639   0.000000
 
  0.5000000E+00  0.0000000E+00 -0.5551115E-16  0.1250000E+00
    1        0.410351   1.000000
    2        0.630065   1.000000
    3        0.839125   1.000000
    4        0.872867   1.000000
    5        0.937334   1.000000
    6        1.045993   1.000000
    7        1.070450   1.000000
    8        1.117254   1.000000
    9        1.160730   1.000000
   10        1.200361   1.000000
   11        1.249664   1.000000
   12        1.316357   1.000000
   13        1.328210   1.000000
   14        1.386500   1.000000
   15        1.442950   1.000000
   16        1.453102   1.000000
   17        1.487119   1.000000
   18        1.501914   1.000000
   19        1.546236   1.000000
   20        1.581532   1.000000
   21        1.611042   1.000000
   22        1.627609   1.000000
   23        1.661426   1.000000
   24        1.706129   1.000000
   25        1.730763   1.000000
   26        1.751258   1.000000
   27        1.786748   1.000000
   28        1.811563   1.000000
   29        1.850520   1.000000
   30        1.872936   1.000000
   31        1.906932   1.000000
   32        1.959704   1.000000
   33        1.972078   1.000000
   34        1.980668   1.000000
   35        2.000744   1.000000
   36        2.066094   1.000000
   37        2.090607   1.000000
   38        2.111812   1.000000
   39        2.166413   1.000000
   40        2.180402   1.000000
   41        2.213621   1.000000
   42        2.220685   1.000000
   43        2.251331   1.000000
   44        2.259177   1.000000
   45        2.294126   1.000000
   46        2.345908   1.000000
   47        2.376255   1.000000
   48        2.400034   1.000000
   49        2.425232   1.000000
   50        2.443811   1.000000
   51        2.468723   1.000000
   52        2.490246   1.000000
   53        2.523540   1.000000
   54        2.538363   1.000000
   55        2.593959   0.999999
   56        2.635391   0.999999
   57        2.638870   0.999999
   58        2.679188   0.999999
   59        2.695135   0.999999
   60        2.716881   0.999999
   61        2.755095   0.999999
   62        2.804294   0.999999
   63        2.846549   0.999999
   64        2.867271   0.999998
   65        2.886278   0.999998
   66        2.906769   0.999998
   67        2.925168   0.999998
   68        2.972920   0.999998
   69        2.979549   0.999998
   70        2.989598   0.999998
   71        3.041457   0.999997
   72        3.068631   0.999997
   73        3.082648   0.999997
   74        3.125764   0.999996
   75        3.149048   0.999996
   76        3.175807   0.999995
   77        3.218091   0.999995
   78        3.268998   0.999994
   79        3.285792   0.999993
   80        3.298956   0.999993
   81        3.307925   0.999993
   82        3.357886   0.999991
   83        3.377254   0.999991
   84        3.417605   0.999989
   85        3.422402   0.999989
   86        3.467439   0.999987
   87        3.480947   0.999987
   88        3.526362   0.999984
   89        3.566074   0.999982
   90        3.614436   0.999978
   91        3.624966   0.999977
   92        3.643386   0.999976
   93        3.672766   0.999973
   94        3.692256   0.999971
   95        3.732704   0.999967
   96        3.755769   0.999964
   97        3.791450   0.999959
   98        3.819249   0.999955
   99        3.873488   0.999945
  100        3.886041   0.999943
  101        3.937538   0.999931
  102        3.948255   0.999929
  103        3.972291   0.999922
  104        3.975395   0.999921
  105        4.032330   0.999904
  106        4.043865   0.999899
  107        4.089590   0.999882
  108        4.110366   0.999873
  109        4.125714   0.999865
  110        4.142768   0.999857
  111        4.213662   0.999816
  112        4.224564   0.999808
  113        4.239795   0.999798
  114        4.275250   0.999770
  115        4.290353   0.999758
  116        4.335546   0.999715
  117        4.373932   0.999673
  118        4.382470   0.999663
  119        4.430624   0.999600
  120        4.472824   0.999535
  121        4.491954   0.999502
  122        4.517016   0.999455
  123        4.533498   0.999422
  124        4.584075   0.999308
  125        4.634686   0.999171
  126        4.636591   0.999166
  127        4.659439   0.999095
  128        4.682183   0.999018
  129        4.702881   0.998943
  130        4.726739   0.998849
  131        4.750784   0.998746
  132        4.812048   0.998440
  133        4.841076   0.998270
  134        4.894557   0.997906
  135        4.908174   0.997802
  136        4.927938   0.997642
  137        4.952829   0.997423
  138        4.999156   0.996961
  139        5.009655   0.996845
  140        5.039310   0.996494
  141        5.083310   0.995900
  142        5.110041   0.995491
  143        5.156670   0.994678
  144        5.162825   0.994560
  145        5.204359   0.993696
  146        5.226911   0.993171
  147        5.242771   0.992776
  148        5.294565   0.991320
  149        5.301485   0.991105
  150        5.314897   0.990673
  151        5.371062   0.988625
  152        5.419413   0.986509
  153        5.463162   0.984264
  154        5.470431   0.983857
  155        5.479596   0.983328
  156        5.496675   0.982298
  157        5.557935   0.978064
  158        5.604000   0.974243
  159        5.636928   0.971121
  160        5.662942   0.968398
  161        5.704176   0.963567
  162        5.716570   0.961981
  163        5.748222   0.957623
  164        5.785887   0.951816
  165        5.797312   0.949910
  166        5.837586   0.942606
  167        5.870478   0.935910
  168        5.929194   0.922122
  169        5.943250   0.918439
  170        5.995572   0.903302
  171        6.004949   0.900337
  172        6.033982   0.890639
  173        6.067344   0.878483
  174        6.095201   0.867456
  175        6.127795   0.853490
  176        6.137000   0.849331
  177        6.160367   0.838338
  178        6.196509   0.820072
  179        6.201648   0.817348
  180        6.279374   0.772220
  181        6.303090   0.756979
  182        6.314876   0.749152
  183        6.336004   0.734707
  184        6.351273   0.723943
  185        6.378391   0.704175
  186        6.388006   0.696971
  187        6.447125   0.650623
  188        6.460744   0.639487
  189        6.506747   0.600810
  190        6.542112   0.570169
  191        6.576699   0.539670
  192        6.633041   0.489449
  193        6.667337   0.458919
  194        6.684765   0.443508
  195        6.723572   0.409621
  196        6.727349   0.406362
  197        6.790425   0.353362
  198        6.796983   0.348029
  199        6.823441   0.326907
  200        6.848902   0.307222
  201        6.855331   0.302357
  202        6.904883   0.266379
  203        6.925462   0.252265
  204        6.937466   0.244265
  205        6.985401   0.214058
  206        7.010696   0.199252
  207        7.029045   0.189002
  208        7.050174   0.177706
  209        7.073534   0.165841
  210        7.089683   0.158015
  211        7.131017   0.139351
  212        7.164640   0.125562
  213        7.198611   0.112835
  214        7.208844   0.109228
  215        7.228302   0.102648
  216        7.252864   0.094845
  217        7.282432   0.086159
  218        7.318148   0.076632
  219        7.324942   0.074932
  220        7.360399   0.066613
  221        7.379931   0.062405
  222        7.424370   0.053739
  223        7.438360   0.051254
  224        7.491370   0.042792
  225        7.513787   0.039630
  226        7.522254   0.038495
  227        7.560791   0.033712
  228        7.594839   0.029968
  229        7.604069   0.029024
  230        7.629504   0.026571
  231        7.647026   0.024999
  232        7.676207   0.022581
  233        7.715588   0.019677
  234        7.724875   0.019047
  235        7.772945   0.016091
  236        7.823333   0.013476
  237        7.840295   0.012694
  238        7.847666   0.012369
  239        7.880771   0.011004
  240        7.925600   0.009392
  241        7.935182   0.009079
  242        7.979039   0.007773
  243        8.016754   0.006800
  244        8.060375   0.005825
  245        8.100244   0.005055
  246        8.151028   0.004220
  247        8.215919   0.003350
  248        8.252890   0.002937
  249        8.296267   0.002517
  250        8.333523   0.002204
  251        8.379960   0.001868
  252        8.395258   0.001769
  253        8.433964   0.001541
  254        8.505722   0.001193
  255        8.539974   0.001056
  256        8.617296   0.000801
  257        8.718658   0.000558
  258        9.019166   0.000191
  259        9.116896   0.000135
  260        9.372949   0.000054
  261        9.569409   0.000027
  262        9.609253   0.000023
  263        9.650483   0.000020
  264        9.794232   0.000012
  265        9.865319   0.000009
  266       10.148268   0.000003
  267       10.198429   0.000003
  268       10.418533   0.000001
  269       10.457436   0.000001
  270       10.561458   0.000001
  271       10.873837   0.000000
  272       10.947997   0.000000
  273       10.993625   0.000000
  274       11.382098   0.000000
  275       11.499494   0.000000
  276       11.809762   0.000000
  277       11.947533   0.000000
  278       12.012321   0.000000
  279       12.132750   0.000000
  280       12.267494   0.000000
  281       12.412453   0.000000
  282       12.639661   0.000000
  283       12.726583   0.000000
  284       12.829656   0.000000
  285       12.938047   0.000000
  286       13.296910   0.000000
  287       13.338367   0.000000
  288       13.459027   0.000000
  289       13.595998   0.000000
  290       13.738554   0.000000
  291       13.824287   0.000000
  292       14.038436   0.000000
  293       14.090073   0.000000
  294       14.350808   0.000000
  295       14.547825   0.000000
  296       14.599279   0.000000
  297       14.733755   0.000000
  298       14.741374   0.000000
  299       14.884972   0.000000
  300       14.928129   0.000000
  301       15.076745   0.000000
  302       15.228836   0.000000
  303       15.465674   0.000000
  304       15.536855   0.000000
  305       15.720758   0.000000
  306       15.813717   0.000000
  307       15.891082   0.000000
  308       15.983016   0.000000
  309       16.075003   0.000000
  310       16.108619   0.000000
  311       16.261439   0.000000
  312       16.316140   0.000000
  313       16.420975   0.000000
  314       16.522202   0.000000
  315       16.646066   0.000000
  316       16.694055   0.000000
  317       16.780737   0.000000
  318       16.901416   0.000000
  319       16.981785   0.000000
  320       17.156637   0.000000
  321       17.309532   0.000000
  322       17.370612   0.000000
  323       17.493626   0.000000
  324       17.558304   0.000000
  325       17.801151   0.000000
  326       18.070703   0.000000
  327       18.111804   0.000000
  328       18.289446   0.000000
  329       18.372377   0.000000
  330       18.468681   0.000000
  331       18.598842   0.000000
  332       18.825288   0.000000
  333       18.857227   0.000000
  334       19.061882   0.000000
  335       19.125628   0.000000
  336       19.196871   0.000000
  337       19.232515   0.000000
  338       19.407329   0.000000
  339       19.467100   0.000000
  340       19.525044   0.000000
  341       19.556185   0.000000
  342       19.617576   0.000000
  343       19.688779   0.000000
  344       19.766535   0.000000
  345       19.993414   0.000000
  346       20.103278   0.000000
  347       20.226104   0.000000
  348       20.311948   0.000000
  349       20.402733   0.000000
  350       20.572670   0.000000
 
 -0.1387779E-16  0.5000000E+00  0.2775558E-16  0.1250000E+00
    1        0.104450   1.000000
    2        0.120189   1.000000
    3        0.872071   1.000000
    4        0.883223   1.000000
    5        0.919549   1.000000
    6        1.019234   1.000000
    7        1.065601   1.000000
    8        1.104355   1.000000
    9        1.143671   1.000000
   10        1.187827   1.000000
   11        1.205044   1.000000
   12        1.253191   1.000000
   13        1.296607   1.000000
   14        1.301663   1.000000
   15        1.376471   1.000000
   16        1.423329   1.000000
   17        1.487886   1.000000
   18        1.497889   1.000000
   19        1.530514   1.000000
   20        1.598211   1.000000
   21        1.675143   1.000000
   22        1.688900   1.000000
   23        1.713466   1.000000
   24        1.753641   1.000000
   25        1.772944   1.000000
   26        1.809644   1.000000
   27        1.830438   1.000000
   28        1.853928   1.000000
   29        1.863666   1.000000
   30        1.925636   1.000000
   31        1.941236   1.000000
   32        1.958036   1.000000
   33        1.991555   1.000000
   34        2.033955   1.000000
   35        2.061202   1.000000
   36        2.068012   1.000000
   37        2.100398   1.000000
   38        2.131846   1.000000
   39        2.150259   1.000000
   40        2.153953   1.000000
   41        2.195287   1.000000
   42        2.212821   1.000000
   43        2.253962   1.000000
   44        2.282334   1.000000
   45        2.304706   1.000000
   46        2.339699   1.000000
   47        2.363290   1.000000
   48        2.388690   1.000000
   49        2.409950   1.000000
   50        2.455752   1.000000
   51        2.481902   1.000000
   52        2.506038   1.000000
   53        2.532327   1.000000
   54        2.573954   0.999999
   55        2.585393   0.999999
   56        2.634632   0.999999
   57        2.643184   0.999999
   58        2.659952   0.999999
   59        2.680364   0.999999
   60        2.693364   0.999999
   61        2.772718   0.999999
   62        2.790605   0.999999
   63        2.808059   0.999999
   64        2.897590   0.999998
   65        2.900627   0.999998
   66        2.930253   0.999998
   67        2.972523   0.999998
   68        3.001163   0.999998
   69        3.012673   0.999997
   70        3.046682   0.999997
   71        3.088321   0.999997
   72        3.097175   0.999997
   73        3.148670   0.999996
   74        3.176643   0.999995
   75        3.189431   0.999995
   76        3.228779   0.999995
   77        3.246564   0.999994
   78        3.285581   0.999993
   79        3.299660   0.999993
   80        3.329369   0.999992
   81        3.353102   0.999991
   82        3.365251   0.999991
   83        3.389508   0.999990
   84        3.435249   0.999989
   85        3.475786   0.999987
   86        3.482989   0.999986
   87        3.525100   0.999984
   88        3.550546   0.999983
   89        3.569218   0.999982
   90        3.583907   0.999981
   91        3.612299   0.999978
   92        3.641618   0.999976
   93        3.713826   0.999969
   94        3.722713   0.999968
   95        3.749972   0.999965
   96        3.780408   0.999961
   97        3.794064   0.999959
   98        3.827110   0.999954
   99        3.838175   0.999952
  100        3.889492   0.999942
  101        3.913416   0.999937
  102        3.940445   0.999931
  103        3.959446   0.999926
  104        4.012280   0.999910
  105        4.028033   0.999905
  106        4.053985   0.999896
  107        4.092083   0.999881
  108        4.144449   0.999856
  109        4.175399   0.999839
  110        4.187807   0.999832
  111        4.214939   0.999815
  112        4.253097   0.999788
  113        4.274015   0.999771
  114        4.333849   0.999717
  115        4.352003   0.999698
  116        4.371599   0.999676
  117        4.396424   0.999646
  118        4.417343   0.999618
  119        4.456654   0.999561
  120        4.493984   0.999498
  121        4.516329   0.999457
  122        4.549818   0.999388
  123        4.571441   0.999339
  124        4.600240   0.999267
  125        4.614083   0.999230
  126        4.645895   0.999137
  127        4.661552   0.999088
  128        4.691912   0.998984
  129        4.735889   0.998811
  130        4.745517   0.998769
  131        4.790784   0.998554
  132        4.813367   0.998432
  133        4.829961   0.998337
  134        4.884537   0.997980
  135        4.899595   0.997868
  136        4.942698   0.997514
  137        4.956585   0.997388
  138        4.998297   0.996970
  139        5.073552   0.996039
  140        5.084525   0.995882
  141        5.087775   0.995834
  142        5.109235   0.995504
  143        5.131904   0.995126
  144        5.175147   0.994317
  145        5.217432   0.993397
  146        5.242868   0.992773
  147        5.263637   0.992221
  148        5.281005   0.991727
  149        5.353299   0.989316
  150        5.364927   0.988868
  151        5.382944   0.988137
  152        5.416018   0.986670
  153        5.445934   0.985189
  154        5.466362   0.984086
  155        5.494058   0.982460
  156        5.550606   0.978619
  157        5.576713   0.976578
  158        5.597736   0.974798
  159        5.634592   0.971354
  160        5.659818   0.968738
  161        5.695818   0.964601
  162        5.738203   0.959052
  163        5.777959   0.953098
  164        5.791892   0.950823
  165        5.828937   0.944254
  166        5.832626   0.943556
  167        5.874922   0.934951
  168        5.927802   0.922478
  169        5.946432   0.917584
  170        5.993892   0.903825
  171        6.012985   0.897732
  172        6.061086   0.880848
  173        6.093074   0.868327
  174        6.113744   0.859655
  175        6.132293   0.851470
  176        6.158294   0.839339
  177        6.178550   0.829342
  178        6.201517   0.817418
  179        6.272968   0.776219
  180        6.284451   0.769015
  181        6.300210   0.758866
  182        6.323228   0.743505
  183        6.385398   0.698935
  184        6.421842   0.670859
  185        6.454995   0.644207
  186        6.474462   0.628116
  187        6.494166   0.611536
  188        6.515021   0.593702
  189        6.543083   0.569318
  190        6.586765   0.530727
  191        6.596920   0.521685
  192        6.640532   0.482766
  193        6.664260   0.461649
  194        6.685052   0.443255
  195        6.697215   0.432563
  196        6.738151   0.397091
  197        6.779736   0.362133