   48   48  500    1
  0.1647849E+02  0.7164579E-09  0.1001836E-08  0.1173839E-08  0.1500000E-14
   3000.00000000000     
  CAR 
 Ir_Ru                                   
    384    101    350
