       N       E                     dE             d eps       ncg     rms          rms(c)
RMM:   1     0.170276326266E+04    0.17028E+04   -0.68293E+04 35350   0.443E+02
RMM:   2    -0.243188393469E+01   -0.17052E+04   -0.16101E+04 35350   0.154E+02
RMM:   3    -0.319524640957E+03   -0.31709E+03   -0.18063E+03 35350   0.634E+01
RMM:   4    -0.413386423466E+03   -0.93862E+02   -0.37566E+02 35350   0.354E+01
RMM:   5    -0.425292373178E+03   -0.11906E+02   -0.77278E+01 35350   0.147E+01
RMM:   6    -0.427519986745E+03   -0.22276E+01   -0.16259E+01 35350   0.733E+00
RMM:   7    -0.427929153833E+03   -0.40917E+00   -0.37907E+00 35350   0.337E+00
RMM:   8    -0.428030117838E+03   -0.10096E+00   -0.96456E-01 35350   0.187E+00
RMM:   9    -0.428065288763E+03   -0.35171E-01   -0.34809E-01 70700   0.951E-01
RMM:  10    -0.428069016701E+03   -0.37279E-02   -0.37185E-02 76478   0.245E-01
RMM:  11    -0.428069188029E+03   -0.17133E-03   -0.17174E-03 65470   0.752E-02
RMM:  12    -0.428069211251E+03   -0.23222E-04   -0.23080E-04 65135   0.156E-02    0.292E+01
RMM:  13    -0.417523880815E+03    0.10545E+02   -0.37859E+01 70700   0.121E+01    0.251E+01
RMM:  14    -0.418177650044E+03   -0.65377E+00   -0.80298E+00 70700   0.477E+00    0.264E+01
RMM:  15    -0.412225214919E+03    0.59524E+01   -0.38597E+00 70700   0.332E+00    0.191E+01
RMM:  16    -0.406918888270E+03    0.53063E+01   -0.17329E+00 70700   0.216E+00    0.461E+00
RMM:  17    -0.406683244015E+03    0.23564E+00   -0.18448E-01 70700   0.675E-01    0.317E+00
RMM:  18    -0.406552669801E+03    0.13057E+00   -0.66000E-02 70700   0.413E-01    0.237E+00
RMM:  19    -0.406470812621E+03    0.81857E-01   -0.35105E-02 70700   0.308E-01    0.103E+00
RMM:  20    -0.406482460413E+03   -0.11648E-01   -0.25028E-02 70700   0.263E-01    0.166E+00
RMM:  21    -0.406447158571E+03    0.35302E-01   -0.10944E-02 70700   0.175E-01    0.451E-01
RMM:  22    -0.406444576337E+03    0.25822E-02   -0.16522E-03 70700   0.652E-02    0.183E-01
RMM:  23    -0.406444897383E+03   -0.32105E-03   -0.60021E-04 70700   0.391E-02    0.222E-01
RMM:  24    -0.406444492390E+03    0.40499E-03   -0.32966E-04 70700   0.297E-02    0.118E-01
RMM:  25    -0.406444323943E+03    0.16845E-03   -0.93658E-05 70700   0.154E-02    0.454E-02
RMM:  26    -0.406444345866E+03   -0.21923E-04   -0.35016E-05 62241   0.950E-03    0.555E-02
RMM:  27    -0.406444310704E+03    0.35163E-04   -0.17950E-05 48748   0.758E-03    0.240E-02
RMM:  28    -0.406444301929E+03    0.87741E-05   -0.48922E-06 38708   0.408E-03
    1 T=  2814. E= -.38789039E+03 F= -.40644430E+03 E0= -.39747564E+03  EK= 0.18554E+02 SP= 0.00E+00 SK= 0.00E+00
       N       E                     dE             d eps       ncg     rms          rms(c)
RMM:   1    -0.406231958549E+03    0.21235E+00   -0.25582E+01 70700   0.591E+00    0.598E-01
RMM:   2    -0.406313022994E+03   -0.81064E-01   -0.51548E-01 70700   0.101E+00    0.162E+00
RMM:   3    -0.406282294829E+03    0.30728E-01   -0.56051E-02 70774   0.316E-01    0.435E-01
RMM:   4    -0.406280828652E+03    0.14662E-02   -0.35908E-03 70700   0.109E-01    0.380E-01
RMM:   5    -0.406279963503E+03    0.86515E-03   -0.36764E-04 70700   0.292E-02    0.343E-01
RMM:   6    -0.406279209611E+03    0.75389E-03   -0.12208E-03 70700   0.503E-02    0.362E-01
RMM:   7    -0.406277197710E+03    0.20119E-02   -0.71411E-03 70700   0.106E-01    0.177E-01
RMM:   8    -0.406276958154E+03    0.23956E-03   -0.78990E-04 70700   0.433E-02    0.907E-02
RMM:   9    -0.406276858895E+03    0.99259E-04   -0.91106E-05 70700   0.147E-02    0.781E-02
RMM:  10    -0.406276760136E+03    0.98759E-04   -0.41790E-05 70675   0.940E-03    0.537E-02
RMM:  11    -0.406276711535E+03    0.48601E-04   -0.48188E-05 70673   0.930E-03    0.445E-02
RMM:  12    -0.406276665879E+03    0.45656E-04   -0.10315E-04 70700   0.128E-02    0.160E-02
RMM:  13    -0.406276665045E+03    0.83382E-06   -0.94504E-06 38631   0.517E-03
    2 T=  2789. E= -.38789001E+03 F= -.40627667E+03 E0= -.39731580E+03  EK= 0.18387E+02 SP= 0.00E+00 SK= 0.00E+00
       N       E                     dE             d eps       ncg     rms          rms(c)
RMM:   1    -0.406113775653E+03    0.16289E+00   -0.11841E-01 70700   0.515E-01    0.108E-01
RMM:   2    -0.406114109563E+03   -0.33391E-03   -0.36538E-03 70700   0.900E-02    0.167E-01
RMM:   3    -0.406113770770E+03    0.33879E-03   -0.38303E-04 70700   0.286E-02    0.734E-02
RMM:   4    -0.406113699588E+03    0.71181E-04   -0.17697E-04 70700   0.189E-02    0.694E-02
RMM:   5    -0.406113633926E+03    0.65662E-04   -0.49802E-05 70561   0.101E-02    0.199E-02
RMM:   6    -0.406113639672E+03   -0.57460E-05   -0.14569E-05 44742   0.613E-03
    3 T=  2764. E= -.38789052E+03 F= -.40611364E+03 E0= -.39716060E+03  EK= 0.18223E+02 SP= 0.00E+00 SK= 0.00E+00
       N       E                     dE             d eps       ncg     rms          rms(c)
RMM:   1    -0.405959968148E+03    0.15367E+00   -0.95866E-03 70700   0.117E-01    0.111E-01
RMM:   2    -0.405959666220E+03    0.30193E-03   -0.66592E-04 70700   0.432E-02    0.110E-01
RMM:   3    -0.405959495056E+03    0.17116E-03   -0.84688E-05 70700   0.147E-02    0.310E-02
RMM:   4    -0.405959485255E+03    0.98016E-05   -0.16918E-05 47620   0.640E-03
    4 T=  2741. E= -.38788992E+03 F= -.40595949E+03 E0= -.39701458E+03  EK= 0.18070E+02 SP= 0.00E+00 SK= 0.00E+00
       N       E                     dE             d eps       ncg     rms          rms(c)
RMM:   1    -0.405820638450E+03    0.13886E+00   -0.13100E-02 70700   0.129E-01    0.109E-01
RMM:   2    -0.405820330966E+03    0.30748E-03   -0.61177E-04 70700   0.414E-02    0.105E-01
RMM:   3    -0.405820183913E+03    0.14705E-03   -0.68326E-05 70699   0.133E-02    0.276E-02
RMM:   4    -0.405820172553E+03    0.11360E-04   -0.16003E-05 45141   0.627E-03    0.279E-02
RMM:   5    -0.405820157930E+03    0.14623E-04   -0.15053E-05 40832   0.660E-03    0.117E-02
RMM:   6    -0.405820155956E+03    0.19743E-05   -0.49139E-06 39194   0.405E-03
    5 T=  2720. E= -.38788942E+03 F= -.40582016E+03 E0= -.39688343E+03  EK= 0.17931E+02 SP= 0.00E+00 SK= 0.00E+00
       N       E                     dE             d eps       ncg     rms          rms(c)
RMM:   1    -0.405700511962E+03    0.11965E+00   -0.15295E-02 70700   0.138E-01    0.117E-01
RMM:   2    -0.405700279817E+03    0.23214E-03   -0.10176E-03 70700   0.547E-02    0.127E-01
RMM:   3    -0.405700041783E+03    0.23803E-03   -0.11471E-04 70700   0.178E-02    0.338E-02
RMM:   4    -0.405700029338E+03    0.12444E-04   -0.10385E-05 42303   0.543E-03    0.826E-03
RMM:   5    -0.405700029845E+03   -0.50660E-06   -0.26884E-06 39909   0.292E-03
    6 T=  2702. E= -.38788925E+03 F= -.40570003E+03 E0= -.39677139E+03  EK= 0.17811E+02 SP= 0.00E+00 SK= 0.00E+00
       N       E                     dE             d eps       ncg     rms          rms(c)
RMM:   1    -0.405603136115E+03    0.96893E-01   -0.15075E-02 70700   0.135E-01    0.973E-02
RMM:   2    -0.405602733626E+03    0.40249E-03   -0.47480E-04 70700   0.381E-02    0.304E-02
RMM:   3    -0.405602721305E+03    0.12321E-04   -0.13919E-05 47462   0.584E-03    0.640E-03
RMM:   4    -0.405602722257E+03   -0.95162E-06   -0.33252E-06 40550   0.356E-03
    7 T=  2687. E= -.38788942E+03 F= -.40560272E+03 E0= -.39668217E+03  EK= 0.17713E+02 SP= 0.00E+00 SK= 0.00E+00
       N       E                     dE             d eps       ncg     rms          rms(c)
RMM:   1    -0.405530727971E+03    0.71993E-01   -0.14602E-02 70700   0.132E-01    0.928E-02
RMM:   2    -0.405530343248E+03    0.38472E-03   -0.47870E-04 70700   0.387E-02    0.237E-02
RMM:   3    -0.405530334999E+03    0.82487E-05   -0.12916E-05 46085   0.544E-03    0.587E-03
RMM:   4    -0.405530335091E+03   -0.92296E-07   -0.31742E-06 40487   0.361E-03
    8 T=  2676. E= -.38788949E+03 F= -.40553034E+03 E0= -.39661786E+03  EK= 0.17641E+02 SP= 0.00E+00 SK= 0.00E+00
       N       E                     dE             d eps       ncg     rms          rms(c)
RMM:   1    -0.405483077218E+03    0.47258E-01   -0.13912E-02 70700   0.131E-01    0.902E-02
RMM:   2    -0.405482700858E+03    0.37636E-03   -0.44141E-04 70700   0.369E-02    0.174E-02
RMM:   3    -0.405482697362E+03    0.34964E-05   -0.10721E-05 44977   0.484E-03    0.576E-03
RMM:   4    -0.405482697970E+03   -0.60859E-06   -0.25109E-06 40427   0.321E-03
    9 T=  2669. E= -.38788971E+03 F= -.40548270E+03 E0= -.39657824E+03  EK= 0.17593E+02 SP= 0.00E+00 SK= 0.00E+00
       N       E                     dE             d eps       ncg     rms          rms(c)
RMM:   1    -0.405460447279E+03    0.22250E-01   -0.14547E-02 70700   0.132E-01    0.885E-02
RMM:   2    -0.405460080845E+03    0.36643E-03   -0.43491E-04 70700   0.368E-02    0.102E-02
RMM:   3    -0.405460080785E+03    0.59950E-07   -0.10562E-05 45013   0.461E-03    0.650E-03
RMM:   4    -0.405460080693E+03    0.91979E-07   -0.23626E-06 40446   0.311E-03
   10 T=  2665. E= -.38788844E+03 F= -.40546008E+03 E0= -.39656361E+03  EK= 0.17572E+02 SP= 0.00E+00 SK= 0.00E+00
       N       E                     dE             d eps       ncg     rms          rms(c)
RMM:   1    -0.405466500277E+03   -0.64195E-02   -0.14641E-02 70700   0.133E-01    0.868E-02
RMM:   2    -0.405466143831E+03    0.35645E-03   -0.42966E-04 70700   0.368E-02    0.102E-02
RMM:   3    -0.405466143814E+03    0.17135E-07   -0.10486E-05 44825   0.458E-03    0.711E-03
RMM:   4    -0.405466142373E+03    0.14411E-05   -0.23274E-06 40420   0.310E-03
   11 T=  2666. E= -.38788868E+03 F= -.40546614E+03 E0= -.39657768E+03  EK= 0.17577E+02 SP= 0.00E+00 SK= 0.00E+00
       N       E                     dE             d eps       ncg     rms          rms(c)
RMM:   1    -0.405497980389E+03   -0.31837E-01   -0.15596E-02 70700   0.137E-01    0.852E-02
RMM:   2    -0.405497633357E+03    0.34703E-03   -0.42148E-04 70700   0.362E-02    0.901E-03
RMM:   3    -0.405497633604E+03   -0.24716E-06   -0.10247E-05 45008   0.453E-03    0.635E-03
RMM:   4    -0.405497633928E+03   -0.32345E-06   -0.23176E-06 40450   0.302E-03
   12 T=  2671. E= -.38788971E+03 F= -.40549763E+03 E0= -.39661715E+03  EK= 0.17608E+02 SP= 0.00E+00 SK= 0.00E+00
       N       E                     dE             d eps       ncg     rms          rms(c)
RMM:   1    -0.405553820052E+03   -0.56186E-01   -0.16464E-02 70700   0.139E-01    0.841E-02
RMM:   2    -0.405553480144E+03    0.33991E-03   -0.42670E-04 70700   0.370E-02    0.715E-03
RMM:   3    -0.405553481071E+03   -0.92675E-06   -0.10562E-05 45293   0.449E-03    0.674E-03
RMM:   4    -0.405553480876E+03    0.19458E-06   -0.21888E-06 40471   0.298E-03
   13 T=  2679. E= -.38789091E+03 F= -.40555348E+03 E0= -.39668104E+03  EK= 0.17663E+02 SP= 0.00E+00 SK= 0.00E+00
       N       E                     dE             d eps       ncg     rms          rms(c)
RMM:   1    -0.405630934362E+03   -0.77453E-01   -0.17822E-02 70700   0.144E-01    0.831E-02
RMM:   2    -0.405630609391E+03    0.32497E-03   -0.44273E-04 70700   0.378E-02    0.191E-02
RMM:   3    -0.405630604511E+03    0.48803E-05   -0.11074E-05 45932   0.489E-03    0.526E-03
RMM:   4    -0.405630604853E+03   -0.34212E-06   -0.24190E-06 40542   0.317E-03
   14 T=  2691. E= -.38789171E+03 F= -.40563060E+03 E0= -.39676629E+03  EK= 0.17739E+02 SP= 0.00E+00 SK= 0.00E+00
       N       E                     dE             d eps       ncg     rms          rms(c)
RMM:   1    -0.405725029791E+03   -0.94425E-01   -0.19527E-02 70700   0.150E-01    0.821E-02
RMM:   2    -0.405724711225E+03    0.31857E-03   -0.46521E-04 70700   0.389E-02    0.158E-02
RMM:   3    -0.405724707871E+03    0.33537E-05   -0.10767E-05 45941   0.477E-03    0.565E-03
RMM:   4    -0.405724708273E+03   -0.40245E-06   -0.23352E-06 40596   0.311E-03
   15 T=  2705. E= -.38789166E+03 F= -.40572471E+03 E0= -.39686852E+03  EK= 0.17833E+02 SP= 0.00E+00 SK= 0.00E+00
       N       E                     dE             d eps       ncg     rms          rms(c)
RMM:   1    -0.405832187856E+03   -0.10748E+00   -0.20783E-02 70700   0.154E-01    0.814E-02
RMM:   2    -0.405831874431E+03    0.31343E-03   -0.46108E-04 70700   0.393E-02    0.175E-02
RMM:   3    -0.405831871035E+03    0.33960E-05   -0.11177E-05 46509   0.478E-03    0.489E-03
RMM:   4    -0.405831870993E+03    0.42379E-07   -0.22456E-06 40630   0.311E-03
   16 T=  2721. E= -.38789152E+03 F= -.40583187E+03 E0= -.39698391E+03  EK= 0.17940E+02 SP= 0.00E+00 SK= 0.00E+00
       N       E                     dE             d eps       ncg     rms          rms(c)
RMM:   1    -0.405948508180E+03   -0.11664E+00   -0.21903E-02 70700   0.157E-01    0.799E-02
RMM:   2    -0.405948206181E+03    0.30200E-03   -0.46702E-04 70700   0.399E-02    0.160E-02
RMM:   3    -0.405948202943E+03    0.32383E-05   -0.11843E-05 46601   0.485E-03    0.526E-03
RMM:   4    -0.405948203674E+03   -0.73087E-06   -0.23437E-06 40633   0.307E-03
   17 T=  2739. E= -.38789145E+03 F= -.40594820E+03 E0= -.39710848E+03  EK= 0.18057E+02 SP= 0.00E+00 SK= 0.00E+00
       N       E                     dE             d eps       ncg     rms          rms(c)
RMM:   1    -0.406071741440E+03   -0.12354E+00   -0.22173E-02 70700   0.157E-01    0.796E-02
RMM:   2    -0.406071443512E+03    0.29793E-03   -0.45880E-04 70700   0.400E-02    0.186E-02
RMM:   3    -0.406071438711E+03    0.48013E-05   -0.13252E-05 47505   0.522E-03    0.571E-03
RMM:   4    -0.406071438962E+03   -0.25187E-06   -0.28356E-06 40687   0.344E-03
   18 T=  2758. E= -.38789198E+03 F= -.40607144E+03 E0= -.39723993E+03  EK= 0.18179E+02 SP= 0.00E+00 SK= 0.00E+00
       N       E                     dE             d eps       ncg     rms          rms(c)
RMM:   1    -0.406195571981E+03   -0.12413E+00   -0.22718E-02 70700   0.159E-01    0.791E-02
RMM:   2    -0.406195272995E+03    0.29899E-03   -0.46755E-04 70700   0.403E-02    0.180E-02
RMM:   3    -0.406195269687E+03    0.33080E-05   -0.12614E-05 47267   0.496E-03    0.521E-03
RMM:   4    -0.406195269987E+03   -0.30090E-06   -0.26333E-06 40611   0.329E-03
   19 T=  2776. E= -.38789221E+03 F= -.40619527E+03 E0= -.39737197E+03  EK= 0.18303E+02 SP= 0.00E+00 SK= 0.00E+00
       N       E                     dE             d eps       ncg     rms          rms(c)
RMM:   1    -0.406313844619E+03   -0.11857E+00   -0.23600E-02 70700   0.162E-01    0.794E-02
RMM:   2    -0.406313547175E+03    0.29744E-03   -0.47886E-04 70700   0.405E-02    0.954E-03
RMM:   3    -0.406313547631E+03   -0.45544E-06   -0.11857E-05 46869   0.473E-03    0.720E-03
RMM:   4    -0.406313548071E+03   -0.44019E-06   -0.21997E-06 40624   0.295E-03
   20 T=  2794. E= -.38789248E+03 F= -.40631355E+03 E0= -.39749836E+03  EK= 0.18421E+02 SP= 0.00E+00 SK= 0.00E+00
       N       E                     dE             d eps       ncg     rms          rms(c)
RMM:   1    -0.406421463139E+03   -0.10792E+00   -0.22739E-02 70700   0.159E-01    0.765E-02
RMM:   2    -0.406421174741E+03    0.28840E-03   -0.46009E-04 70700   0.399E-02    0.111E-02
RMM:   3    -0.406421173694E+03    0.10470E-05   -0.11587E-05 46627   0.472E-03    0.721E-03
RMM:   4    -0.406421173079E+03    0.61455E-06   -0.23936E-06 40644   0.307E-03
   21 T=  2811. E= -.38789266E+03 F= -.40642117E+03 E0= -.39761396E+03  EK= 0.18529E+02 SP= 0.00E+00 SK= 0.00E+00
       N       E                     dE             d eps       ncg     rms          rms(c)
RMM:   1    -0.406514013887E+03   -0.92840E-01   -0.22696E-02 70700   0.159E-01    0.794E-02
RMM:   2    -0.406513716930E+03    0.29696E-03   -0.46427E-04 70700   0.401E-02    0.174E-02
RMM:   3    -0.406513713068E+03    0.38616E-05   -0.12460E-05 47077   0.508E-03    0.480E-03
RMM:   4    -0.406513713466E+03   -0.39857E-06   -0.25675E-06 40620   0.326E-03
   22 T=  2825. E= -.38789295E+03 F= -.40651371E+03 E0= -.39771422E+03  EK= 0.18621E+02 SP= 0.00E+00 SK= 0.00E+00
       N       E                     dE             d eps       ncg     rms          rms(c)
RMM:   1    -0.406587960434E+03   -0.74247E-01   -0.22889E-02 70700   0.160E-01    0.783E-02
RMM:   2    -0.406587665918E+03    0.29452E-03   -0.47141E-04 70700   0.407E-02    0.123E-02
RMM:   3    -0.406587664782E+03    0.11356E-05   -0.12294E-05 46843   0.487E-03    0.569E-03
RMM:   4    -0.406587665100E+03   -0.31750E-06   -0.24448E-06 40609   0.312E-03
   23 T=  2836. E= -.38789326E+03 F= -.40658767E+03 E0= -.39779564E+03  EK= 0.18694E+02 SP= 0.00E+00 SK= 0.00E+00
       N       E                     dE             d eps       ncg     rms          rms(c)
RMM:   1    -0.406638449936E+03   -0.50785E-01   -0.23949E-02 70700   0.164E-01    0.768E-02
RMM:   2    -0.406638158116E+03    0.29182E-03   -0.47282E-04 70700   0.408E-02    0.101E-02
RMM:   3    -0.406638157429E+03    0.68757E-06   -0.12654E-05 47151   0.484E-03    0.560E-03
RMM:   4    -0.406638157533E+03   -0.10426E-06   -0.22207E-06 40644   0.294E-03
   24 T=  2844. E= -.38789204E+03 F= -.40663816E+03 E0= -.39785325E+03  EK= 0.18746E+02 SP= 0.00E+00 SK= 0.00E+00
       N       E                     dE             d eps       ncg     rms          rms(c)
RMM:   1    -0.406664302201E+03   -0.26145E-01   -0.25020E-02 70700   0.166E-01    0.788E-02
RMM:   2    -0.406664004927E+03    0.29727E-03   -0.49662E-04 70700   0.420E-02    0.833E-03
RMM:   3    -0.406664005117E+03   -0.18988E-06   -0.12301E-05 47068   0.477E-03    0.663E-03
RMM:   4    -0.406664004904E+03    0.21304E-06   -0.22489E-06 40663   0.299E-03
   25 T=  2848. E= -.38789130E+03 F= -.40666400E+03 E0= -.39788584E+03  EK= 0.18773E+02 SP= 0.00E+00 SK= 0.00E+00
       N       E                     dE             d eps       ncg     rms          rms(c)
RMM:   1    -0.406665684860E+03   -0.16797E-02   -0.24951E-02 70700   0.165E-01    0.769E-02
RMM:   2    -0.406665393352E+03    0.29151E-03   -0.49424E-04 70700   0.420E-02    0.816E-03
RMM:   3    -0.406665393682E+03   -0.33048E-06   -0.12145E-05 46771   0.472E-03    0.624E-03
RMM:   4    -0.406665393427E+03    0.25503E-06   -0.22281E-06 40632   0.290E-03
   26 T=  2848. E= -.38789103E+03 F= -.40666539E+03 E0= -.39789355E+03  EK= 0.18774E+02 SP= 0.00E+00 SK= 0.00E+00
       N       E                     dE             d eps       ncg     rms          rms(c)
RMM:   1    -0.406642142215E+03    0.23251E-01   -0.25487E-02 70700   0.168E-01    0.773E-02
RMM:   2    -0.406641850449E+03    0.29177E-03   -0.49840E-04 70700   0.422E-02    0.125E-02
RMM:   3    -0.406641849189E+03    0.12595E-05   -0.12516E-05 47179   0.485E-03    0.503E-03
RMM:   4    -0.406641849074E+03    0.11545E-06   -0.21809E-06 40640   0.293E-03
   27 T=  2844. E= -.38789051E+03 F= -.40664185E+03 E0= -.39787589E+03  EK= 0.18751E+02 SP= 0.00E+00 SK= 0.00E+00
       N       E                     dE             d eps       ncg     rms          rms(c)
RMM:   1    -0.406591172500E+03    0.50677E-01   -0.26554E-02 70700   0.171E-01    0.783E-02
RMM:   2    -0.406590876417E+03    0.29608E-03   -0.51865E-04 70700   0.433E-02    0.667E-03
RMM:   3    -0.406590877237E+03   -0.81949E-06   -0.12740E-05 47400   0.479E-03    0.648E-03
RMM:   4    -0.406590877108E+03    0.12830E-06   -0.22000E-06 40689   0.291E-03
   28 T=  2837. E= -.38788912E+03 F= -.40659088E+03 E0= -.39783031E+03  EK= 0.18702E+02 SP= 0.00E+00 SK= 0.00E+00
       N       E                     dE             d eps       ncg     rms          rms(c)
RMM:   1    -0.406516132083E+03    0.74745E-01   -0.27564E-02 70700   0.174E-01    0.782E-02
RMM:   2    -0.406515837786E+03    0.29430E-03   -0.53180E-04 70700   0.439E-02    0.933E-03
RMM:   3    -0.406515837825E+03   -0.39585E-07   -0.12867E-05 47672   0.491E-03    0.774E-03
RMM:   4    -0.406515837416E+03    0.40902E-06   -0.24263E-06 40729   0.311E-03
   29 T=  2825. E= -.38788995E+03 F= -.40651584E+03 E0= -.39776014E+03  EK= 0.18626E+02 SP= 0.00E+00 SK= 0.00E+00
       N       E                     dE             d eps       ncg     rms          rms(c)
RMM:   1    -0.406417008060E+03    0.98830E-01   -0.28594E-02 70700   0.178E-01    0.790E-02
RMM:   2    -0.406416714656E+03    0.29340E-03   -0.55353E-04 70700   0.448E-02    0.142E-02
RMM:   3    -0.406416713075E+03    0.15818E-05   -0.13265E-05 48096   0.503E-03    0.604E-03
RMM:   4    -0.406416713468E+03   -0.39397E-06   -0.24553E-06 40732   0.319E-03
   30 T=  2810. E= -.38788946E+03 F= -.40641671E+03 E0= -.39766532E+03  EK= 0.18527E+02 SP= 0.00E+00 SK= 0.00E+00
       N       E                     dE             d eps       ncg     rms          rms(c)
RMM:   1    -0.406300458756E+03    0.11625E+00   -0.28874E-02 70700   0.178E-01    0.777E-02
RMM:   2    -0.406300169248E+03    0.28951E-03   -0.55076E-04 70700   0.447E-02    0.106E-02
RMM:   3    -0.406300169103E+03    0.14529E-06   -0.13469E-05 48323   0.499E-03    0.673E-03
RMM:   4    -0.406300168835E+03    0.26801E-06   -0.24791E-06 40759   0.314E-03
   31 T=  2793. E= -.38788881E+03 F= -.40630017E+03 E0= -.39755239E+03  EK= 0.18411E+02 SP= 0.00E+00 SK= 0.00E+00
       N       E                     dE             d eps       ncg     rms          rms(c)
RMM:   1    -0.406170486471E+03    0.12968E+00   -0.28244E-02 70700   0.176E-01    0.794E-02
RMM:   2    -0.406170197734E+03    0.28874E-03   -0.54590E-04 70700   0.445E-02    0.219E-02
RMM:   3    -0.406170191992E+03    0.57423E-05   -0.14211E-05 48924   0.542E-03    0.718E-03
RMM:   4    -0.406170191932E+03    0.59365E-07   -0.29352E-06 40770   0.346E-03
   32 T=  2773. E= -.38788811E+03 F= -.40617019E+03 E0= -.39742531E+03  EK= 0.18282E+02 SP= 0.00E+00 SK= 0.00E+00
       N       E                     dE             d eps       ncg     rms          rms(c)
RMM:   1    -0.406028264959E+03    0.14193E+00   -0.26689E-02 70700   0.171E-01    0.773E-02
RMM:   2    -0.406027977330E+03    0.28763E-03   -0.52476E-04 70700   0.437E-02    0.141E-02
RMM:   3    -0.406027976144E+03    0.11853E-05   -0.13850E-05 48433   0.508E-03    0.704E-03
RMM:   4    -0.406027976092E+03    0.52536E-07   -0.27980E-06 40803   0.335E-03
   33 T=  2752. E= -.38788730E+03 F= -.40602798E+03 E0= -.39728519E+03  EK= 0.18141E+02 SP= 0.00E+00 SK= 0.00E+00
       N       E                     dE             d eps       ncg     rms          rms(c)
RMM:   1    -0.405878416308E+03    0.14956E+00   -0.25833E-02 70700   0.169E-01    0.812E-02
RMM:   2    -0.405878125074E+03    0.29123E-03   -0.52573E-04 70700   0.433E-02    0.285E-02
RMM:   3    -0.405878114571E+03    0.10503E-04   -0.15354E-05 49544   0.581E-03    0.675E-03
RMM:   4    -0.405878114757E+03   -0.18593E-06   -0.30428E-06 40772   0.347E-03
   34 T=  2729. E= -.38788702E+03 F= -.40587811E+03 E0= -.39713641E+03  EK= 0.17991E+02 SP= 0.00E+00 SK= 0.00E+00
       N       E                     dE             d eps       ncg     rms          rms(c)
RMM:   1    -0.405725862483E+03    0.15225E+00   -0.26874E-02 70700   0.171E-01    0.798E-02
RMM:   2    -0.405725571503E+03    0.29098E-03   -0.54249E-04 70700   0.440E-02    0.193E-02
RMM:   3    -0.405725566946E+03    0.45574E-05   -0.13739E-05 48416   0.527E-03    0.583E-03
RMM:   4    -0.405725566956E+03   -0.10612E-07   -0.28379E-06 40738   0.344E-03
   35 T=  2706. E= -.38788681E+03 F= -.40572557E+03 E0= -.39698398E+03  EK= 0.17839E+02 SP= 0.00E+00 SK= 0.00E+00
       N       E                     dE             d eps       ncg     rms          rms(c)
RMM:   1    -0.405573285408E+03    0.15228E+00   -0.25545E-02 70700   0.167E-01    0.804E-02
RMM:   2    -0.405572986055E+03    0.29935E-03   -0.53502E-04 70700   0.435E-02    0.141E-02
RMM:   3    -0.405572983911E+03    0.21446E-05   -0.12493E-05 47673   0.493E-03    0.555E-03
RMM:   4    -0.405572983931E+03   -0.20227E-07   -0.23621E-06 40704   0.315E-03
   36 T=  2683. E= -.38788590E+03 F= -.40557298E+03 E0= -.39683029E+03  EK= 0.17687E+02 SP= 0.00E+00 SK= 0.00E+00
       N       E                     dE             d eps       ncg     rms          rms(c)
RMM:   1    -0.405423057082E+03    0.14993E+00   -0.24885E-02 70700   0.166E-01    0.793E-02
RMM:   2    -0.405422764074E+03    0.29301E-03   -0.52791E-04 70700   0.433E-02    0.179E-02
RMM:   3    -0.405422760814E+03    0.32608E-05   -0.13257E-05 48103   0.505E-03    0.607E-03
RMM:   4    -0.405422760716E+03    0.97727E-07   -0.24106E-06 40717   0.318E-03
   37 T=  2660. E= -.38788498E+03 F= -.40542276E+03 E0= -.39667771E+03  EK= 0.17538E+02 SP= 0.00E+00 SK= 0.00E+00
       N       E                     dE             d eps       ncg     rms          rms(c)
RMM:   1    -0.405277482860E+03    0.14528E+00   -0.25078E-02 70700   0.167E-01    0.828E-02
RMM:   2    -0.405277178008E+03    0.30485E-03   -0.54682E-04 70700   0.441E-02    0.173E-02
RMM:   3    -0.405277174649E+03    0.33590E-05   -0.13574E-05 48154   0.509E-03    0.560E-03
RMM:   4    -0.405277174608E+03    0.40796E-07   -0.24985E-06 40731   0.321E-03
   38 T=  2638. E= -.38788466E+03 F= -.40527717E+03 E0= -.39652840E+03  EK= 0.17393E+02 SP= 0.00E+00 SK= 0.00E+00
       N       E                     dE             d eps       ncg     rms          rms(c)
RMM:   1    -0.405139408862E+03    0.13777E+00   -0.25048E-02 70700   0.166E-01    0.815E-02
RMM:   2    -0.405139104925E+03    0.30394E-03   -0.53943E-04 70700   0.437E-02    0.162E-02
RMM:   3    -0.405139102531E+03    0.23939E-05   -0.13575E-05 48244   0.513E-03    0.680E-03
RMM:   4    -0.405139102487E+03    0.44463E-07   -0.26173E-06 40728   0.327E-03
   39 T=  2617. E= -.38788438E+03 F= -.40513910E+03 E0= -.39638510E+03  EK= 0.17255E+02 SP= 0.00E+00 SK= 0.00E+00
       N       E                     dE             d eps       ncg     rms          rms(c)
RMM:   1    -0.405013171379E+03    0.12593E+00   -0.25270E-02 70700   0.167E-01    0.834E-02
RMM:   2    -0.405012861139E+03    0.31024E-03   -0.56956E-04 70700   0.448E-02    0.173E-02
RMM:   3    -0.405012857943E+03    0.31961E-05   -0.13324E-05 48061   0.511E-03    0.590E-03
RMM:   4    -0.405012857778E+03    0.16414E-06   -0.24950E-06 40711   0.323E-03
   40 T=  2598. E= -.38788432E+03 F= -.40501286E+03 E0= -.39625220E+03  EK= 0.17129E+02 SP= 0.00E+00 SK= 0.00E+00
       N       E                     dE             d eps       ncg     rms          rms(c)
RMM:   1    -0.404899378826E+03    0.11348E+00   -0.26485E-02 70700   0.170E-01    0.841E-02
RMM:   2    -0.404899066540E+03    0.31229E-03   -0.60114E-04 70700   0.463E-02    0.189E-02
RMM:   3    -0.404899062765E+03    0.37743E-05   -0.13984E-05 48613   0.512E-03    0.459E-03
RMM:   4    -0.404899062944E+03   -0.17886E-06   -0.23553E-06 40711   0.312E-03
   41 T=  2581. E= -.38788347E+03 F= -.40489906E+03 E0= -.39613025E+03  EK= 0.17016E+02 SP= 0.00E+00 SK= 0.00E+00
       N       E                     dE             d eps       ncg     rms          rms(c)
RMM:   1    -0.404799527556E+03    0.99535E-01   -0.27338E-02 70700   0.171E-01    0.848E-02
RMM:   2    -0.404799213635E+03    0.31392E-03   -0.62177E-04 70700   0.471E-02    0.243E-02
RMM:   3    -0.404799206408E+03    0.72268E-05   -0.15084E-05 49316   0.543E-03    0.480E-03
RMM:   4    -0.404799206962E+03   -0.55380E-06   -0.26173E-06 40767   0.328E-03
   42 T=  2566. E= -.38788306E+03 F= -.40479921E+03 E0= -.39602075E+03  EK= 0.16916E+02 SP= 0.00E+00 SK= 0.00E+00
       N       E                     dE             d eps       ncg     rms          rms(c)
RMM:   1    -0.404714400006E+03    0.84806E-01   -0.27014E-02 70700   0.171E-01    0.860E-02
RMM:   2    -0.404714076286E+03    0.32372E-03   -0.63179E-04 70700   0.475E-02    0.202E-02
RMM:   3    -0.404714071468E+03    0.48177E-05   -0.15034E-05 49201   0.538E-03    0.556E-03
RMM:   4    -0.404714071771E+03   -0.30236E-06   -0.26840E-06 40769   0.333E-03
   43 T=  2553. E= -.38788278E+03 F= -.40471407E+03 E0= -.39592457E+03  EK= 0.16831E+02 SP= 0.00E+00 SK= 0.00E+00
       N       E                     dE             d eps       ncg     rms          rms(c)
RMM:   1    -0.404645199530E+03    0.68872E-01   -0.26361E-02 70700   0.169E-01    0.876E-02
RMM:   2    -0.404644859870E+03    0.33966E-03   -0.64302E-04 70700   0.477E-02    0.149E-02
RMM:   3    -0.404644857839E+03    0.20312E-05   -0.14113E-05 48486   0.504E-03    0.488E-03
RMM:   4    -0.404644858048E+03   -0.20883E-06   -0.21550E-06 40699   0.295E-03
   44 T=  2543. E= -.38788299E+03 F= -.40464486E+03 E0= -.39584301E+03  EK= 0.16762E+02 SP= 0.00E+00 SK= 0.00E+00
       N       E                     dE             d eps       ncg     rms          rms(c)
RMM:   1    -0.404591039793E+03    0.53818E-01   -0.25720E-02 70700   0.169E-01    0.890E-02
RMM:   2    -0.404590688515E+03    0.35128E-03   -0.66983E-04 70700   0.489E-02    0.124E-02
RMM:   3    -0.404590687700E+03    0.81531E-06   -0.14440E-05 48496   0.504E-03    0.568E-03
RMM:   4    -0.404590688034E+03   -0.33402E-06   -0.23588E-06 40675   0.305E-03
   45 T=  2535. E= -.38788186E+03 F= -.40459069E+03 E0= -.39577535E+03  EK= 0.16709E+02 SP= 0.00E+00 SK= 0.00E+00
       N       E                     dE             d eps       ncg     rms          rms(c)
RMM:   1    -0.404558148168E+03    0.32540E-01   -0.24651E-02 70700   0.167E-01    0.890E-02
RMM:   2    -0.404557788304E+03    0.35986E-03   -0.64490E-04 70700   0.474E-02    0.809E-03
RMM:   3    -0.404557788858E+03   -0.55425E-06   -0.14385E-05 48350   0.493E-03    0.635E-03
RMM:   4    -0.404557788620E+03    0.23859E-06   -0.22156E-06 40695   0.292E-03
   46 T=  2530. E= -.38788158E+03 F= -.40455779E+03 E0= -.39572787E+03  EK= 0.16676E+02 SP= 0.00E+00 SK= 0.00E+00
       N       E                     dE             d eps       ncg     rms          rms(c)
RMM:   1    -0.404546085020E+03    0.11704E-01   -0.24262E-02 70700   0.165E-01    0.913E-02
RMM:   2    -0.404545713569E+03    0.37145E-03   -0.66876E-04 70700   0.486E-02    0.155E-02
RMM:   3    -0.404545711165E+03    0.24039E-05   -0.14535E-05 48567   0.512E-03    0.451E-03
RMM:   4    -0.404545711296E+03   -0.13043E-06   -0.22305E-06 40693   0.303E-03
   47 T=  2528. E= -.38788118E+03 F= -.40454571E+03 E0= -.39570031E+03  EK= 0.16665E+02 SP= 0.00E+00 SK= 0.00E+00
       N       E                     dE             d eps       ncg     rms          rms(c)
RMM:   1    -0.404554066054E+03   -0.83549E-02   -0.25092E-02 70700   0.167E-01    0.937E-02
RMM:   2    -0.404553679171E+03    0.38688E-03   -0.72239E-04 70700   0.508E-02    0.160E-02
RMM:   3    -0.404553676735E+03    0.24368E-05   -0.15862E-05 49134   0.531E-03    0.501E-03
RMM:   4    -0.404553677084E+03   -0.34982E-06   -0.25716E-06 40676   0.323E-03
   48 T=  2529. E= -.38788156E+03 F= -.40455368E+03 E0= -.39569208E+03  EK= 0.16672E+02 SP= 0.00E+00 SK= 0.00E+00
       N       E                     dE             d eps       ncg     rms          rms(c)
RMM:   1    -0.404580026540E+03   -0.26350E-01   -0.26196E-02 70700   0.170E-01    0.953E-02
RMM:   2    -0.404579625848E+03    0.40069E-03   -0.75546E-04 70700   0.519E-02    0.126E-02
RMM:   3    -0.404579625170E+03    0.67850E-06   -0.15551E-05 48850   0.515E-03    0.610E-03
RMM:   4    -0.404579625066E+03    0.10433E-06   -0.22501E-06 40697   0.297E-03
   49 T=  2533. E= -.38788134E+03 F= -.40457963E+03 E0= -.39570125E+03  EK= 0.16698E+02 SP= 0.00E+00 SK= 0.00E+00
       N       E                     dE             d eps       ncg     rms          rms(c)
RMM:   1    -0.404625243306E+03   -0.45618E-01   -0.24915E-02 70700   0.169E-01    0.955E-02
RMM:   2    -0.404624834196E+03    0.40911E-03   -0.74313E-04 70700   0.511E-02    0.963E-03
RMM:   3    -0.404624834322E+03   -0.12625E-06   -0.15481E-05 48774   0.515E-03    0.671E-03
RMM:   4    -0.404624834220E+03    0.10178E-06   -0.25053E-06 40683   0.312E-03
   50 T=  2540. E= -.38788131E+03 F= -.40462483E+03 E0= -.39572931E+03  EK= 0.16744E+02 SP= 0.00E+00 SK= 0.00E+00
       N       E                     dE             d eps       ncg     rms          rms(c)
RMM:   1    -0.404690860850E+03   -0.66027E-01   -0.24203E-02 70700   0.166E-01    0.976E-02
RMM:   2    -0.404690434882E+03    0.42597E-03   -0.75125E-04 70700   0.513E-02    0.761E-03
RMM:   3    -0.404690436053E+03   -0.11717E-05   -0.15990E-05 48956   0.520E-03    0.779E-03
RMM:   4    -0.404690435574E+03    0.47929E-06   -0.24350E-06 40681   0.302E-03
   51 T=  2550. E= -.38788134E+03 F= -.40469044E+03 E0= -.39577755E+03  EK= 0.16809E+02 SP= 0.00E+00 SK= 0.00E+00
       N       E                     dE             d eps       ncg     rms          rms(c)
RMM:   1    -0.404773627537E+03   -0.83191E-01   -0.23339E-02 70700   0.162E-01    0.997E-02
RMM:   2    -0.404773191113E+03    0.43642E-03   -0.78352E-04 70700   0.525E-02    0.182E-02
RMM:   3    -0.404773188048E+03    0.30643E-05   -0.15601E-05 48812   0.532E-03    0.555E-03
RMM:   4    -0.404773188224E+03   -0.17566E-06   -0.25021E-06 40663   0.318E-03
   52 T=  2562. E= -.38788160E+03 F= -.40477319E+03 E0= -.39584287E+03  EK= 0.16892E+02 SP= 0.00E+00 SK= 0.00E+00
       N       E                     dE             d eps       ncg     rms          rms(c)
RMM:   1    -0.404869481607E+03   -0.96294E-01   -0.24028E-02 70700   0.166E-01    0.101E-01
RMM:   2    -0.404869030497E+03    0.45111E-03   -0.83333E-04 70700   0.545E-02    0.176E-02
RMM:   3    -0.404869027285E+03    0.32114E-05   -0.16858E-05 49650   0.552E-03    0.523E-03
RMM:   4    -0.404869027665E+03   -0.37994E-06   -0.27531E-06 40696   0.334E-03
   53 T=  2577. E= -.38788110E+03 F= -.40486903E+03 E0= -.39592140E+03  EK= 0.16988E+02 SP= 0.00E+00 SK= 0.00E+00
       N       E                     dE             d eps       ncg     rms          rms(c)
RMM:   1    -0.404981160235E+03   -0.11213E+00   -0.23984E-02 70700   0.166E-01    0.102E-01
RMM:   2    -0.404980695702E+03    0.46453E-03   -0.82825E-04 70700   0.535E-02    0.113E-02
RMM:   3    -0.404980695274E+03    0.42821E-06   -0.16017E-05 48797   0.522E-03    0.575E-03
RMM:   4    -0.404980695198E+03    0.76001E-07   -0.24393E-06 40616   0.309E-03
   54 T=  2594. E= -.38788238E+03 F= -.40498070E+03 E0= -.39601612E+03  EK= 0.17098E+02 SP= 0.00E+00 SK= 0.00E+00
       N       E                     dE             d eps       ncg     rms          rms(c)
RMM:   1    -0.405104622902E+03   -0.12393E+00   -0.25513E-02 70700   0.172E-01    0.104E-01
RMM:   2    -0.405104155076E+03    0.46783E-03   -0.88972E-04 70700   0.563E-02    0.185E-02
RMM:   3    -0.405104152055E+03    0.30215E-05   -0.17328E-05 50090   0.562E-03    0.871E-03
RMM:   4    -0.405104151512E+03    0.54276E-06   -0.29618E-06 40726   0.348E-03
   55 T=  2612. E= -.38788216E+03 F= -.40510415E+03 E0= -.39612306E+03  EK= 0.17222E+02 SP= 0.00E+00 SK= 0.00E+00
       N       E                     dE             d eps       ncg     rms          rms(c)
RMM:   1    -0.405237382726E+03   -0.13323E+00   -0.25993E-02 70700   0.172E-01    0.106E-01
RMM:   2    -0.405236903605E+03    0.47912E-03   -0.90128E-04 70700   0.564E-02    0.219E-02
RMM:   3    -0.405236898630E+03    0.49746E-05   -0.18752E-05 51010   0.591E-03    0.722E-03
RMM:   4    -0.405236898429E+03    0.20050E-06   -0.30543E-06 40750   0.357E-03
   56 T=  2633. E= -.38788122E+03 F= -.40523690E+03 E0= -.39623995E+03  EK= 0.17356E+02 SP= 0.00E+00 SK= 0.00E+00
       N       E                     dE             d eps       ncg     rms          rms(c)
RMM:   1    -0.405379087853E+03   -0.14219E+00   -0.26665E-02 70700   0.174E-01    0.108E-01
RMM:   2    -0.405378594040E+03    0.49381E-03   -0.90915E-04 70700   0.566E-02    0.188E-02
RMM:   3    -0.405378590842E+03    0.31973E-05   -0.18539E-05 50613   0.574E-03    0.755E-03
RMM:   4    -0.405378590698E+03    0.14449E-06   -0.30065E-06 40737   0.350E-03
   57 T=  2654. E= -.38788154E+03 F= -.40537859E+03 E0= -.39636662E+03  EK= 0.17497E+02 SP= 0.00E+00 SK= 0.00E+00
       N       E                     dE             d eps       ncg     rms          rms(c)
RMM:   1    -0.405528560182E+03   -0.14997E+00   -0.26661E-02 70700   0.174E-01    0.106E-01
RMM:   2    -0.405528062077E+03    0.49811E-03   -0.92602E-04 70700   0.571E-02    0.161E-02
RMM:   3    -0.405528059996E+03    0.20806E-05   -0.18193E-05 50227   0.562E-03    0.495E-03
RMM:   4    -0.405528060245E+03   -0.24907E-06   -0.26470E-06 40700   0.322E-03
   58 T=  2677. E= -.38788217E+03 F= -.40552806E+03 E0= -.39650209E+03  EK= 0.17646E+02 SP= 0.00E+00 SK= 0.00E+00
       N       E                     dE             d eps       ncg     rms          rms(c)
RMM:   1    -0.405683402211E+03   -0.15534E+00   -0.26554E-02 70700   0.175E-01    0.108E-01
RMM:   2    -0.405682892314E+03    0.50990E-03   -0.92792E-04 70700   0.573E-02    0.126E-02
RMM:   3    -0.405682891835E+03    0.47822E-06   -0.19132E-05 50831   0.565E-03    0.609E-03
RMM:   4    -0.405682891968E+03   -0.13278E-06   -0.27106E-06 40690   0.322E-03
   59 T=  2700. E= -.38788177E+03 F= -.40568289E+03 E0= -.39664403E+03  EK= 0.17801E+02 SP= 0.00E+00 SK= 0.00E+00
       N       E                     dE             d eps       ncg     rms          rms(c)
RMM:   1    -0.405839887794E+03   -0.15700E+00   -0.26602E-02 70700   0.175E-01    0.109E-01
RMM:   2    -0.405839368355E+03    0.51944E-03   -0.96433E-04 70700   0.585E-02    0.144E-02
RMM:   3    -0.405839366999E+03    0.13560E-05   -0.19030E-05 50594   0.568E-03    0.588E-03
RMM:   4    -0.405839367360E+03   -0.36103E-06   -0.28709E-06 40703   0.336E-03
   60 T=  2724. E= -.38788075E+03 F= -.40583937E+03 E0= -.39678888E+03  EK= 0.17959E+02 SP= 0.00E+00 SK= 0.00E+00
       N       E                     dE             d eps       ncg     rms          rms(c)
RMM:   1    -0.405997193838E+03   -0.15783E+00   -0.28523E-02 70700   0.179E-01    0.110E-01
RMM:   2    -0.405996667276E+03    0.52656E-03   -0.97499E-04 70700   0.586E-02    0.189E-02
RMM:   3    -0.405996663958E+03    0.33174E-05   -0.20014E-05 51330   0.585E-03    0.519E-03
RMM:   4    -0.405996664249E+03   -0.29111E-06   -0.28474E-06 40764   0.336E-03
   61 T=  2748. E= -.38788033E+03 F= -.40599666E+03 E0= -.39693593E+03  EK= 0.18116E+02 SP= 0.00E+00 SK= 0.00E+00
       N       E                     dE             d eps       ncg     rms          rms(c)
RMM:   1    -0.406154138048E+03   -0.15747E+00   -0.28458E-02 70700   0.180E-01    0.110E-01
RMM:   2    -0.406153607162E+03    0.53089E-03   -0.97977E-04 70700   0.588E-02    0.163E-02
RMM:   3    -0.406153605161E+03    0.20008E-05   -0.19359E-05 51021   0.578E-03    0.702E-03
RMM:   4    -0.406153605122E+03    0.38846E-07   -0.29800E-06 40742   0.341E-03
   62 T=  2772. E= -.38788140E+03 F= -.40615361E+03 E0= -.39708408E+03  EK= 0.18272E+02 SP= 0.00E+00 SK= 0.00E+00
       N       E                     dE             d eps       ncg     rms          rms(c)
RMM:   1    -0.406305818081E+03   -0.15221E+00   -0.28528E-02 70700   0.180E-01    0.111E-01
RMM:   2    -0.406305280328E+03    0.53775E-03   -0.10022E-03 70700   0.596E-02    0.217E-02
RMM:   3    -0.406305274854E+03    0.54738E-05   -0.19498E-05 51228   0.601E-03    0.592E-03
RMM:   4    -0.406305275238E+03   -0.38419E-06   -0.31535E-06 40787   0.358E-03
   63 T=  2795. E= -.38788067E+03 F= -.40630528E+03 E0= -.39722849E+03  EK= 0.18425E+02 SP= 0.00E+00 SK= 0.00E+00
       N       E                     dE             d eps       ncg     rms          rms(c)
RMM:   1    -0.406453796336E+03   -0.14852E+00   -0.29231E-02 70700   0.183E-01    0.111E-01
RMM:   2    -0.406453254315E+03    0.54202E-03   -0.98162E-04 70700   0.585E-02    0.225E-02
RMM:   3    -0.406453248382E+03    0.59327E-05   -0.20346E-05 51716   0.610E-03    0.534E-03
RMM:   4    -0.406453248775E+03   -0.39301E-06   -0.32303E-06 40795   0.361E-03
   64 T=  2817. E= -.38787999E+03 F= -.40645325E+03 E0= -.39737071E+03  EK= 0.18573E+02 SP= 0.00E+00 SK= 0.00E+00
       N       E                     dE             d eps       ncg     rms          rms(c)
RMM:   1    -0.406595993416E+03   -0.14275E+00   -0.29577E-02 70700   0.181E-01    0.110E-01
RMM:   2    -0.406595456390E+03    0.53703E-03   -0.97509E-04 70700   0.587E-02    0.253E-02
RMM:   3    -0.406595449171E+03    0.72195E-05   -0.21357E-05 52312   0.625E-03    0.693E-03
RMM:   4    -0.406595449308E+03   -0.13766E-06   -0.34224E-06 40825   0.371E-03
   65 T=  2839. E= -.38788054E+03 F= -.40659545E+03 E0= -.39750863E+03  EK= 0.18715E+02 SP= 0.00E+00 SK= 0.00E+00
       N       E                     dE             d eps       ncg     rms          rms(c)
RMM:   1    -0.406728608870E+03   -0.13316E+00   -0.30765E-02 70700   0.187E-01    0.112E-01
RMM:   2    -0.406728062610E+03    0.54626E-03   -0.98838E-04 70700   0.593E-02    0.167E-02
RMM:   3    -0.406728060642E+03    0.19673E-05   -0.21386E-05 52115   0.609E-03    0.699E-03
RMM:   4    -0.406728060893E+03   -0.25088E-06   -0.32007E-06 40804   0.355E-03
   66 T=  2859. E= -.38788112E+03 F= -.40672806E+03 E0= -.39763832E+03  EK= 0.18847E+02 SP= 0.00E+00 SK= 0.00E+00
       N       E                     dE             d eps       ncg     rms          rms(c)
RMM:   1    -0.406850128196E+03   -0.12207E+00   -0.31400E-02 70700   0.188E-01    0.112E-01
RMM:   2    -0.406849582225E+03    0.54597E-03   -0.10049E-03 70700   0.596E-02    0.266E-02
RMM:   3    -0.406849573798E+03    0.84272E-05   -0.22338E-05 52872   0.648E-03    0.664E-03
RMM:   4    -0.406849574223E+03   -0.42457E-06   -0.34941E-06 40862   0.375E-03
   67 T=  2877. E= -.38788107E+03 F= -.40684957E+03 E0= -.39775810E+03  EK= 0.18969E+02 SP= 0.00E+00 SK= 0.00E+00
       N       E                     dE             d eps       ncg     rms          rms(c)
RMM:   1    -0.406959511209E+03   -0.10994E+00   -0.31249E-02 70700   0.186E-01    0.110E-01
RMM:   2    -0.406958967220E+03    0.54399E-03   -0.98344E-04 70700   0.590E-02    0.146E-02
RMM:   3    -0.406958966238E+03    0.98201E-06   -0.20667E-05 51516   0.591E-03    0.717E-03
RMM:   4    -0.406958966207E+03    0.31327E-07   -0.30157E-06 40756   0.339E-03
   68 T=  2894. E= -.38788065E+03 F= -.40695897E+03 E0= -.39786676E+03  EK= 0.19078E+02 SP= 0.00E+00 SK= 0.00E+00
       N       E                     dE             d eps       ncg     rms          rms(c)
RMM:   1    -0.407057826244E+03   -0.98860E-01   -0.31430E-02 70700   0.188E-01    0.111E-01
RMM:   2    -0.407057285133E+03    0.54111E-03   -0.98139E-04 70700   0.585E-02    0.200E-02
RMM:   3    -0.407057280986E+03    0.41467E-05   -0.20817E-05 51903   0.610E-03    0.649E-03
RMM:   4    -0.407057281176E+03   -0.19010E-06   -0.33242E-06 40790   0.367E-03
   69 T=  2909. E= -.38788173E+03 F= -.40705728E+03 E0= -.39796511E+03  EK= 0.19176E+02 SP= 0.00E+00 SK= 0.00E+00
       N       E                     dE             d eps       ncg     rms          rms(c)
RMM:   1    -0.407140229968E+03   -0.82949E-01   -0.32590E-02 70700   0.190E-01    0.112E-01
RMM:   2    -0.407139683822E+03    0.54615E-03   -0.10093E-03 70700   0.599E-02    0.106E-02
RMM:   3    -0.407139684344E+03   -0.52154E-06   -0.20010E-05 51199   0.574E-03    0.778E-03
RMM:   4    -0.407139684183E+03    0.16111E-06   -0.29478E-06 40826   0.325E-03
   70 T=  2921. E= -.38788158E+03 F= -.40713968E+03 E0= -.39804808E+03  EK= 0.19258E+02 SP= 0.00E+00 SK= 0.00E+00
       N       E                     dE             d eps       ncg     rms          rms(c)
RMM:   1    -0.407206677566E+03   -0.66993E-01   -0.32895E-02 70700   0.192E-01    0.109E-01
RMM:   2    -0.407206156138E+03    0.52143E-03   -0.95598E-04 70700   0.582E-02    0.207E-02
RMM:   3    -0.407206151866E+03    0.42714E-05   -0.21301E-05 52157   0.616E-03    0.609E-03
RMM:   4    -0.407206152069E+03   -0.20232E-06   -0.32497E-06 40855   0.358E-03
   71 T=  2931. E= -.38788162E+03 F= -.40720615E+03 E0= -.39811541E+03  EK= 0.19325E+02 SP= 0.00E+00 SK= 0.00E+00
       N       E                     dE             d eps       ncg     rms          rms(c)
RMM:   1    -0.407257672629E+03   -0.51521E-01   -0.32575E-02 70700   0.191E-01    0.110E-01
RMM:   2    -0.407257155747E+03    0.51688E-03   -0.95475E-04 70700   0.579E-02    0.296E-02
RMM:   3    -0.407257144931E+03    0.10816E-04   -0.22135E-05 52875   0.658E-03    0.563E-03
RMM:   4    -0.407257145437E+03   -0.50591E-06   -0.34777E-06 40883   0.372E-03
   72 T=  2939. E= -.38788160E+03 F= -.40725715E+03 E0= -.39816739E+03  EK= 0.19376E+02 SP= 0.00E+00 SK= 0.00E+00
       N       E                     dE             d eps       ncg     rms          rms(c)
RMM:   1    -0.407293062920E+03   -0.35918E-01   -0.32634E-02 70700   0.190E-01    0.109E-01
RMM:   2    -0.407292547283E+03    0.51564E-03   -0.92781E-04 70700   0.571E-02    0.165E-02
RMM:   3    -0.407292545272E+03    0.20115E-05   -0.19597E-05 50908   0.577E-03    0.522E-03
RMM:   4    -0.407292545515E+03   -0.24325E-06   -0.27365E-06 40812   0.321E-03
   73 T=  2944. E= -.38788183E+03 F= -.40729255E+03 E0= -.39820362E+03  EK= 0.19411E+02 SP= 0.00E+00 SK= 0.00E+00
       N       E                     dE             d eps       ncg     rms          rms(c)
RMM:   1    -0.407312091781E+03   -0.19547E-01   -0.32957E-02 70700   0.191E-01    0.108E-01
RMM:   2    -0.407311583940E+03    0.50784E-03   -0.92586E-04 70700   0.572E-02    0.153E-02
RMM:   3    -0.407311582344E+03    0.15953E-05   -0.20006E-05 51360   0.582E-03    0.542E-03
RMM:   4    -0.407311582559E+03   -0.21505E-06   -0.27876E-06 40852   0.330E-03
   74 T=  2947. E= -.38788225E+03 F= -.40731158E+03 E0= -.39822330E+03  EK= 0.19429E+02 SP= 0.00E+00 SK= 0.00E+00
       N       E                     dE             d eps       ncg     rms          rms(c)
RMM:   1    -0.407313686346E+03   -0.21040E-02   -0.33985E-02 70700   0.194E-01    0.109E-01
RMM:   2    -0.407313184436E+03    0.50191E-03   -0.93186E-04 70700   0.574E-02    0.153E-02
RMM:   3    -0.407313182726E+03    0.17099E-05   -0.20075E-05 51178   0.587E-03    0.622E-03
RMM:   4    -0.407313183100E+03   -0.37393E-06   -0.29987E-06 40914   0.341E-03
   75 T=  2948. E= -.38788151E+03 F= -.40731318E+03 E0= -.39822523E+03  EK= 0.19432E+02 SP= 0.00E+00 SK= 0.00E+00
       N       E                     dE             d eps       ncg     rms          rms(c)
RMM:   1    -0.407301412378E+03    0.11770E-01   -0.33210E-02 70700   0.192E-01    0.107E-01
RMM:   2    -0.407300917310E+03    0.49507E-03   -0.88278E-04 70700   0.555E-02    0.110E-02
RMM:   3    -0.407300917639E+03   -0.32847E-06   -0.19208E-05 50790   0.566E-03    0.777E-03
RMM:   4    -0.407300917275E+03    0.36327E-06   -0.27486E-06 40846   0.321E-03
   76 T=  2946. E= -.38788062E+03 F= -.40730092E+03 E0= -.39821296E+03  EK= 0.19420E+02 SP= 0.00E+00 SK= 0.00E+00
       N       E                     dE             d eps       ncg     rms          rms(c)
RMM:   1    -0.407278143407E+03    0.22774E-01   -0.32623E-02 70700   0.191E-01    0.106E-01
RMM:   2    -0.407277669131E+03    0.47428E-03   -0.86105E-04 70700   0.550E-02    0.258E-02
RMM:   3    -0.407277661126E+03    0.80049E-05   -0.19796E-05 51530   0.608E-03    0.551E-03
RMM:   4    -0.407277661351E+03   -0.22555E-06   -0.31263E-06 40889   0.356E-03
   77 T=  2942. E= -.38788026E+03 F= -.40727766E+03 E0= -.39818941E+03  EK= 0.19397E+02 SP= 0.00E+00 SK= 0.00E+00
       N       E                     dE             d eps       ncg     rms          rms(c)
RMM:   1    -0.407242901444E+03    0.34760E-01   -0.32848E-02 70700   0.190E-01    0.108E-01
RMM:   2    -0.407242411367E+03    0.49008E-03   -0.88369E-04 70700   0.560E-02    0.136E-02
RMM:   3    -0.407242410501E+03    0.86642E-06   -0.19045E-05 50742   0.564E-03    0.586E-03
RMM:   4    -0.407242410798E+03   -0.29779E-06   -0.26939E-06 40832   0.314E-03
   78 T=  2937. E= -.38788030E+03 F= -.40724241E+03 E0= -.39815363E+03  EK= 0.19362E+02 SP= 0.00E+00 SK= 0.00E+00
       N       E                     dE             d eps       ncg     rms          rms(c)
RMM:   1    -0.407194214748E+03    0.48196E-01   -0.32729E-02 70700   0.190E-01    0.107E-01
RMM:   2    -0.407193737598E+03    0.47715E-03   -0.86227E-04 70700   0.553E-02    0.197E-02
RMM:   3    -0.407193733859E+03    0.37392E-05   -0.19084E-05 50978   0.587E-03    0.642E-03
RMM:   4    -0.407193734008E+03   -0.14903E-06   -0.31311E-06 40894   0.354E-03
   79 T=  2930. E= -.38787923E+03 F= -.40719373E+03 E0= -.39810428E+03  EK= 0.19315E+02 SP= 0.00E+00 SK= 0.00E+00
       N       E                     dE             d eps       ncg     rms          rms(c)
RMM:   1    -0.407136729322E+03    0.57005E-01   -0.33577E-02 70700   0.192E-01    0.106E-01
RMM:   2    -0.407136253031E+03    0.47629E-03   -0.84304E-04 70700   0.542E-02    0.175E-02
RMM:   3    -0.407136250158E+03    0.28722E-05   -0.19064E-05 50941   0.580E-03    0.597E-03
RMM:   4    -0.407136250282E+03   -0.12375E-06   -0.29930E-06 40886   0.347E-03
   80 T=  2921. E= -.38787941E+03 F= -.40713625E+03 E0= -.39804611E+03  EK= 0.19257E+02 SP= 0.00E+00 SK= 0.00E+00
       N       E                     dE             d eps       ncg     rms          rms(c)
RMM:   1    -0.407071521736E+03    0.64728E-01   -0.32863E-02 70700   0.190E-01    0.105E-01
RMM:   2    -0.407071050724E+03    0.47101E-03   -0.82893E-04 70700   0.540E-02    0.173E-02
RMM:   3    -0.407071048270E+03    0.24534E-05   -0.18553E-05 50578   0.576E-03    0.622E-03
RMM:   4    -0.407071048527E+03   -0.25678E-06   -0.29214E-06 40867   0.340E-03
   81 T=  2911. E= -.38787980E+03 F= -.40707105E+03 E0= -.39798034E+03  EK= 0.19191E+02 SP= 0.00E+00 SK= 0.00E+00
       N       E                     dE             d eps       ncg     rms          rms(c)
RMM:   1    -0.406999766331E+03    0.71282E-01   -0.32466E-02 70700   0.188E-01    0.105E-01
RMM:   2    -0.406999302965E+03    0.46337E-03   -0.82337E-04 70700   0.539E-02    0.255E-02
RMM:   3    -0.406999295457E+03    0.75079E-05   -0.19560E-05 51428   0.610E-03    0.545E-03
RMM:   4    -0.406999295989E+03   -0.53211E-06   -0.32529E-06 40877   0.362E-03
   82 T=  2900. E= -.38787893E+03 F= -.40699930E+03 E0= -.39790820E+03  EK= 0.19120E+02 SP= 0.00E+00 SK= 0.00E+00
       N       E                     dE             d eps       ncg     rms          rms(c)
RMM:   1    -0.406924560524E+03    0.74735E-01   -0.32617E-02 70700   0.189E-01    0.106E-01
RMM:   2    -0.406924091705E+03    0.46882E-03   -0.81785E-04 70700   0.535E-02    0.220E-02
RMM:   3    -0.406924086290E+03    0.54145E-05   -0.18620E-05 50848   0.590E-03    0.533E-03
RMM:   4    -0.406924086781E+03   -0.49041E-06   -0.31073E-06 40910   0.351E-03
   83 T=  2889. E= -.38787875E+03 F= -.40692409E+03 E0= -.39783304E+03  EK= 0.19045E+02 SP= 0.00E+00 SK= 0.00E+00
       N       E                     dE             d eps       ncg     rms          rms(c)
RMM:   1    -0.406846235257E+03    0.77851E-01   -0.31714E-02 70700   0.187E-01    0.105E-01
RMM:   2    -0.406845768287E+03    0.46697E-03   -0.79633E-04 70700   0.529E-02    0.995E-03
RMM:   3    -0.406845768646E+03   -0.35935E-06   -0.17525E-05 50071   0.545E-03    0.663E-03
RMM:   4    -0.406845768623E+03    0.23512E-07   -0.27376E-06 40857   0.319E-03
   84 T=  2877. E= -.38787786E+03 F= -.40684577E+03 E0= -.39775514E+03  EK= 0.18968E+02 SP= 0.00E+00 SK= 0.00E+00
       N       E                     dE             d eps       ncg     rms          rms(c)
RMM:   1    -0.406767346167E+03    0.78422E-01   -0.29474E-02 70700   0.181E-01    0.106E-01
RMM:   2    -0.406766876442E+03    0.46973E-03   -0.75253E-04 70700   0.510E-02    0.132E-02
RMM:   3    -0.406766875490E+03    0.95190E-06   -0.16308E-05 49237   0.538E-03    0.550E-03
RMM:   4    -0.406766875557E+03   -0.67314E-07   -0.26645E-06 40808   0.323E-03
   85 T=  2865. E= -.38787665E+03 F= -.40676688E+03 E0= -.39767721E+03  EK= 0.18890E+02 SP= 0.00E+00 SK= 0.00E+00
       N       E                     dE             d eps       ncg     rms          rms(c)
RMM:   1    -0.406690245683E+03    0.76630E-01   -0.30026E-02 70700   0.182E-01    0.104E-01
RMM:   2    -0.406689783592E+03    0.46209E-03   -0.75519E-04 70700   0.511E-02    0.142E-02
RMM:   3    -0.406689782344E+03    0.12472E-05   -0.16738E-05 49505   0.546E-03    0.573E-03
RMM:   4    -0.406689782583E+03   -0.23853E-06   -0.26717E-06 40850   0.324E-03
   86 T=  2854. E= -.38787580E+03 F= -.40668978E+03 E0= -.39760163E+03  EK= 0.18814E+02 SP= 0.00E+00 SK= 0.00E+00
       N       E                     dE             d eps       ncg     rms          rms(c)
RMM:   1    -0.406616439954E+03    0.73342E-01   -0.29808E-02 70700   0.180E-01    0.105E-01
RMM:   2    -0.406615975535E+03    0.46442E-03   -0.76061E-04 70700   0.513E-02    0.184E-02
RMM:   3    -0.406615972121E+03    0.34136E-05   -0.17001E-05 49958   0.563E-03    0.578E-03
RMM:   4    -0.406615972530E+03   -0.40880E-06   -0.28708E-06 40845   0.344E-03
   87 T=  2843. E= -.38787520E+03 F= -.40661597E+03 E0= -.39752987E+03  EK= 0.18741E+02 SP= 0.00E+00 SK= 0.00E+00
       N       E                     dE             d eps       ncg     rms          rms(c)
RMM:   1    -0.406545348988E+03    0.70623E-01   -0.28732E-02 70700   0.177E-01    0.105E-01
RMM:   2    -0.406544884133E+03    0.46486E-03   -0.74795E-04 70700   0.509E-02    0.159E-02
RMM:   3    -0.406544881934E+03    0.21986E-05   -0.16658E-05 49478   0.557E-03    0.642E-03
RMM:   4    -0.406544882212E+03   -0.27742E-06   -0.29687E-06 40849   0.345E-03
   88 T=  2832. E= -.38787415E+03 F= -.40654488E+03 E0= -.39746138E+03  EK= 0.18671E+02 SP= 0.00E+00 SK= 0.00E+00
       N       E                     dE             d eps       ncg     rms          rms(c)
RMM:   1    -0.406479887366E+03    0.64995E-01   -0.28480E-02 70700   0.177E-01    0.104E-01
RMM:   2    -0.406479428465E+03    0.45890E-03   -0.71675E-04 70700   0.496E-02    0.125E-02
RMM:   3    -0.406479427820E+03    0.64461E-06   -0.15870E-05 49191   0.530E-03    0.622E-03
RMM:   4    -0.406479427975E+03   -0.15455E-06   -0.24817E-06 40800   0.308E-03
   89 T=  2822. E= -.38787406E+03 F= -.40647943E+03 E0= -.39739899E+03  EK= 0.18605E+02 SP= 0.00E+00 SK= 0.00E+00
       N       E                     dE             d eps       ncg     rms          rms(c)
RMM:   1    -0.406419419873E+03    0.60008E-01   -0.28293E-02 70700   0.176E-01    0.104E-01
RMM:   2    -0.406418965172E+03    0.45470E-03   -0.72884E-04 70700   0.502E-02    0.131E-02
RMM:   3    -0.406418964604E+03    0.56802E-06   -0.15600E-05 48975   0.533E-03    0.780E-03
RMM:   4    -0.406418964447E+03    0.15725E-06   -0.28636E-06 40816   0.338E-03
   90 T=  2813. E= -.38787207E+03 F= -.40641896E+03 E0= -.39734195E+03  EK= 0.18547E+02 SP= 0.00E+00 SK= 0.00E+00
       N       E                     dE             d eps       ncg     rms          rms(c)
RMM:   1    -0.406368735220E+03    0.50229E-01   -0.28765E-02 70700   0.178E-01    0.104E-01
RMM:   2    -0.406368281529E+03    0.45369E-03   -0.72800E-04 70700   0.498E-02    0.179E-02
RMM:   3    -0.406368278370E+03    0.31591E-05   -0.15681E-05 49382   0.545E-03    0.559E-03
RMM:   4    -0.406368278667E+03   -0.29669E-06   -0.26577E-06 40857   0.326E-03
   91 T=  2806. E= -.38787239E+03 F= -.40636828E+03 E0= -.39729503E+03  EK= 0.18496E+02 SP= 0.00E+00 SK= 0.00E+00
       N       E                     dE             d eps       ncg     rms          rms(c)
RMM:   1    -0.406325618384E+03    0.42660E-01   -0.28931E-02 70700   0.177E-01    0.105E-01
RMM:   2    -0.406325167831E+03    0.45055E-03   -0.72922E-04 70700   0.501E-02    0.186E-02
RMM:   3    -0.406325163851E+03    0.39805E-05   -0.16103E-05 49582   0.551E-03    0.477E-03
RMM:   4    -0.406325164154E+03   -0.30288E-06   -0.25667E-06 40839   0.325E-03
   92 T=  2799. E= -.38787198E+03 F= -.40632516E+03 E0= -.39725583E+03  EK= 0.18453E+02 SP= 0.00E+00 SK= 0.00E+00
       N       E                     dE             d eps       ncg     rms          rms(c)
RMM:   1    -0.406291420909E+03    0.33743E-01   -0.28738E-02 70700   0.176E-01    0.104E-01
RMM:   2    -0.406290971333E+03    0.44958E-03   -0.71759E-04 70700   0.496E-02    0.127E-02
RMM:   3    -0.406290970392E+03    0.94073E-06   -0.15418E-05 49054   0.530E-03    0.609E-03
RMM:   4    -0.406290970616E+03   -0.22403E-06   -0.26011E-06 40829   0.322E-03
   93 T=  2794. E= -.38787181E+03 F= -.40629097E+03 E0= -.39722557E+03  EK= 0.18419E+02 SP= 0.00E+00 SK= 0.00E+00
       N       E                     dE             d eps       ncg     rms          rms(c)
RMM:   1    -0.406264956874E+03    0.26014E-01   -0.28638E-02 70700   0.176E-01    0.105E-01
RMM:   2    -0.406264510041E+03    0.44683E-03   -0.71405E-04 70700   0.495E-02    0.160E-02
RMM:   3    -0.406264507649E+03    0.23920E-05   -0.15945E-05 49358   0.549E-03    0.622E-03
RMM:   4    -0.406264507867E+03   -0.21727E-06   -0.26707E-06 40827   0.330E-03
   94 T=  2790. E= -.38787141E+03 F= -.40626451E+03 E0= -.39720291E+03  EK= 0.18393E+02 SP= 0.00E+00 SK= 0.00E+00
       N       E                     dE             d eps       ncg     rms          rms(c)
RMM:   1    -0.406246685209E+03    0.17822E-01   -0.28097E-02 70700   0.174E-01    0.104E-01
RMM:   2    -0.406246238196E+03    0.44701E-03   -0.70717E-04 70700   0.491E-02    0.110E-02
RMM:   3    -0.406246238181E+03    0.14825E-07   -0.15385E-05 49094   0.528E-03    0.719E-03
RMM:   4    -0.406246238174E+03    0.76579E-08   -0.27544E-06 40803   0.329E-03
   95 T=  2787. E= -.38787047E+03 F= -.40624624E+03 E0= -.39718829E+03  EK= 0.18376E+02 SP= 0.00E+00 SK= 0.00E+00
       N       E                     dE             d eps       ncg     rms          rms(c)
RMM:   1    -0.406239059117E+03    0.71791E-02   -0.28163E-02 70700   0.173E-01    0.103E-01
RMM:   2    -0.406238618989E+03    0.44013E-03   -0.68055E-04 70700   0.481E-02    0.150E-02
RMM:   3    -0.406238617064E+03    0.19257E-05   -0.15123E-05 49058   0.533E-03    0.551E-03
RMM:   4    -0.406238617312E+03   -0.24783E-06   -0.24911E-06 40812   0.314E-03
   96 T=  2786. E= -.38787039E+03 F= -.40623862E+03 E0= -.39718396E+03  EK= 0.18368E+02 SP= 0.00E+00 SK= 0.00E+00
       N       E                     dE             d eps       ncg     rms          rms(c)
RMM:   1    -0.406240009336E+03   -0.13923E-02   -0.27362E-02 70700   0.172E-01    0.104E-01
RMM:   2    -0.406239565167E+03    0.44417E-03   -0.69336E-04 70700   0.487E-02    0.120E-02
RMM:   3    -0.406239564476E+03    0.69058E-06   -0.14601E-05 48764   0.521E-03    0.607E-03
RMM:   4    -0.406239564588E+03   -0.11182E-06   -0.25127E-06 40785   0.317E-03
   97 T=  2786. E= -.38787036E+03 F= -.40623956E+03 E0= -.39718790E+03  EK= 0.18369E+02 SP= 0.00E+00 SK= 0.00E+00
       N       E                     dE             d eps       ncg     rms          rms(c)
RMM:   1    -0.406247375186E+03   -0.78107E-02   -0.27950E-02 70700   0.173E-01    0.103E-01
RMM:   2    -0.406246937000E+03    0.43819E-03   -0.68777E-04 70700   0.486E-02    0.125E-02
RMM:   3    -0.406246936013E+03    0.98757E-06   -0.15032E-05 49070   0.525E-03    0.597E-03
RMM:   4    -0.406246936170E+03   -0.15758E-06   -0.25213E-06 40790   0.316E-03
   98 T=  2788. E= -.38786970E+03 F= -.40624694E+03 E0= -.39719787E+03  EK= 0.18377E+02 SP= 0.00E+00 SK= 0.00E+00
       N       E                     dE             d eps       ncg     rms          rms(c)
RMM:   1    -0.406259555164E+03   -0.12619E-01   -0.28576E-02 70700   0.175E-01    0.103E-01
RMM:   2    -0.406259117189E+03    0.43798E-03   -0.69613E-04 70700   0.488E-02    0.129E-02
RMM:   3    -0.406259116199E+03    0.99009E-06   -0.14829E-05 49034   0.523E-03    0.604E-03
RMM:   4    -0.406259116389E+03   -0.18966E-06   -0.25592E-06 40785   0.320E-03
   99 T=  2790. E= -.38786926E+03 F= -.40625912E+03 E0= -.39721231E+03  EK= 0.18390E+02 SP= 0.00E+00 SK= 0.00E+00
       N       E                     dE             d eps       ncg     rms          rms(c)
RMM:   1    -0.406273841236E+03   -0.14725E-01   -0.27927E-02 70700   0.172E-01    0.102E-01
RMM:   2    -0.406273405145E+03    0.43609E-03   -0.68018E-04 70700   0.482E-02    0.118E-02
RMM:   3    -0.406273404398E+03    0.74756E-06   -0.14666E-05 48964   0.517E-03    0.529E-03
RMM:   4    -0.406273404510E+03   -0.11268E-06   -0.22442E-06 40767   0.299E-03
  100 T=  2792. E= -.38786895E+03 F= -.40627340E+03 E0= -.39722848E+03  EK= 0.18404E+02 SP= 0.00E+00 SK= 0.00E+00
       N       E                     dE             d eps       ncg     rms          rms(c)
RMM:   1    -0.406287967786E+03   -0.14563E-01   -0.27180E-02 70700   0.170E-01    0.103E-01
RMM:   2    -0.406287528543E+03    0.43924E-03   -0.66970E-04 70700   0.475E-02    0.162E-02
RMM:   3    -0.406287526264E+03    0.22789E-05   -0.14404E-05 48798   0.530E-03    0.541E-03
RMM:   4    -0.406287526632E+03   -0.36786E-06   -0.24763E-06 40755   0.320E-03
  101 T=  2794. E= -.38786820E+03 F= -.40628753E+03 E0= -.39724425E+03  EK= 0.18419E+02 SP= 0.00E+00 SK= 0.00E+00
       N       E                     dE             d eps       ncg     rms          rms(c)
RMM:   1    -0.406301299604E+03   -0.13773E-01   -0.26689E-02 70700   0.169E-01    0.101E-01
RMM:   2    -0.406300867699E+03    0.43191E-03   -0.65227E-04 70700   0.467E-02    0.140E-02
RMM:   3    -0.406300866385E+03    0.13142E-05   -0.14333E-05 48754   0.525E-03    0.639E-03
RMM:   4    -0.406300866582E+03   -0.19659E-06   -0.24779E-06 40746   0.316E-03
  102 T=  2796. E= -.38786792E+03 F= -.40630087E+03 E0= -.39725900E+03  EK= 0.18433E+02 SP= 0.00E+00 SK= 0.00E+00
       N       E                     dE             d eps       ncg     rms          rms(c)
RMM:   1    -0.406312346801E+03   -0.11480E-01   -0.26446E-02 70700   0.168E-01    0.101E-01
RMM:   2    -0.406311914931E+03    0.43187E-03   -0.63621E-04 70700   0.462E-02    0.133E-02
RMM:   3    -0.406311913729E+03    0.12021E-05   -0.14670E-05 48901   0.525E-03    0.618E-03
RMM:   4    -0.406311913880E+03   -0.15086E-06   -0.25249E-06 40738   0.316E-03
  103 T=  2798. E= -.38786802E+03 F= -.40631191E+03 E0= -.39727133E+03  EK= 0.18444E+02 SP= 0.00E+00 SK= 0.00E+00
       N       E                     dE             d eps       ncg     rms          rms(c)
RMM:   1    -0.406320252686E+03   -0.83390E-02   -0.27656E-02 70700   0.171E-01    0.102E-01
RMM:   2    -0.406319818861E+03    0.43382E-03   -0.64888E-04 70700   0.467E-02    0.133E-02
RMM:   3    -0.406319817569E+03    0.12925E-05   -0.14502E-05 48912   0.529E-03    0.616E-03
RMM:   4    -0.406319817726E+03   -0.15763E-06   -0.25256E-06 40771   0.318E-03
  104 T=  2799. E= -.38786809E+03 F= -.40631982E+03 E0= -.39728050E+03  EK= 0.18452E+02 SP= 0.00E+00 SK= 0.00E+00
       N       E                     dE             d eps       ncg     rms          rms(c)
RMM:   1    -0.406321893811E+03   -0.20762E-02   -0.27586E-02 70700   0.172E-01    0.100E-01
RMM:   2    -0.406321464360E+03    0.42945E-03   -0.64911E-04 70700   0.467E-02    0.120E-02
RMM:   3    -0.406321463525E+03    0.83529E-06   -0.14173E-05 48811   0.515E-03    0.642E-03
RMM:   4    -0.406321463809E+03   -0.28412E-06   -0.25310E-06 40788   0.317E-03
  105 T=  2799. E= -.38786754E+03 F= -.40632146E+03 E0= -.39728333E+03  EK= 0.18454E+02 SP= 0.00E+00 SK= 0.00E+00
       N       E                     dE             d eps       ncg     rms          rms(c)
RMM:   1    -0.406314453739E+03    0.70098E-02   -0.28037E-02 70700   0.172E-01    0.101E-01
RMM:   2    -0.406314025680E+03    0.42806E-03   -0.65780E-04 70700   0.471E-02    0.157E-02
RMM:   3    -0.406314023469E+03    0.22107E-05   -0.14398E-05 48974   0.526E-03    0.594E-03
RMM:   4    -0.406314023769E+03   -0.29985E-06   -0.26320E-06 40788   0.325E-03
  106 T=  2798. E= -.38786707E+03 F= -.40631402E+03 E0= -.39727711E+03  EK= 0.18447E+02 SP= 0.00E+00 SK= 0.00E+00
       N       E                     dE             d eps       ncg     rms          rms(c)
RMM:   1    -0.406297246604E+03    0.16777E-01   -0.26606E-02 70700   0.167E-01    0.994E-02
RMM:   2    -0.406296825246E+03    0.42136E-03   -0.62227E-04 70700   0.456E-02    0.221E-02
RMM:   3    -0.406296819322E+03    0.59239E-05   -0.14917E-05 49315   0.551E-03    0.539E-03
RMM:   4    -0.406296819646E+03   -0.32365E-06   -0.25712E-06 40761   0.325E-03
  107 T=  2796. E= -.38786607E+03 F= -.40629682E+03 E0= -.39726120E+03  EK= 0.18431E+02 SP= 0.00E+00 SK= 0.00E+00
       N       E                     dE             d eps       ncg     rms          rms(c)
RMM:   1    -0.406268151283E+03    0.28668E-01   -0.26533E-02 70700   0.168E-01    0.100E-01
RMM:   2    -0.406267727399E+03    0.42388E-03   -0.62177E-04 70700   0.456E-02    0.195E-02
RMM:   3    -0.406267722882E+03    0.45176E-05   -0.14502E-05 49043   0.540E-03    0.498E-03
RMM:   4    -0.406267723422E+03   -0.54052E-06   -0.26678E-06 40801   0.327E-03
  108 T=  2791. E= -.38786538E+03 F= -.40626772E+03 E0= -.39723341E+03  EK= 0.18402E+02 SP= 0.00E+00 SK= 0.00E+00
       N       E                     dE             d eps       ncg     rms          rms(c)
RMM:   1    -0.406226369536E+03    0.41353E-01   -0.27883E-02 70700   0.171E-01    0.987E-02
RMM:   2    -0.406225954370E+03    0.41517E-03   -0.62163E-04 70700   0.457E-02    0.120E-02
RMM:   3    -0.406225953666E+03    0.70395E-06   -0.13851E-05 48573   0.512E-03    0.671E-03
RMM:   4    -0.406225953805E+03   -0.13896E-06   -0.24644E-06 40770   0.310E-03
  109 T=  2785. E= -.38786557E+03 F= -.40622595E+03 E0= -.39719293E+03  EK= 0.18360E+02 SP= 0.00E+00 SK= 0.00E+00
       N       E                     dE             d eps       ncg     rms          rms(c)
RMM:   1    -0.406170640353E+03    0.55313E-01   -0.27710E-02 70700   0.170E-01    0.982E-02
RMM:   2    -0.406170228328E+03    0.41202E-03   -0.62004E-04 70700   0.456E-02    0.760E-03
RMM:   3    -0.406170229026E+03   -0.69771E-06   -0.12817E-05 47948   0.478E-03    0.739E-03
RMM:   4    -0.406170228687E+03    0.33958E-06   -0.20503E-06 40690   0.277E-03
  110 T=  2777. E= -.38786567E+03 F= -.40617023E+03 E0= -.39713850E+03  EK= 0.18305E+02 SP= 0.00E+00 SK= 0.00E+00
       N       E                     dE             d eps       ncg     rms          rms(c)
RMM:   1    -0.406100558721E+03    0.69670E-01   -0.27777E-02 70700   0.170E-01    0.969E-02
RMM:   2    -0.406100151719E+03    0.40700E-03   -0.62017E-04 70700   0.458E-02    0.101E-02
RMM:   3    -0.406100151527E+03    0.19208E-06   -0.13659E-05 48510   0.498E-03    0.649E-03
RMM:   4    -0.406100151515E+03    0.12107E-07   -0.23784E-06 40748   0.300E-03
  111 T=  2766. E= -.38786510E+03 F= -.40610015E+03 E0= -.39706971E+03  EK= 0.18235E+02 SP= 0.00E+00 SK= 0.00E+00
       N       E                     dE             d eps       ncg     rms          rms(c)
RMM:   1    -0.406019621919E+03    0.80530E-01   -0.27468E-02 70700   0.170E-01    0.991E-02
RMM:   2    -0.406019206962E+03    0.41496E-03   -0.62289E-04 70700   0.456E-02    0.148E-02
RMM:   3    -0.406019205033E+03    0.19285E-05   -0.13723E-05 48582   0.511E-03    0.606E-03
RMM:   4    -0.406019205074E+03   -0.40927E-07   -0.23800E-06 40742   0.312E-03
  112 T=  2754. E= -.38786487E+03 F= -.40601921E+03 E0= -.39699009E+03  EK= 0.18154E+02 SP= 0.00E+00 SK= 0.00E+00
       N       E                     dE             d eps       ncg     rms          rms(c)
RMM:   1    -0.405926646842E+03    0.92558E-01   -0.28241E-02 70700   0.171E-01    0.983E-02
RMM:   2    -0.405926239282E+03    0.40756E-03   -0.63499E-04 70700   0.461E-02    0.126E-02
RMM:   3    -0.405926238179E+03    0.11034E-05   -0.12514E-05 47961   0.493E-03    0.611E-03
RMM:   4    -0.405926238266E+03   -0.87457E-07   -0.23415E-06 40724   0.305E-03
  113 T=  2740. E= -.38786454E+03 F= -.40592624E+03 E0= -.39689852E+03  EK= 0.18062E+02 SP= 0.00E+00 SK= 0.00E+00
       N       E                     dE             d eps       ncg     rms          rms(c)
RMM:   1    -0.405822697048E+03    0.10354E+00   -0.27385E-02 70700   0.168E-01    0.971E-02
RMM:   2    -0.405822296148E+03    0.40090E-03   -0.61904E-04 70700   0.456E-02    0.170E-02
RMM:   3    -0.405822292893E+03    0.32550E-05   -0.12867E-05 48181   0.504E-03    0.549E-03
RMM:   4    -0.405822293111E+03   -0.21843E-06   -0.22183E-06 40710   0.301E-03
  114 T=  2724. E= -.38786379E+03 F= -.40582229E+03 E0= -.39679627E+03  EK= 0.17959E+02 SP= 0.00E+00 SK= 0.00E+00
       N       E                     dE             d eps       ncg     rms          rms(c)
RMM:   1    -0.405709580491E+03    0.11271E+00   -0.27754E-02 70700   0.170E-01    0.974E-02
RMM:   2    -0.405709179070E+03    0.40142E-03   -0.62388E-04 70700   0.461E-02    0.145E-02
RMM:   3    -0.405709177229E+03    0.18404E-05   -0.13517E-05 48901   0.508E-03    0.646E-03
RMM:   4    -0.405709177377E+03   -0.14728E-06   -0.25395E-06 40754   0.320E-03
  115 T=  2707. E= -.38786327E+03 F= -.40570918E+03 E0= -.39668519E+03  EK= 0.17846E+02 SP= 0.00E+00 SK= 0.00E+00
       N       E                     dE             d eps       ncg     rms          rms(c)
RMM:   1    -0.405587897206E+03    0.12128E+00   -0.28370E-02 70700   0.172E-01    0.968E-02
RMM:   2    -0.405587501106E+03    0.39610E-03   -0.63148E-04 70700   0.464E-02    0.165E-02
RMM:   3    -0.405587498382E+03    0.27231E-05   -0.13764E-05 48832   0.518E-03    0.589E-03
RMM:   4    -0.405587498644E+03   -0.26110E-06   -0.25287E-06 40764   0.317E-03
  116 T=  2689. E= -.38786218E+03 F= -.40558750E+03 E0= -.39656604E+03  EK= 0.17725E+02 SP= 0.00E+00 SK= 0.00E+00
       N       E                     dE             d eps       ncg     rms          rms(c)
RMM:   1    -0.405461337554E+03    0.12616E+00   -0.27988E-02 70700   0.170E-01    0.968E-02
RMM:   2    -0.405460951435E+03    0.38612E-03   -0.62457E-04 70700   0.462E-02    0.307E-02
RMM:   3    -0.405460938502E+03    0.12933E-04   -0.16338E-05 50491   0.599E-03    0.522E-03
RMM:   4    -0.405460938877E+03   -0.37480E-06   -0.28737E-06 40817   0.335E-03
  117 T=  2670. E= -.38786059E+03 F= -.40546094E+03 E0= -.39644270E+03  EK= 0.17600E+02 SP= 0.00E+00 SK= 0.00E+00
       N       E                     dE             d eps       ncg     rms          rms(c)
RMM:   1    -0.405333640087E+03    0.12730E+00   -0.27505E-02 70700   0.169E-01    0.969E-02
RMM:   2    -0.405333246592E+03    0.39350E-03   -0.61610E-04 70700   0.458E-02    0.216E-02
RMM:   3    -0.405333241016E+03    0.55757E-05   -0.14190E-05 48980   0.540E-03    0.580E-03
RMM:   4    -0.405333241285E+03   -0.26903E-06   -0.27966E-06 40807   0.333E-03
  118 T=  2651. E= -.38785931E+03 F= -.40533324E+03 E0= -.39631899E+03  EK= 0.17474E+02 SP= 0.00E+00 SK= 0.00E+00
       N       E                     dE             d eps       ncg     rms          rms(c)
RMM:   1    -0.405206844927E+03    0.12640E+00   -0.28608E-02 70700   0.171E-01    0.959E-02
RMM:   2    -0.405206454032E+03    0.39089E-03   -0.62862E-04 70700   0.467E-02    0.133E-02
RMM:   3    -0.405206452689E+03    0.13435E-05   -0.13697E-05 48691   0.498E-03    0.524E-03
RMM:   4    -0.405206452922E+03   -0.23330E-06   -0.21440E-06 40767   0.291E-03
  119 T=  2631. E= -.38785954E+03 F= -.40520645E+03 E0= -.39619700E+03  EK= 0.17347E+02 SP= 0.00E+00 SK= 0.00E+00
       N       E                     dE             d eps       ncg     rms          rms(c)
RMM:   1    -0.405081162184E+03    0.12529E+00   -0.27926E-02 70700   0.169E-01    0.965E-02
RMM:   2    -0.405080765001E+03    0.39718E-03   -0.62417E-04 70700   0.461E-02    0.118E-02
RMM:   3    -0.405080764510E+03    0.49111E-06   -0.12886E-05 48264   0.494E-03    0.757E-03
RMM:   4    -0.405080764360E+03    0.14991E-06   -0.24591E-06 40785   0.313E-03
  120 T=  2612. E= -.38785978E+03 F= -.40508076E+03 E0= -.39607693E+03  EK= 0.17221E+02 SP= 0.00E+00 SK= 0.00E+00
       N       E                     dE             d eps       ncg     rms          rms(c)
RMM:   1    -0.404961066373E+03    0.11970E+00   -0.27164E-02 70700   0.167E-01    0.951E-02
RMM:   2    -0.404960679604E+03    0.38677E-03   -0.63693E-04 70700   0.465E-02    0.217E-02
RMM:   3    -0.404960673905E+03    0.56991E-05   -0.13787E-05 48744   0.533E-03    0.656E-03
RMM:   4    -0.404960674035E+03   -0.12940E-06   -0.26572E-06 40807   0.330E-03
  121 T=  2594. E= -.38786031E+03 F= -.40496067E+03 E0= -.39596329E+03  EK= 0.17100E+02 SP= 0.00E+00 SK= 0.00E+00
       N       E                     dE             d eps       ncg     rms          rms(c)
RMM:   1    -0.404848672110E+03    0.11200E+00   -0.25811E-02 70700   0.164E-01    0.975E-02
RMM:   2    -0.404848275202E+03    0.39691E-03   -0.61133E-04 70700   0.455E-02    0.186E-02
RMM:   3    -0.404848270887E+03    0.43145E-05   -0.12969E-05 48072   0.506E-03    0.471E-03
RMM:   4    -0.404848271229E+03   -0.34118E-06   -0.22605E-06 40760   0.303E-03
  122 T=  2577. E= -.38786032E+03 F= -.40484827E+03 E0= -.39585793E+03  EK= 0.16988E+02 SP= 0.00E+00 SK= 0.00E+00
       N       E                     dE             d eps       ncg     rms          rms(c)
RMM:   1    -0.404744219139E+03    0.10405E+00   -0.24198E-02 70700   0.159E-01    0.945E-02
RMM:   2    -0.404743828032E+03    0.39111E-03   -0.58342E-04 70700   0.442E-02    0.129E-02
RMM:   3    -0.404743826675E+03    0.13576E-05   -0.12341E-05 47497   0.488E-03    0.578E-03
RMM:   4    -0.404743826959E+03   -0.28422E-06   -0.22850E-06 40720   0.305E-03
  123 T=  2561. E= -.38786026E+03 F= -.40474383E+03 E0= -.39576106E+03  EK= 0.16884E+02 SP= 0.00E+00 SK= 0.00E+00
       N       E                     dE             d eps       ncg     rms          rms(c)
RMM:   1    -0.404646744838E+03    0.97082E-01   -0.24448E-02 70700   0.161E-01    0.955E-02
RMM:   2    -0.404646353823E+03    0.39101E-03   -0.58151E-04 70700   0.442E-02    0.104E-02
RMM:   3    -0.404646353435E+03    0.38814E-06   -0.12172E-05 47399   0.476E-03    0.601E-03
RMM:   4    -0.404646353585E+03   -0.15004E-06   -0.20593E-06 40712   0.287E-03
  124 T=  2546. E= -.38785986E+03 F= -.40464635E+03 E0= -.39567138E+03  EK= 0.16786E+02 SP= 0.00E+00 SK= 0.00E+00
       N       E                     dE             d eps       ncg     rms          rms(c)
RMM:   1    -0.404559582303E+03    0.86771E-01   -0.25207E-02 70700   0.161E-01    0.953E-02
RMM:   2    -0.404559193033E+03    0.38927E-03   -0.59318E-04 70700   0.449E-02    0.861E-03
RMM:   3    -0.404559193089E+03   -0.55716E-07   -0.12746E-05 47677   0.476E-03    0.633E-03
RMM:   4    -0.404559193052E+03    0.36445E-07   -0.20868E-06 40744   0.285E-03
  125 T=  2533. E= -.38785902E+03 F= -.40455919E+03 E0= -.39559206E+03  EK= 0.16700E+02 SP= 0.00E+00 SK= 0.00E+00
       N       E                     dE             d eps       ncg     rms          rms(c)
RMM:   1    -0.404484951575E+03    0.74242E-01   -0.26237E-02 70700   0.164E-01    0.949E-02
RMM:   2    -0.404484562940E+03    0.38863E-03   -0.61516E-04 70700   0.459E-02    0.769E-03
RMM:   3    -0.404484563499E+03   -0.55958E-06   -0.13106E-05 47936   0.479E-03    0.719E-03
RMM:   4    -0.404484563122E+03    0.37785E-06   -0.20655E-06 40757   0.284E-03
  126 T=  2522. E= -.38785858E+03 F= -.40448456E+03 E0= -.39552502E+03  EK= 0.16626E+02 SP= 0.00E+00 SK= 0.00E+00
       N       E                     dE             d eps       ncg     rms          rms(c)
RMM:   1    -0.404420631521E+03    0.63932E-01   -0.26699E-02 70700   0.167E-01    0.960E-02
RMM:   2    -0.404420248172E+03    0.38335E-03   -0.61716E-04 70700   0.456E-02    0.178E-02
RMM:   3    -0.404420244733E+03    0.34389E-05   -0.12830E-05 47849   0.497E-03    0.527E-03
RMM:   4    -0.404420245145E+03   -0.41228E-06   -0.21947E-06 40780   0.301E-03
  127 T=  2512. E= -.38785853E+03 F= -.40442025E+03 E0= -.39546784E+03  EK= 0.16562E+02 SP= 0.00E+00 SK= 0.00E+00
       N       E                     dE             d eps       ncg     rms          rms(c)
RMM:   1    -0.404364627931E+03    0.55617E-01   -0.26736E-02 70700   0.166E-01    0.953E-02
RMM:   2    -0.404364243333E+03    0.38460E-03   -0.63648E-04 70700   0.463E-02    0.145E-02
RMM:   3    -0.404364241517E+03    0.18167E-05   -0.12869E-05 47900   0.490E-03    0.638E-03
RMM:   4    -0.404364241748E+03   -0.23178E-06   -0.23346E-06 40807   0.308E-03
  128 T=  2504. E= -.38785832E+03 F= -.40436424E+03 E0= -.39541819E+03  EK= 0.16506E+02 SP= 0.00E+00 SK= 0.00E+00
       N       E                     dE             d eps       ncg     rms          rms(c)
RMM:   1    -0.404315906223E+03    0.48335E-01   -0.25219E-02 70700   0.163E-01    0.958E-02
RMM:   2    -0.404315520147E+03    0.38608E-03   -0.61251E-04 70700   0.452E-02    0.178E-02
RMM:   3    -0.404315516571E+03    0.35760E-05   -0.13294E-05 47885   0.507E-03    0.502E-03
RMM:   4    -0.404315516876E+03   -0.30423E-06   -0.23229E-06 40760   0.311E-03
  129 T=  2497. E= -.38785722E+03 F= -.40431552E+03 E0= -.39537486E+03  EK= 0.16458E+02 SP= 0.00E+00 SK= 0.00E+00
       N       E                     dE             d eps       ncg     rms          rms(c)
RMM:   1    -0.404276642502E+03    0.38874E-01   -0.23942E-02 70700   0.160E-01    0.958E-02
RMM:   2    -0.404276254986E+03    0.38752E-03   -0.60273E-04 70700   0.453E-02    0.119E-02
RMM:   3    -0.404276254225E+03    0.76127E-06   -0.12795E-05 47555   0.485E-03    0.645E-03
RMM:   4    -0.404276254323E+03   -0.97654E-07   -0.24343E-06 40750   0.314E-03
  130 T=  2491. E= -.38785703E+03 F= -.40427625E+03 E0= -.39533988E+03  EK= 0.16419E+02 SP= 0.00E+00 SK= 0.00E+00
       N       E                     dE             d eps       ncg     rms          rms(c)
RMM:   1    -0.404245805966E+03    0.30448E-01   -0.23562E-02 70700   0.159E-01    0.957E-02
RMM:   2    -0.404245418068E+03    0.38790E-03   -0.59538E-04 70700   0.446E-02    0.101E-02
RMM:   3    -0.404245417689E+03    0.37948E-06   -0.12067E-05 47002   0.472E-03    0.573E-03
RMM:   4    -0.404245417705E+03   -0.15894E-07   -0.20505E-06 40739   0.287E-03
  131 T=  2486. E= -.38785697E+03 F= -.40424542E+03 E0= -.39531204E+03  EK= 0.16388E+02 SP= 0.00E+00 SK= 0.00E+00
       N       E                     dE             d eps       ncg     rms          rms(c)
RMM:   1    -0.404221284763E+03    0.24133E-01   -0.24839E-02 70700   0.163E-01    0.958E-02
RMM:   2    -0.404220898197E+03    0.38657E-03   -0.61335E-04 70700   0.452E-02    0.161E-02
RMM:   3    -0.404220895303E+03    0.28942E-05   -0.13196E-05 47794   0.508E-03    0.482E-03
RMM:   4    -0.404220895763E+03   -0.45992E-06   -0.22832E-06 40791   0.308E-03
  132 T=  2482. E= -.38785703E+03 F= -.40422090E+03 E0= -.39528920E+03  EK= 0.16364E+02 SP= 0.00E+00 SK= 0.00E+00
       N       E                     dE             d eps       ncg     rms          rms(c)
RMM:   1    -0.404204640731E+03    0.16255E-01   -0.24762E-02 70700   0.161E-01    0.960E-02
RMM:   2    -0.404204251432E+03    0.38930E-03   -0.62199E-04 70700   0.457E-02    0.132E-02
RMM:   3    -0.404204249912E+03    0.15196E-05   -0.13489E-05 47697   0.496E-03    0.497E-03
RMM:   4    -0.404204250151E+03   -0.23897E-06   -0.22084E-06 40769   0.303E-03
  133 T=  2480. E= -.38785806E+03 F= -.40420425E+03 E0= -.39527293E+03  EK= 0.16346E+02 SP= 0.00E+00 SK= 0.00E+00
       N       E                     dE             d eps       ncg     rms          rms(c)
RMM:   1    -0.404194344898E+03    0.99050E-02   -0.25491E-02 70700   0.164E-01    0.975E-02
RMM:   2    -0.404193946401E+03    0.39850E-03   -0.64450E-04 70700   0.465E-02    0.102E-02
RMM:   3    -0.404193946191E+03    0.20984E-06   -0.12971E-05 47439   0.481E-03    0.604E-03
RMM:   4    -0.404193946178E+03    0.13184E-07   -0.20768E-06 40760   0.291E-03
  134 T=  2478. E= -.38785760E+03 F= -.40419395E+03 E0= -.39526170E+03  EK= 0.16336E+02 SP= 0.00E+00 SK= 0.00E+00
       N       E                     dE             d eps       ncg     rms          rms(c)
RMM:   1    -0.404191278858E+03    0.26673E-02   -0.25155E-02 70700   0.162E-01    0.963E-02
RMM:   2    -0.404190886226E+03    0.39263E-03   -0.63798E-04 70700   0.463E-02    0.103E-02
RMM:   3    -0.404190885757E+03    0.46915E-06   -0.12528E-05 47201   0.470E-03    0.499E-03
RMM:   4    -0.404190886003E+03   -0.24608E-06   -0.18679E-06 40704   0.269E-03
  135 T=  2478. E= -.38785763E+03 F= -.40419089E+03 E0= -.39525666E+03  EK= 0.16333E+02 SP= 0.00E+00 SK= 0.00E+00
       N       E                     dE             d eps       ncg     rms          rms(c)
RMM:   1    -0.404194253934E+03   -0.33682E-02   -0.23197E-02 70700   0.158E-01    0.968E-02
RMM:   2    -0.404193853447E+03    0.40049E-03   -0.61589E-04 70700   0.452E-02    0.860E-03
[...]
RMM:   4    -0.409448465900E+03    0.34695E-07   -0.28892E-06 41154   0.331E-03
  965 T=  3299. E= -.38769797E+03 F= -.40944847E+03 E0= -.40072374E+03  EK= 0.21750E+02 SP= 0.00E+00 SK= 0.00E+00
       N       E                     dE             d eps       ncg     rms          rms(c)
RMM:   1    -0.409446107735E+03    0.23582E-02   -0.39490E-02 70700   0.211E-01    0.117E-01
RMM:   2    -0.409445541211E+03    0.56652E-03   -0.11218E-03 70700   0.637E-02    0.166E-02
RMM:   3    -0.409445540096E+03    0.11149E-05   -0.25609E-05 55141   0.663E-03    0.754E-03
RMM:   4    -0.409445540064E+03    0.31381E-07   -0.33464E-06 41205   0.365E-03
  966 T=  3299. E= -.38769895E+03 F= -.40944554E+03 E0= -.40071055E+03  EK= 0.21747E+02 SP= 0.00E+00 SK= 0.00E+00
       N       E                     dE             d eps       ncg     rms          rms(c)
RMM:   1    -0.409445891173E+03   -0.35108E-03   -0.40410E-02 70700   0.213E-01    0.119E-01
RMM:   2    -0.409445313716E+03    0.57746E-03   -0.11653E-03 70700   0.650E-02    0.235E-02
RMM:   3    -0.409445307741E+03    0.59756E-05   -0.26295E-05 55455   0.686E-03    0.507E-03
RMM:   4    -0.409445307938E+03   -0.19716E-06   -0.32514E-06 41127   0.365E-03
  967 T=  3299. E= -.38769952E+03 F= -.40944531E+03 E0= -.40069924E+03  EK= 0.21746E+02 SP= 0.00E+00 SK= 0.00E+00
       N       E                     dE             d eps       ncg     rms          rms(c)
RMM:   1    -0.409447067365E+03   -0.17596E-02   -0.41086E-02 70700   0.215E-01    0.121E-01
RMM:   2    -0.409446460559E+03    0.60681E-03   -0.11877E-03 70700   0.654E-02    0.170E-02
RMM:   3    -0.409446458897E+03    0.16618E-05   -0.26173E-05 55417   0.663E-03    0.662E-03
RMM:   4    -0.409446459056E+03   -0.15859E-06   -0.31154E-06 41206   0.349E-03
  968 T=  3299. E= -.38769906E+03 F= -.40944646E+03 E0= -.40068863E+03  EK= 0.21747E+02 SP= 0.00E+00 SK= 0.00E+00
       N       E                     dE             d eps       ncg     rms          rms(c)
RMM:   1    -0.409447662562E+03   -0.12037E-02   -0.41252E-02 70700   0.216E-01    0.122E-01
RMM:   2    -0.409447044664E+03    0.61790E-03   -0.12152E-03 70700   0.663E-02    0.174E-02
RMM:   3    -0.409447042528E+03    0.21367E-05   -0.27705E-05 56269   0.683E-03    0.567E-03
RMM:   4    -0.409447042844E+03   -0.31623E-06   -0.30256E-06 41201   0.349E-03
  969 T=  3299. E= -.38769916E+03 F= -.40944704E+03 E0= -.40067691E+03  EK= 0.21748E+02 SP= 0.00E+00 SK= 0.00E+00
       N       E                     dE             d eps       ncg     rms          rms(c)
RMM:   1    -0.409445110444E+03    0.19321E-02   -0.41675E-02 70700   0.217E-01    0.126E-01
RMM:   2    -0.409444458528E+03    0.65192E-03   -0.12640E-03 70700   0.676E-02    0.178E-02
RMM:   3    -0.409444456685E+03    0.18423E-05   -0.28264E-05 56408   0.690E-03    0.717E-03
RMM:   4    -0.409444456777E+03   -0.91772E-07   -0.32233E-06 41186   0.358E-03
  970 T=  3298. E= -.38770051E+03 F= -.40944446E+03 E0= -.40066167E+03  EK= 0.21744E+02 SP= 0.00E+00 SK= 0.00E+00
       N       E                     dE             d eps       ncg     rms          rms(c)
RMM:   1    -0.409437029860E+03    0.74268E-02   -0.41215E-02 70700   0.217E-01    0.126E-01
RMM:   2    -0.409436361920E+03    0.66794E-03   -0.12847E-03 70700   0.681E-02    0.154E-02
RMM:   3    -0.409436361302E+03    0.61781E-06   -0.28325E-05 56550   0.684E-03    0.681E-03
RMM:   4    -0.409436361637E+03   -0.33461E-06   -0.31871E-06 41186   0.352E-03
  971 T=  3297. E= -.38770177E+03 F= -.40943636E+03 E0= -.40064100E+03  EK= 0.21735E+02 SP= 0.00E+00 SK= 0.00E+00
       N       E                     dE             d eps       ncg     rms          rms(c)
RMM:   1    -0.409421136233E+03    0.15225E-01   -0.41794E-02 70700   0.217E-01    0.128E-01
RMM:   2    -0.409420446423E+03    0.68981E-03   -0.13277E-03 70700   0.693E-02    0.148E-02
RMM:   3    -0.409420446026E+03    0.39656E-06   -0.27677E-05 56151   0.672E-03    0.704E-03
RMM:   4    -0.409420446030E+03   -0.41036E-08   -0.30777E-06 41156   0.338E-03
  972 T=  3294. E= -.38770232E+03 F= -.40942045E+03 E0= -.40061289E+03  EK= 0.21718E+02 SP= 0.00E+00 SK= 0.00E+00
       N       E                     dE             d eps       ncg     rms          rms(c)
RMM:   1    -0.409396628816E+03    0.23817E-01   -0.39090E-02 70700   0.213E-01    0.129E-01
RMM:   2    -0.409395920019E+03    0.70880E-03   -0.12789E-03 70700   0.673E-02    0.164E-02
RMM:   3    -0.409395919028E+03    0.99177E-06   -0.27919E-05 56254   0.687E-03    0.782E-03
RMM:   4    -0.409395919113E+03   -0.85314E-07   -0.33292E-06 41178   0.360E-03
  973 T=  3291. E= -.38770251E+03 F= -.40939592E+03 E0= -.40057695E+03  EK= 0.21693E+02 SP= 0.00E+00 SK= 0.00E+00
       N       E                     dE             d eps       ncg     rms          rms(c)
RMM:   1    -0.409361520071E+03    0.34399E-01   -0.38284E-02 70700   0.210E-01    0.133E-01
RMM:   2    -0.409360778539E+03    0.74153E-03   -0.13210E-03 70700   0.683E-02    0.155E-02
RMM:   3    -0.409360777417E+03    0.11219E-05   -0.27387E-05 55741   0.676E-03    0.518E-03
RMM:   4    -0.409360777732E+03   -0.31483E-06   -0.29393E-06 41118   0.339E-03
  974 T=  3285. E= -.38770314E+03 F= -.40936078E+03 E0= -.40053162E+03  EK= 0.21658E+02 SP= 0.00E+00 SK= 0.00E+00
       N       E                     dE             d eps       ncg     rms          rms(c)
RMM:   1    -0.409313874769E+03    0.46903E-01   -0.36222E-02 70700   0.205E-01    0.133E-01
RMM:   2    -0.409313117840E+03    0.75693E-03   -0.13149E-03 70700   0.678E-02    0.173E-02
RMM:   3    -0.409313115845E+03    0.19955E-05   -0.26992E-05 55529   0.678E-03    0.580E-03
RMM:   4    -0.409313116047E+03   -0.20276E-06   -0.30074E-06 41091   0.348E-03
  975 T=  3278. E= -.38770387E+03 F= -.40931312E+03 E0= -.40047530E+03  EK= 0.21609E+02 SP= 0.00E+00 SK= 0.00E+00
       N       E                     dE             d eps       ncg     rms          rms(c)
RMM:   1    -0.409253033972E+03    0.60082E-01   -0.36192E-02 70700   0.207E-01    0.135E-01
RMM:   2    -0.409252256672E+03    0.77730E-03   -0.13601E-03 70700   0.690E-02    0.129E-02
RMM:   3    -0.409252257117E+03   -0.44514E-06   -0.27211E-05 55647   0.667E-03    0.733E-03
RMM:   4    -0.409252257272E+03   -0.15497E-06   -0.32811E-06 41115   0.349E-03
  976 T=  3269. E= -.38770353E+03 F= -.40925226E+03 E0= -.40040755E+03  EK= 0.21549E+02 SP= 0.00E+00 SK= 0.00E+00
       N       E                     dE             d eps       ncg     rms          rms(c)
RMM:   1    -0.409179607276E+03    0.72650E-01   -0.36009E-02 70700   0.206E-01    0.137E-01
RMM:   2    -0.409178808002E+03    0.79927E-03   -0.13735E-03 70700   0.690E-02    0.150E-02
RMM:   3    -0.409178807560E+03    0.44187E-06   -0.27544E-05 55798   0.677E-03    0.679E-03
RMM:   4    -0.409178807636E+03   -0.75550E-07   -0.30830E-06 41080   0.345E-03
  977 T=  3258. E= -.38770324E+03 F= -.40917881E+03 E0= -.40032919E+03  EK= 0.21476E+02 SP= 0.00E+00 SK= 0.00E+00
       N       E                     dE             d eps       ncg     rms          rms(c)
RMM:   1    -0.409095640514E+03    0.83167E-01   -0.35712E-02 70700   0.206E-01    0.137E-01
RMM:   2    -0.409094842988E+03    0.79753E-03   -0.13623E-03 70700   0.683E-02    0.192E-02
RMM:   3    -0.409094840195E+03    0.27931E-05   -0.27454E-05 55861   0.688E-03    0.611E-03
RMM:   4    -0.409094840333E+03   -0.13756E-06   -0.32031E-06 41107   0.362E-03
  978 T=  3245. E= -.38770293E+03 F= -.40909484E+03 E0= -.40024221E+03  EK= 0.21392E+02 SP= 0.00E+00 SK= 0.00E+00
       N       E                     dE             d eps       ncg     rms          rms(c)
RMM:   1    -0.409001873816E+03    0.92966E-01   -0.37471E-02 70700   0.210E-01    0.140E-01
RMM:   2    -0.409001043652E+03    0.83016E-03   -0.14196E-03 70700   0.699E-02    0.165E-02
RMM:   3    -0.409001042549E+03    0.11022E-05   -0.28594E-05 56740   0.692E-03    0.664E-03
RMM:   4    -0.409001042879E+03   -0.32944E-06   -0.31222E-06 41120   0.350E-03
  979 T=  3231. E= -.38770214E+03 F= -.40900104E+03 E0= -.40014720E+03  EK= 0.21299E+02 SP= 0.00E+00 SK= 0.00E+00
       N       E                     dE             d eps       ncg     rms          rms(c)
RMM:   1    -0.408900522359E+03    0.10052E+00   -0.38040E-02 70700   0.212E-01    0.139E-01
RMM:   2    -0.408899697660E+03    0.82470E-03   -0.14466E-03 70700   0.706E-02    0.174E-02
RMM:   3    -0.408899696253E+03    0.14074E-05   -0.28631E-05 56689   0.689E-03    0.740E-03
RMM:   4    -0.408899696459E+03   -0.20586E-06   -0.32094E-06 41155   0.352E-03
  980 T=  3215. E= -.38770236E+03 F= -.40889970E+03 E0= -.40004622E+03  EK= 0.21197E+02 SP= 0.00E+00 SK= 0.00E+00
       N       E                     dE             d eps       ncg     rms          rms(c)
RMM:   1    -0.408791533573E+03    0.10816E+00   -0.38574E-02 70700   0.214E-01    0.141E-01
RMM:   2    -0.408790694180E+03    0.83939E-03   -0.15044E-03 70700   0.721E-02    0.198E-02
RMM:   3    -0.408790691724E+03    0.24563E-05   -0.29338E-05 57168   0.707E-03    0.864E-03
RMM:   4    -0.408790691565E+03    0.15873E-06   -0.36153E-06 41222   0.378E-03
  981 T=  3199. E= -.38770195E+03 F= -.40879069E+03 E0= -.39993884E+03  EK= 0.21089E+02 SP= 0.00E+00 SK= 0.00E+00
       N       E                     dE             d eps       ncg     rms          rms(c)
RMM:   1    -0.408676858067E+03    0.11383E+00   -0.36921E-02 70700   0.210E-01    0.143E-01
RMM:   2    -0.408676006464E+03    0.85160E-03   -0.14991E-03 70700   0.712E-02    0.274E-02
RMM:   3    -0.408675998572E+03    0.78917E-05   -0.30462E-05 58078   0.744E-03    0.767E-03
RMM:   4    -0.408675999043E+03   -0.47099E-06   -0.37196E-06 41227   0.383E-03
  982 T=  3182. E= -.38770166E+03 F= -.40867600E+03 E0= -.39982669E+03  EK= 0.20974E+02 SP= 0.00E+00 SK= 0.00E+00
       N       E                     dE             d eps       ncg     rms          rms(c)
RMM:   1    -0.408557797031E+03    0.11820E+00   -0.36873E-02 70700   0.211E-01    0.145E-01
RMM:   2    -0.408556936524E+03    0.86051E-03   -0.15339E-03 70700   0.723E-02    0.254E-02
RMM:   3    -0.408556930034E+03    0.64901E-05   -0.29710E-05 57604   0.720E-03    0.701E-03
RMM:   4    -0.408556930245E+03   -0.21115E-06   -0.35442E-06 41154   0.377E-03
  983 T=  3164. E= -.38770130E+03 F= -.40855693E+03 E0= -.39971079E+03  EK= 0.20856E+02 SP= 0.00E+00 SK= 0.00E+00
       N       E                     dE             d eps       ncg     rms          rms(c)
RMM:   1    -0.408435262399E+03    0.12167E+00   -0.36148E-02 70700   0.210E-01    0.147E-01
RMM:   2    -0.408434387321E+03    0.87508E-03   -0.15485E-03 70700   0.724E-02    0.279E-02
RMM:   3    -0.408434379086E+03    0.82347E-05   -0.30997E-05 58620   0.749E-03    0.567E-03
RMM:   4    -0.408434379569E+03   -0.48306E-06   -0.33406E-06 41181   0.363E-03
  984 T=  3145. E= -.38769974E+03 F= -.40843438E+03 E0= -.39959170E+03  EK= 0.20735E+02 SP= 0.00E+00 SK= 0.00E+00
       N       E                     dE             d eps       ncg     rms          rms(c)
RMM:   1    -0.408311443031E+03    0.12294E+00   -0.36279E-02 70700   0.209E-01    0.145E-01
RMM:   2    -0.408310571601E+03    0.87143E-03   -0.15367E-03 70700   0.719E-02    0.138E-02
RMM:   3    -0.408310571861E+03   -0.26018E-06   -0.29476E-05 57287   0.695E-03    0.722E-03
RMM:   4    -0.408310572033E+03   -0.17139E-06   -0.31542E-06 41155   0.348E-03
  985 T=  3127. E= -.38769932E+03 F= -.40831057E+03 E0= -.39947150E+03  EK= 0.20611E+02 SP= 0.00E+00 SK= 0.00E+00
       N       E                     dE             d eps       ncg     rms          rms(c)
RMM:   1    -0.408189340544E+03    0.12123E+00   -0.36648E-02 70700   0.211E-01    0.147E-01
RMM:   2    -0.408188461206E+03    0.87934E-03   -0.15407E-03 70700   0.719E-02    0.171E-02
RMM:   3    -0.408188459979E+03    0.12268E-05   -0.29859E-05 57595   0.711E-03    0.827E-03
RMM:   4    -0.408188460066E+03   -0.87100E-07   -0.35357E-06 41176   0.373E-03
  986 T=  3108. E= -.38769914E+03 F= -.40818846E+03 E0= -.39935284E+03  EK= 0.20489E+02 SP= 0.00E+00 SK= 0.00E+00
       N       E                     dE             d eps       ncg     rms          rms(c)
RMM:   1    -0.408071295449E+03    0.11716E+00   -0.37290E-02 70700   0.212E-01    0.148E-01
RMM:   2    -0.408070408076E+03    0.88737E-03   -0.15935E-03 70700   0.732E-02    0.203E-02
RMM:   3    -0.408070405259E+03    0.28174E-05   -0.30615E-05 58350   0.723E-03    0.719E-03
RMM:   4    -0.408070405330E+03   -0.70904E-07   -0.32941E-06 41158   0.358E-03
  987 T=  3090. E= -.38769982E+03 F= -.40807041E+03 E0= -.39923813E+03  EK= 0.20371E+02 SP= 0.00E+00 SK= 0.00E+00
       N       E                     dE             d eps       ncg     rms          rms(c)
RMM:   1    -0.407952486093E+03    0.11792E+00   -0.37567E-02 70700   0.212E-01    0.151E-01
RMM:   2    -0.407951583909E+03    0.90218E-03   -0.16962E-03 70700   0.760E-02    0.310E-02
RMM:   3    -0.407951573419E+03    0.10490E-04   -0.32789E-05 60202   0.768E-03    0.767E-03
RMM:   4    -0.407951573833E+03   -0.41326E-06   -0.33545E-06 41213   0.357E-03
  988 T=  3072. E= -.38769977E+03 F= -.40795157E+03 E0= -.39912225E+03  EK= 0.20252E+02 SP= 0.00E+00 SK= 0.00E+00
       N       E                     dE             d eps       ncg     rms          rms(c)
RMM:   1    -0.407835013858E+03    0.11656E+00   -0.37217E-02 70700   0.212E-01    0.151E-01
RMM:   2    -0.407834103261E+03    0.91060E-03   -0.16397E-03 70700   0.739E-02    0.272E-02
RMM:   3    -0.407834095851E+03    0.74100E-05   -0.33878E-05 61341   0.775E-03    0.675E-03
RMM:   4    -0.407834096180E+03   -0.32924E-06   -0.32269E-06 41188   0.357E-03
  989 T=  3054. E= -.38769913E+03 F= -.40783410E+03 E0= -.39900736E+03  EK= 0.20135E+02 SP= 0.00E+00 SK= 0.00E+00
       N       E                     dE             d eps       ncg     rms          rms(c)
RMM:   1    -0.407723568931E+03    0.11053E+00   -0.35572E-02 70700   0.210E-01    0.151E-01
RMM:   2    -0.407722651044E+03    0.91789E-03   -0.16583E-03 70700   0.741E-02    0.218E-02
RMM:   3    -0.407722646896E+03    0.41476E-05   -0.31459E-05 59293   0.733E-03    0.667E-03
RMM:   4    -0.407722647179E+03   -0.28283E-06   -0.33516E-06 41116   0.360E-03
  990 T=  3037. E= -.38769938E+03 F= -.40772265E+03 E0= -.39889819E+03  EK= 0.20023E+02 SP= 0.00E+00 SK= 0.00E+00
       N       E                     dE             d eps       ncg     rms          rms(c)
RMM:   1    -0.407617022164E+03    0.10562E+00   -0.34556E-02 70700   0.205E-01    0.155E-01
RMM:   2    -0.407616070402E+03    0.95176E-03   -0.17144E-03 70700   0.754E-02    0.215E-02
RMM:   3    -0.407616067656E+03    0.27462E-05   -0.30640E-05 58714   0.731E-03    0.955E-03
RMM:   4    -0.407616067124E+03    0.53187E-06   -0.35724E-06 41101   0.369E-03
  991 T=  3021. E= -.38769963E+03 F= -.40761607E+03 E0= -.39879343E+03  EK= 0.19916E+02 SP= 0.00E+00 SK= 0.00E+00
       N       E                     dE             d eps       ncg     rms          rms(c)
RMM:   1    -0.407513449248E+03    0.10262E+00   -0.34604E-02 70700   0.205E-01    0.154E-01
RMM:   2    -0.407512497941E+03    0.95131E-03   -0.17119E-03 70700   0.756E-02    0.175E-02
RMM:   3    -0.407512496763E+03    0.11776E-05   -0.30449E-05 58678   0.710E-03    0.719E-03
RMM:   4    -0.407512496925E+03   -0.16208E-06   -0.31696E-06 41058   0.351E-03
  992 T=  3006. E= -.38769828E+03 F= -.40751250E+03 E0= -.39869134E+03  EK= 0.19814E+02 SP= 0.00E+00 SK= 0.00E+00
       N       E                     dE             d eps       ncg     rms          rms(c)
RMM:   1    -0.407417969990E+03    0.94527E-01   -0.36200E-02 70700   0.211E-01    0.155E-01
RMM:   2    -0.407417007379E+03    0.96261E-03   -0.17331E-03 70700   0.756E-02    0.197E-02
RMM:   3    -0.407417004646E+03    0.27337E-05   -0.30579E-05 58647   0.714E-03    0.733E-03
RMM:   4    -0.407417004426E+03    0.21977E-06   -0.30988E-06 41062   0.349E-03
  993 T=  2991. E= -.38769814E+03 F= -.40741700E+03 E0= -.39859703E+03  EK= 0.19719E+02 SP= 0.00E+00 SK= 0.00E+00
       N       E                     dE             d eps       ncg     rms          rms(c)
RMM:   1    -0.407326385760E+03    0.90619E-01   -0.36123E-02 70700   0.209E-01    0.157E-01
RMM:   2    -0.407325413220E+03    0.97254E-03   -0.18207E-03 70700   0.780E-02    0.289E-02
RMM:   3    -0.407325404407E+03    0.88132E-05   -0.31322E-05 59272   0.750E-03    0.884E-03
RMM:   4    -0.407325403958E+03    0.44907E-06   -0.32333E-06 41151   0.356E-03
  994 T=  2978. E= -.38769654E+03 F= -.40732540E+03 E0= -.39850639E+03  EK= 0.19629E+02 SP= 0.00E+00 SK= 0.00E+00
       N       E                     dE             d eps       ncg     rms          rms(c)
RMM:   1    -0.407240497856E+03    0.84907E-01   -0.36360E-02 70700   0.212E-01    0.158E-01
RMM:   2    -0.407239499782E+03    0.99807E-03   -0.17982E-03 70700   0.771E-02    0.187E-02
RMM:   3    -0.407239497732E+03    0.20497E-05   -0.31058E-05 59002   0.717E-03    0.583E-03
RMM:   4    -0.407239498485E+03   -0.75268E-06   -0.30712E-06 41120   0.348E-03
  995 T=  2964. E= -.38769704E+03 F= -.40723950E+03 E0= -.39842128E+03  EK= 0.19542E+02 SP= 0.00E+00 SK= 0.00E+00
       N       E                     dE             d eps       ncg     rms          rms(c)
RMM:   1    -0.407157503643E+03    0.81994E-01   -0.36211E-02 70700   0.210E-01    0.159E-01
RMM:   2    -0.407156492534E+03    0.10111E-02   -0.18228E-03 70700   0.780E-02    0.134E-02
RMM:   3    -0.407156493091E+03   -0.55719E-06   -0.32131E-05 60366   0.715E-03    0.654E-03
RMM:   4    -0.407156493473E+03   -0.38239E-06   -0.28452E-06 41118   0.334E-03
  996 T=  2952. E= -.38769629E+03 F= -.40715649E+03 E0= -.39833900E+03  EK= 0.19460E+02 SP= 0.00E+00 SK= 0.00E+00
       N       E                     dE             d eps       ncg     rms          rms(c)
RMM:   1    -0.407078722246E+03    0.77771E-01   -0.35051E-02 70700   0.209E-01    0.158E-01
RMM:   2    -0.407077721080E+03    0.10012E-02   -0.18088E-03 70700   0.773E-02    0.268E-02
RMM:   3    -0.407077713739E+03    0.73418E-05   -0.33682E-05 61693   0.761E-03    0.668E-03
RMM:   4    -0.407077713782E+03   -0.43176E-07   -0.27946E-06 41170   0.327E-03
  997 T=  2940. E= -.38769544E+03 F= -.40707771E+03 E0= -.39826077E+03  EK= 0.19382E+02 SP= 0.00E+00 SK= 0.00E+00
       N       E                     dE             d eps       ncg     rms          rms(c)
RMM:   1    -0.407005394329E+03    0.72319E-01   -0.35437E-02 70700   0.210E-01    0.162E-01
RMM:   2    -0.407004347973E+03    0.10464E-02   -0.18999E-03 70700   0.790E-02    0.281E-02
RMM:   3    -0.407004339265E+03    0.87078E-05   -0.33831E-05 61919   0.763E-03    0.652E-03
RMM:   4    -0.407004339362E+03   -0.96723E-07   -0.27577E-06 41152   0.324E-03
  998 T=  2929. E= -.38769512E+03 F= -.40700434E+03 E0= -.39818789E+03  EK= 0.19309E+02 SP= 0.00E+00 SK= 0.00E+00
       N       E                     dE             d eps       ncg     rms          rms(c)
RMM:   1    -0.406936342590E+03    0.67997E-01   -0.33572E-02 70700   0.205E-01    0.162E-01
RMM:   2    -0.406935288047E+03    0.10545E-02   -0.19314E-03 70700   0.801E-02    0.216E-02
RMM:   3    -0.406935284216E+03    0.38311E-05   -0.33054E-05 61552   0.739E-03    0.579E-03
RMM:   4    -0.406935284343E+03   -0.12684E-06   -0.26848E-06 41042   0.324E-03
  999 T=  2919. E= -.38769475E+03 F= -.40693528E+03 E0= -.39811909E+03  EK= 0.19241E+02 SP= 0.00E+00 SK= 0.00E+00
       N       E                     dE             d eps       ncg     rms          rms(c)
RMM:   1    -0.406874112573E+03    0.61172E-01   -0.34425E-02 70700   0.209E-01    0.164E-01
RMM:   2    -0.406873043007E+03    0.10696E-02   -0.18996E-03 70700   0.791E-02    0.203E-02
RMM:   3    -0.406873039969E+03    0.30383E-05   -0.32575E-05 61024   0.732E-03    0.573E-03
RMM:   4    -0.406873040362E+03   -0.39314E-06   -0.27315E-06 41101   0.329E-03
 1000 T=  2909. E= -.38769513E+03 F= -.40687304E+03 E0= -.39805684E+03  EK= 0.19178E+02 SP= 0.00E+00 SK= 0.00E+00
