Ir-Ru                                   
           1
     8.408717    3.077825   -1.239431
    -0.000000    6.319820    1.218824
     0.000000    0.000000   10.870455
   Ru
  32
Direct configuration=     1
   0.96648842  0.66354482  0.48593737
   0.23777140  0.20492858  0.00602011
   0.50090655  0.57962531  0.71284403
   0.91264727  0.15654918  0.89293031
   0.20908958  0.06095245  0.33664256
   0.00133251  0.45325615  0.81513571
   0.19230072  0.85210684  0.87279547
   0.50082073  0.88035707  0.41991962
   0.04837656  0.86798200  0.64097459
   0.61684109  0.52380622  0.52092975
   0.52843859  0.16962666  0.65862318
   0.48986000  0.79190730  0.02280918
   0.88672256  0.35791018  0.43690805
   0.24562992  0.53754121  0.06572098
   0.70618168  0.25782278  0.28456095
   0.72996823  0.32601698  0.03848880
   0.26110251  0.57058697  0.58772440
   0.76737625  0.76532257  0.67835694
   0.26532523  0.19357104  0.79504108
   0.15231554  0.80866939  0.14938295
   0.76220394  0.79700963  0.23926104
   0.67382114  0.62344422  0.89253075
   0.04756248  0.51348327  0.23678937
   0.78572126  0.11030177  0.53863366
   0.55747857  0.09768457  0.88891883
   0.39501981  0.56660697  0.30838135
   0.47747534  0.11568630  0.15297899
   0.32284659  0.27002567  0.43916197
   0.94537387  0.64742944  0.99076378
   0.93840154  0.99606254  0.26380457
   0.10816836  0.23687528  0.59284317
   0.00657865  0.25880308  0.11908763
Ir-Ru                                   
           1
     8.404265    3.106410   -1.242946
    -0.000000    6.302898    1.224099
     0.000000    0.000000   10.878639
   Ru
  32
Direct configuration=     2
   0.96207663  0.66543365  0.48245863
   0.23794119  0.20452624  0.00393016
   0.50092167  0.58641878  0.71121608
   0.91412654  0.15524350  0.89369584
   0.21303636  0.06183878  0.33715039
   0.99784768  0.45818848  0.81522869
   0.19210931  0.85612489  0.87048988
   0.50125628  0.87893284  0.41935264
   0.04980874  0.86454185  0.64325856
   0.62211801  0.51606525  0.52334395
   0.52986442  0.16735830  0.66200123
   0.48731778  0.79270508  0.02585828
   0.89137750  0.35446302  0.43627452
   0.24444317  0.53607143  0.06649038
   0.70939261  0.26080410  0.28394072
   0.72862035  0.32542501  0.03856296
   0.26241560  0.57213756  0.58781632
   0.76593789  0.76496829  0.67910142
   0.26357048  0.19683382  0.79209722
   0.15261611  0.81006975  0.15046470
   0.76012657  0.79982437  0.23745119
   0.67368116  0.62643183  0.89598467
   0.04404072  0.50860549  0.23462686
   0.78254800  0.11270485  0.53884809
   0.55816546  0.09653123  0.88871001
   0.39452648  0.56376804  0.30826659
   0.47896576  0.11375261  0.15263647
   0.32388001  0.26771290  0.44103904
   0.94923503  0.65138830  0.99248758
   0.93943909  0.99551489  0.26405742
   0.11218072  0.23386754  0.59485320
   0.00822306  0.25768499  0.11743097
Ir-Ru                                   
           1
     8.399720    3.135002   -1.246266
    -0.000000    6.286074    1.229384
     0.000000    0.000000   10.886789
   Ru
  32
Direct configuration=     3
   0.95755891  0.66758423  0.47893073
   0.23811820  0.20377944  0.00193188
   0.50095474  0.59321589  0.70957897
   0.91565703  0.15382672  0.89444804
   0.21687090  0.06251658  0.33760435
   0.99432347  0.46320412  0.81526286
   0.19179199  0.86019238  0.86815724
   0.50175292  0.87772784  0.41865929
   0.05138267  0.86101178  0.64568628
   0.62746970  0.50806346  0.52586512
   0.53133321  0.16511687  0.66531602
   0.48469846  0.79351867  0.02895228
   0.89599912  0.35126679  0.43540309
   0.24368132  0.53415664  0.06716781
   0.71231034  0.26399146  0.28326383
   0.72714447  0.32432763  0.03881720
   0.26375089  0.57362747  0.58787852
   0.76443218  0.76457408  0.67977363
   0.26193918  0.20011533  0.78912208
   0.15275363  0.81219105  0.15158170
   0.75795880  0.80251577  0.23567239
   0.67345665  0.62995722  0.89923253
   0.04054385  0.50378808  0.23267992
   0.77911924  0.11491119  0.53908092
   0.55896633  0.09536060  0.88858372
   0.39411973  0.56083892  0.30822757
   0.48057592  0.11177334  0.15237815
   0.32499999  0.26563954  0.44300094
   0.95293515  0.65574837  0.99409191
   0.94056150  0.99467839  0.26447521
   0.11637820  0.23070554  0.59685627
   0.00992944  0.25641756  0.11566918
Ir-Ru                                   
           1
     8.395087    3.163575   -1.249394
    -0.000000    6.269354    1.234703
     0.000000    0.000000   10.894914
   Ru
  32
Direct configuration=     4
   0.95296776  0.66998566  0.47538721
   0.23831286  0.20268536  0.00002403
   0.50101693  0.60003041  0.70793554
   0.91723206  0.15230524  0.89518485
   0.22056142  0.06295700  0.33798668
   0.99077921  0.46827998  0.81525059
   0.19135309  0.86427897  0.86581798
   0.50233897  0.87667653  0.41785961
   0.05306787  0.85739895  0.64822894
   0.63286077  0.49989735  0.52847766
   0.53282959  0.16292284  0.66854996
   0.48201271  0.79433491  0.03208013
   0.90059783  0.34826206  0.43431934
   0.24335053  0.53182880  0.06776504
   0.71493558  0.26740743  0.28252983
   0.72555459  0.32272548  0.03923850
   0.26509652  0.57507690  0.58790822
   0.76284345  0.76415222  0.68035554
   0.26045518  0.20342978  0.78616166
   0.15274224  0.81496424  0.15272778
   0.75571479  0.80507832  0.23392851
   0.67315371  0.63401433  0.90227630
   0.03709403  0.49910092  0.23096306
   0.77548998  0.11687490  0.53933199
   0.55987456  0.09416942  0.88855982
   0.39380164  0.55782724  0.30826749
   0.48228979  0.10976716  0.15220336
   0.32620699  0.26383185  0.44505038
   0.95643253  0.66052229  0.99555285
   0.94177238  0.99354739  0.26505095
   0.12070866  0.22741640  0.59880420
   0.01167201  0.25496173  0.11379796
Ir-Ru                                   
           1
     8.390372    3.192093   -1.252334
    -0.000000    6.252746    1.240078
     0.000000    0.000000   10.903021
   Ru
  32
Direct configuration=     5
   0.94832983  0.67262810  0.47185246
   0.23853651  0.20125187  0.99820367
   0.50111234  0.60686904  0.70628683
   0.91884434  0.15068412  0.89590423
   0.22407748  0.06315010  0.33827597
   0.98724136  0.47339652  0.81521354
   0.19080138  0.86834670  0.86349574
   0.50304865  0.87571431  0.41697540
   0.05483727  0.85371150  0.65085695
   0.63825331  0.49167997  0.53116954
   0.53433994  0.16079092  0.67169355
   0.47926868  0.79513287  0.03524084
   0.90517506  0.34538218  0.43304659
   0.24345555  0.52912495  0.06829595
   0.71726353  0.27107274  0.28173939
   0.72387040  0.32062487  0.03981140
   0.26644099  0.57651035  0.58790127
   0.76115899  0.76371173  0.68083057
   0.25914466  0.20679673  0.78325813
   0.15260238  0.81831045  0.15389377
   0.75340661  0.80751073  0.23222029
   0.67277115  0.63858019  0.90512013
   0.03371242  0.49460279  0.22949514
   0.77172031  0.11853076  0.53959722
   0.56088758  0.09295059  0.88866278
   0.39357415  0.55474090  0.30838596
   0.48409091  0.10775187  0.15210968
   0.32750413  0.26230365  0.44719378
   0.95968753  0.66572738  0.99684633
   0.94307409  0.99211625  0.26577838
   0.12510254  0.22403395  0.60063485
   0.01343277  0.25330575  0.11181318
Ir-Ru                                   
           1
     8.385585    3.220518   -1.255089
    -0.000000    6.236272    1.245536
     0.000000    0.000000   10.911124
   Ru
  32
Direct configuration=     6
   0.94366088  0.67550183  0.46834577
   0.23879688  0.19948737  0.99646963
   0.50124922  0.61373669  0.70463591
   0.92048225  0.14897214  0.89660422
   0.22740278  0.06307646  0.33846227
   0.98373758  0.47852581  0.81516745
   0.19014629  0.87235341  0.86121679
   0.50391190  0.87478706  0.41602477
   0.05666253  0.84996520  0.65354048
   0.64360030  0.48355420  0.53393211
   0.53585025  0.15873152  0.67473325
   0.47647901  0.79588687  0.03842466
   0.90973953  0.34256689  0.43161585
   0.24399120  0.52608517  0.06877823
   0.71929255  0.27500706  0.28089010
   0.72210289  0.31806387  0.04050929
   0.26777703  0.57794920  0.58785386
   0.75936426  0.76326276  0.68118465
   0.25804005  0.21023738  0.78046066
   0.15235471  0.82213497  0.15507053
   0.75105622  0.80980676  0.23055095
   0.67232065  0.64360315  0.90777967
   0.03041774  0.49035251  0.22828910
   0.76788503  0.11979188  0.53986940
   0.56199644  0.09170134  0.88891709
   0.39343869  0.55158767  0.30858186
   0.48595759  0.10575017  0.15209173
   0.32889105  0.26106087  0.44943139
   0.96266341  0.67137104  0.99795489
   0.94446307  0.99038722  0.26664915
   0.12950228  0.22058519  0.60229087
   0.01517371  0.25145743  0.10970556
Ir-Ru                                   
           1
     8.380747    3.248800   -1.257666
    -0.000000    6.219958    1.251101
     0.000000    0.000000   10.919239
   Ru
  32
Direct configuration=     7
   0.93897784  0.67860211  0.46489222
   0.23910143  0.19740053  0.99481380
   0.50142926  0.62064365  0.70298496
   0.92213044  0.14717788  0.89728377
   0.23052686  0.06273293  0.33853971
   0.98028981  0.48364648  0.81513046
   0.18940257  0.87625273  0.85901039
   0.50495965  0.87384553  0.41502906
   0.05851484  0.84617110  0.65625362
   0.64885455  0.47565892  0.53675566
   0.53734062  0.15676143  0.67765571
   0.47365843  0.79655769  0.04162286
   0.91429971  0.33975263  0.43005902
   0.24494760  0.52276288  0.06923183
   0.72101890  0.27923089  0.27998363
   0.72025465  0.31507919  0.04131173
   0.26909948  0.57941523  0.58776139
   0.75744559  0.76281197  0.68140750
   0.25716360  0.21378252  0.77782194
   0.15203623  0.82632017  0.15624178
   0.74868135  0.81196009  0.22892487
   0.67181800  0.64901470  0.91026854
   0.02721875  0.48639247  0.22734357
   0.76406124  0.12058103  0.54013283
   0.56319404  0.09042479  0.88934954
   0.39339671  0.54837160  0.30885602
   0.48786331  0.10379287  0.15214839
   0.33037045  0.26009325  0.45175897
   0.96534502  0.67745574  0.99886522
   0.94593473  0.98836072  0.26766061
   0.13383891  0.21709348  0.60369988
   0.01686926  0.24945341  0.10746226
Ir-Ru                                   
           1
     8.375879    3.276893   -1.260079
    -0.000000    6.203842    1.256794
     0.000000    0.000000   10.927381
   Ru
  32
Direct configuration=     8
   0.93428970  0.68191711  0.46151261
   0.23945869  0.19501326  0.99323519
   0.50164867  0.62759310  0.70133010
   0.92377594  0.14530926  0.89793907
   0.23344607  0.06212236  0.33850949
   0.97692377  0.48873161  0.81512669
   0.18858849  0.88000504  0.85690153
   0.50621507  0.87285984  0.41400434
   0.06037593  0.84233503  0.65897382
   0.65396641  0.46817504  0.53962520
   0.53879039  0.15489427  0.68044606
   0.47081773  0.79710960  0.04483155
   0.91885074  0.33688193  0.42840081
   0.24630377  0.51922778  0.06967473
   0.72244229  0.28375958  0.27902205
   0.71833173  0.31172485  0.04219127
   0.27040431  0.58092385  0.58761868
   0.75538582  0.76237238  0.68148795
   0.25655096  0.21746179  0.77540716
   0.15168924  0.83072805  0.15739290
   0.74631118  0.81395438  0.22734654
   0.67128455  0.65472043  0.91261442
   0.02412080  0.48276071  0.22665366
   0.76031988  0.12078506  0.54037036
   0.56447344  0.08911960  0.88998652
   0.39344878  0.54510775  0.30920147
   0.48977988  0.10191732  0.15227442
   0.33194204  0.25939245  0.45416721
   0.96771993  0.68396738  0.99956712
   0.94747821  0.98604514  0.26880551
   0.13805001  0.21356311  0.60478728
   0.01849001  0.24734438  0.10508648
Ir-Ru                                   
           1
     8.370993    3.304760   -1.262339
    -0.000000    6.187959    1.262632
     0.000000    0.000000   10.935566
   Ru
  32
Direct configuration=     9
   0.92959780  0.68543024  0.45821958
   0.23986896  0.19234412  0.99172776
   0.50190131  0.63459519  0.69967510
   0.92540499  0.14337623  0.89856771
   0.23615549  0.06125202  0.33837731
   0.97365902  0.49377280  0.81516612
   0.18772180  0.88356703  0.85491211
   0.50768985  0.87180037  0.41296536
   0.06222103  0.83846041  0.66168000
   0.65889307  0.46126729  0.54253163
   0.54017806  0.15314558  0.68308662
   0.46797992  0.79749711  0.04804311
   0.92339541  0.33391391  0.42666939
   0.24803281  0.51553846  0.07012227
   0.72356428  0.28860732  0.27800397
   0.71634485  0.30806161  0.04312560
   0.27169619  0.58249460  0.58742297
   0.75318066  0.76194149  0.68142106
   0.25622859  0.22131453  0.77326204
   0.15135705  0.83522562  0.15851907
   0.74397196  0.81577626  0.22581792
   0.67074712  0.66061776  0.91483663
   0.02112966  0.47945750  0.22620490
   0.75673056  0.12029659  0.54056378
   0.56582633  0.08779571  0.89085215
   0.39359642  0.54180521  0.30961158
   0.49167622  0.10016980  0.15246799
   0.33359669  0.25893853  0.45664356
   0.96978660  0.69088760  0.00007076
   0.94908286  0.98345497  0.27008078
   0.14208513  0.21000093  0.60549319
   0.01999925  0.24520259  0.10258127
Ir-Ru                                   
           1
     8.366105    3.332365   -1.264455
    -0.000000    6.172357    1.268626
     0.000000    0.000000   10.943804
   Ru
  32
Direct configuration=    10
   0.92490333  0.68913311  0.45502811
   0.24033730  0.18943284  0.99028970
   0.50217990  0.64165611  0.69802315
   0.92700159  0.14139123  0.89916437
   0.23865798  0.06014116  0.33815003
   0.97051801  0.49876038  0.81527158
   0.18681909  0.88690378  0.85305886
   0.50939093  0.87065273  0.41192292
   0.06402905  0.83454585  0.66434961
   0.66360999  0.45507194  0.54547041
   0.54148625  0.15153391  0.68556336
   0.46516386  0.79766661  0.05125265
   0.92793084  0.33081961  0.42489213
   0.25009074  0.51176541  0.07059050
   0.72438651  0.29378590  0.27692639
   0.71430100  0.30414422  0.04410072
   0.27297552  0.58414175  0.58716892
   0.75083142  0.76151224  0.68120310
   0.25620688  0.22538549  0.77141908
   0.15108737  0.83967278  0.15961734
   0.74170279  0.81739663  0.22434043
   0.67022666  0.66661235  0.91695691
   0.01824329  0.47648558  0.22596552
   0.75334429  0.11900831  0.54068926
   0.56724214  0.08646983  0.89196550
   0.39384052  0.53847577  0.31007571
   0.49351539  0.09860367  0.15272248
   0.33533648  0.25869623  0.45918073
   0.97155374  0.69818155  0.00038049
   0.95074622  0.98059215  0.27148465
   0.14590271  0.20638198  0.60577303
   0.02135863  0.24313731  0.09995735
Ir-Ru                                   
           1
     8.361235    3.359678   -1.266440
    -0.000000    6.157081    1.274783
     0.000000    0.000000   10.952114
   Ru
  32
Direct configuration=    11
   0.92019909  0.69301063  0.45194434
   0.24086491  0.18631850  0.98891792
   0.50246949  0.64878510  0.69637808
   0.92855054  0.13936740  0.89972025
   0.24095670  0.05881669  0.33784007
   0.96753515  0.50366637  0.81546594
   0.18590310  0.88998981  0.85135898
   0.51132476  0.86939763  0.41088958
   0.06578471  0.83058315  0.66696625
   0.66809278  0.44970896  0.54844088
   0.54269829  0.15008405  0.68786115
   0.46238776  0.79755968  0.05445618
   0.93245777  0.32756896  0.42310359
   0.25244306  0.50794950  0.07109222
   0.72490659  0.29930296  0.27579182
   0.71221085  0.30002099  0.04510281
   0.27424651  0.58587397  0.58685270
   0.74833351  0.76108016  0.68083400
   0.25648194  0.22971092  0.76990322
   0.15092632  0.84392328  0.16068095
   0.73953599  0.81878609  0.22291613
   0.66974797  0.67261648  0.91899203
   0.01546112  0.47385674  0.22589775
   0.75019169  0.11685162  0.54072016
   0.56870757  0.08516308  0.89334460
   0.39418451  0.53513062  0.31058386
   0.49524800  0.09728235  0.15302771
   0.33716763  0.25863198  0.46176794
   0.97303274  0.70581510  0.00050612
   0.95245955  0.97747649  0.27301510
   0.14948836  0.20267830  0.60560658
   0.02253707  0.24126293  0.09720817
Ir-Ru                                   
           1
     8.356396    3.386677   -1.268299
    -0.000000    6.142170    1.281105
     0.000000    0.000000   10.960512
   Ru
  32
Direct configuration=    12
   0.91548539  0.69704024  0.44898472
   0.24145410  0.18304225  0.98760290
   0.50275113  0.65598186  0.69474176
   0.93002579  0.13732930  0.90022140
   0.24306158  0.05730553  0.33746238
   0.96473369  0.50847922  0.81576502
   0.18499763  0.89280549  0.84982347
   0.51348400  0.86803280  0.40987455
   0.06747254  0.82656306  0.66951588
   0.67234021  0.44525517  0.55144012
   0.54380153  0.14881622  0.68997116
   0.45967519  0.79711992  0.05765228
   0.93697530  0.32414816  0.42133757
   0.25503886  0.50414872  0.07163707
   0.72513268  0.30515686  0.27460353
   0.71008907  0.29573605  0.04611606
   0.27551594  0.58770470  0.58647125
   0.74569763  0.76063392  0.68031466
   0.25703427  0.23433176  0.76871060
   0.15092470  0.84782579  0.16171997
   0.73751245  0.81989752  0.22154489
   0.66933697  0.67852212  0.92096402
   0.01277878  0.47156783  0.22596717
   0.74729071  0.11382124  0.54062952
   0.57021090  0.08390184  0.89500251
   0.39463180  0.53177807  0.31112715
   0.49683984  0.09625840  0.15337472
   0.33909025  0.25869704  0.46438978
   0.97423258  0.71373311  0.00046065
   0.95420305  0.97414424  0.27466335
   0.15283330  0.19885391  0.60499492
   0.02349492  0.23971324  0.09433447
Ir-Ru                                   
           1
     8.351605    3.413353   -1.270034
    -0.000000    6.127659    1.287586
     0.000000    0.000000   10.969013
   Ru
  32
Direct configuration=    13
   0.91075790  0.70120306  0.44615630
   0.24209964  0.17966475  0.98633726
   0.50299884  0.66324850  0.69311856
   0.93139997  0.13530434  0.90064462
   0.24499365  0.05562762  0.33703536
   0.96213030  0.51319515  0.81618524
   0.18412730  0.89534269  0.84845477
   0.51586622  0.86654902  0.40888636
   0.06907219  0.82247704  0.67198340
   0.67636060  0.44173981  0.55446795
   0.54478019  0.14776169  0.69187308
   0.45704068  0.79629124  0.06084937
   0.94146837  0.32054566  0.41962346
   0.25783412  0.50041062  0.07223011
   0.72506912  0.31134102  0.27336025
   0.70794850  0.29133780  0.04713222
   0.27678909  0.58964077  0.58602249
   0.74293874  0.76015682  0.67964974
   0.25784251  0.23928609  0.76782770
   0.15112522  0.85124626  0.16274933
   0.73566924  0.82069266  0.22022960
   0.66902476  0.68422166  0.92289333
   0.01019720  0.46960758  0.22613721
   0.74464659  0.10993457  0.54038969
   0.57173533  0.08272842  0.89694099
   0.39518657  0.52842041  0.31169918
   0.49824959  0.09558371  0.15376048
   0.34111344  0.25884884  0.46702733
   0.97517640  0.72187897  0.00026269
   0.95595732  0.97062460  0.27642725
   0.15595140  0.19487668  0.60395719
   0.02420187  0.23859551  0.09133954
Ir-Ru                                   
           1
     8.346883    3.439691   -1.271648
    -0.000000    6.113583    1.294212
     0.000000    0.000000   10.977631
   Ru
  32
Direct configuration=    14
   0.90601352  0.70546693  0.44346852
   0.24280081  0.17624243  0.98510805
   0.50318451  0.67058631  0.69151071
   0.93264835  0.13331723  0.90096874
   0.24676364  0.05380653  0.33657557
   0.95974134  0.51780683  0.81673878
   0.18331294  0.89759534  0.84725111
   0.51847204  0.86493662  0.40793423
   0.07057473  0.81830849  0.67436151
   0.68017524  0.43913593  0.55752224
   0.54562267  0.14695036  0.69355757
   0.45450260  0.79501826  0.06404805
   0.94593985  0.31674926  0.41799911
   0.26078539  0.49678240  0.07287637
   0.72472354  0.31784953  0.27206591
   0.70579461  0.28686791  0.04814594
   0.27807068  0.59168667  0.58550364
   0.74008010  0.75962836  0.67884751
   0.25887081  0.24461519  0.76722002
   0.15157614  0.85405530  0.16378415
   0.73404866  0.82112087  0.21897424
   0.66883858  0.68961755  0.92479407
   0.00771588  0.46796509  0.22635645
   0.74223830  0.10526041  0.53998140
   0.57325559  0.08169658  0.89915013
   0.39585398  0.52506717  0.31229020
   0.49943887  0.09530614  0.15417756
   0.34324755  0.25903889  0.46966863
   0.97587444  0.73018769  0.99993082
   0.95770139  0.96696322  0.27830403
   0.15886794  0.19071488  0.60253850
   0.02461949  0.23804007  0.08823084
Ir-Ru                                   
           1
     8.342241    3.465690   -1.273145
    -0.000000    6.099966    1.300961
     0.000000    0.000000   10.986375
   Ru
  32
Direct configuration=    15
   0.90124958  0.70980334  0.44092703
   0.24356030  0.17282151  0.98390001
   0.50327174  0.67799308  0.68992388
   0.93373837  0.13141741  0.90116203
   0.24839797  0.05185991  0.33610263
   0.95757608  0.52232246  0.81743356
   0.18257714  0.89955932  0.84620524
   0.52128858  0.86320015  0.40702761
   0.07197835  0.81403786  0.67664679
   0.68381532  0.43735649  0.56059614
   0.54632368  0.14640988  0.69502270
   0.45208121  0.79324628  0.06725221
   0.95037975  0.31275221  0.41650153
   0.26384696  0.49330144  0.07357349
   0.72410246  0.32466829  0.27072242
   0.70364559  0.28235600  0.04915299
   0.27936498  0.59384803  0.58491214
   0.73714825  0.75902432  0.67792232
   0.26007200  0.25034147  0.76684250
   0.15230376  0.85616694  0.16483921
   0.73267698  0.82112926  0.21777730
   0.66879997  0.69463037  0.92667752
   0.00533420  0.46663785  0.22658531
   0.74004317  0.09991545  0.53938274
   0.57474486  0.08087511  0.90161433
   0.39663999  0.52172828  0.31288969
   0.50037602  0.09546485  0.15461991
   0.34549838  0.25922275  0.47230105
   0.97635044  0.73858653  0.99948905
   0.95941765  0.96320670  0.28029000
   0.16161044  0.18633692  0.60080345
   0.02473671  0.23812777  0.08502027
Ir-Ru                                   
           1
     8.337699    3.491348   -1.274523
    -0.000000    6.086827    1.307812
     0.000000    0.000000   10.995258
   Ru
  32
Direct configuration=    16
   0.89646207  0.71418215  0.43853650
   0.24438368  0.16945324  0.98270614
   0.50321354  0.68547257  0.68836233
   0.93462396  0.12967133  0.90118670
   0.24991707  0.04979884  0.33563251
   0.95564034  0.52674161  0.81827166
   0.18194253  0.90124321  0.84530301
   0.52430191  0.86134298  0.40617115
   0.07327730  0.80964807  0.67883229
   0.68731269  0.43627958  0.56368078
   0.54688046  0.14616284  0.69627018
   0.44979352  0.79093562  0.07047071
   0.95478265  0.30853699  0.41515727
   0.26697296  0.49001252  0.07431942
   0.72321181  0.33177742  0.26932796
   0.70151733  0.27782662  0.05015564
   0.28067186  0.59613428  0.58424662
   0.73419303  0.75832588  0.67689239
   0.26139054  0.25647615  0.76663557
   0.15332741  0.85751240  0.16592979
   0.73158124  0.82067460  0.21663730
   0.66893629  0.69916521  0.92856226
   0.00305256  0.46562397  0.22677915
   0.73803046  0.09405514  0.53857937
   0.57617662  0.08032885  0.90432258
   0.39754797  0.51840798  0.31349146
   0.50103292  0.09609361  0.15508277
   0.34787355  0.25936601  0.47491361
   0.97662510  0.74699901  0.99896301
   0.96109577  0.95940423  0.28237042
   0.16422448  0.18170979  0.59883232
   0.02454916  0.23891218  0.08172632
Ir-Ru                                   
           1
     8.333271    3.516669   -1.275784
    -0.000000    6.074186    1.314737
     0.000000    0.000000   11.004285
   Ru
  32
Direct configuration=    17
   0.89165438  0.71856377  0.43631511
   0.24527107  0.16617909  0.98152207
   0.50296235  0.69302225  0.68683145
   0.93526350  0.12815344  0.90099986
   0.25134199  0.04763993  0.33518101
   0.95393171  0.53107917  0.81924959
   0.18142417  0.90266829  0.84452527
   0.52750134  0.85936364  0.40536917
   0.07446843  0.80511721  0.68091738
   0.69069305  0.43577116  0.56676480
   0.54729822  0.14622711  0.69730993
   0.44765593  0.78805730  0.07370768
   0.95913785  0.30409206  0.41399486
   0.27012875  0.48694881  0.07510960
   0.72205637  0.33915708  0.26788502
   0.69942850  0.27331167  0.05115433
   0.28199384  0.59854361  0.58350284
   0.73127184  0.75751124  0.67577453
   0.26278278  0.26300540  0.76654117
   0.15465030  0.85807292  0.16707293
   0.73078650  0.81971852  0.21555267
   0.66926855  0.70314140  0.93046141
   0.00087016  0.46491896  0.22690319
   0.73616455  0.08784668  0.53756179
   0.57751781  0.08012050  0.90724662
   0.39858622  0.51510909  0.31409075
   0.50137997  0.09722302  0.15555984
   0.35037861  0.25942993  0.47750086
   0.97671843  0.75532443  0.99838073
   0.96273066  0.95560174  0.28453016
   0.16675384  0.17681705  0.59669982
   0.02405834  0.24042799  0.07836437
Ir-Ru                                   
           1
     8.328978    3.541652   -1.276928
    -0.000000    6.062061    1.321702
     0.000000    0.000000   11.013460
   Ru
  32
Direct configuration=    18
   0.88682534  0.72291762  0.43426971
   0.24622879  0.16302996  0.98034572
   0.50245641  0.70064402  0.68533493
   0.93561285  0.12694469  0.90055702
   0.25268304  0.04539475  0.33475884
   0.95245129  0.53533959  0.82036416
   0.18103896  0.90385215  0.84385674
   0.53086392  0.85727275  0.40462491
   0.07555559  0.80042967  0.68290428
   0.69398228  0.43568400  0.56983281
   0.54759186  0.14660878  0.69815050
   0.44567975  0.78459984  0.07697157
   0.96344469  0.29940111  0.41302643
   0.27327422  0.48413913  0.07593607
   0.72065019  0.34678121  0.26640451
   0.69739825  0.26884252  0.05214972
   0.28333399  0.60108286  0.58268105
   0.72844800  0.75654757  0.67459501
   0.26420642  0.26991348  0.76650051
   0.15626067  0.85785237  0.16827535
   0.73030686  0.81822565  0.21452276
   0.66981372  0.70648789  0.93238877
   0.99878720  0.46452566  0.22691983
   0.73441818  0.08144702  0.53632376
   0.57873049  0.08032850  0.91035074
   0.39975977  0.51182769  0.31468470
   0.50140538  0.09885755  0.15605527
   0.35302084  0.25938938  0.48005771
   0.97665936  0.76344354  0.99778179
   0.96431748  0.95186023  0.28674568
   0.16923592  0.17165172  0.59447875
   0.02327069  0.24269409  0.07496220
Ir-Ru                                   
           1
     8.324839    3.566300   -1.277958
    -0.000000    6.050470    1.328680
     0.000000    0.000000   11.022784
   Ru
  32
Direct configuration=    19
   0.88197752  0.72720629  0.43240981
   0.24726293  0.16003088  0.97917218
   0.50163075  0.70833158  0.68387405
   0.93562941  0.12616195  0.89981400
   0.25395687  0.04306729  0.33437379
   0.95119130  0.53953592  0.82160784
   0.18080005  0.90481800  0.84327295
   0.53437016  0.85507428  0.40394176
   0.07654216  0.79557722  0.68479509
   0.69719368  0.43587913  0.57286634
   0.54777714  0.14730563  0.69881511
   0.44387784  0.78055318  0.08026853
   0.96769614  0.29445344  0.41226400
   0.27637825  0.48160907  0.07679389
   0.71900519  0.35462745  0.26489106
   0.69544418  0.26445380  0.05314777
   0.28469059  0.60375600  0.58178043
   0.72580284  0.75539917  0.67338448
   0.26562073  0.27716878  0.76646449
   0.15813514  0.85688738  0.16953674
   0.73014569  0.81618194  0.21354164
   0.67058694  0.70914414  0.93435209
   0.99680091  0.46445685  0.22679366
   0.73276644  0.07502950  0.53486425
   0.57978023  0.08100850  0.91359405
   0.40107173  0.50856466  0.31527020
   0.50110548  0.10097476  0.15656839
   0.35580517  0.25922505  0.48257611
   0.97646562  0.77123603  0.99720799
   0.96585700  0.94822175  0.28900064
   0.17170541  0.16620842  0.59224288
   0.02221620  0.24568456  0.07155567
Ir-Ru                                   
           1
     8.320878    3.590599   -1.278879
    -0.000000    6.039437    1.335647
     0.000000    0.000000   11.032259
   Ru
  32
Direct configuration=    20
   0.87712090  0.73138766  0.43074256
   0.24836888  0.15721101  0.97800671
   0.50041990  0.71609206  0.68245726
   0.93528041  0.12591350  0.89872589
   0.25517819  0.04066723  0.33403188
   0.95014816  0.54366614  0.82297247
   0.18071661  0.90558910  0.84275163
   0.53800394  0.85276930  0.40331940
   0.07743474  0.79055723  0.68659314
   0.70033532  0.43623583  0.57584716
   0.54787123  0.14831699  0.69932678
   0.44225802  0.77592755  0.08360060
   0.97187740  0.28923707  0.41172038
   0.27941338  0.47938022  0.07767596
   0.71714110  0.36267047  0.26335235
   0.69358923  0.26017668  0.05415670
   0.28606060  0.60656751  0.58080257
   0.72342044  0.75404009  0.67217799
   0.26699613  0.28472649  0.76639105
   0.16023533  0.85523667  0.17084903
   0.73029048  0.81358926  0.21259877
   0.67160035  0.71108256  0.93635290
   0.99490348  0.46471947  0.22649801
   0.73118518  0.06872583  0.53318403
   0.58064069  0.08219511  0.91693343
   0.40252817  0.50531709  0.31584699
   0.50048176  0.10354517  0.15710373
   0.35873116  0.25891880  0.48504851
   0.97616173  0.77857171  0.99670108
   0.96734770  0.94472612  0.29127405
   0.17419684  0.16048655  0.59005819
   0.02092436  0.24936497  0.06816974
Ir-Ru                                   
           1
     8.317118    3.614541   -1.279695
    -0.000000    6.028980    1.342579
     0.000000    0.000000   11.041886
   Ru
  32
Direct configuration=    21
   0.87226944  0.73541943  0.42926953
   0.24954725  0.15458565  0.97685533
   0.49875555  0.72393414  0.68108900
   0.93454417  0.12631876  0.89725547
   0.25636216  0.03820120  0.33373897
   0.94931046  0.54773252  0.82444652
   0.18079586  0.90618493  0.84227499
   0.54174233  0.85036314  0.40275509
   0.07823930  0.78537295  0.68830353
   0.70341562  0.43663981  0.57876287
   0.54789573  0.14962895  0.69971748
   0.44082938  0.77074192  0.08696455
   0.97596820  0.28374806  0.41139654
   0.28234700  0.47747779  0.07857121
   0.71508345  0.37086123  0.26179865
   0.69185802  0.25604876  0.05518362
   0.28743528  0.60953191  0.57974653
   0.72138539  0.75246281  0.67100733
   0.26831127  0.29254025  0.76624408
   0.16251432  0.85297136  0.17219588
   0.73070971  0.81047462  0.21168332
   0.67285513  0.71230247  0.93839096
   0.99309378  0.46531837  0.22601243
   0.72965934  0.06265237  0.53128439
   0.58128188  0.08389926  0.92032901
   0.40413794  0.50207430  0.31641678
   0.49954952  0.10652072  0.15767172
   0.36179442  0.25846363  0.48747026
   0.97577242  0.78531756  0.99630915
   0.96879744  0.94140573  0.29354327
   0.17673968  0.15448420  0.58797847
   0.01942704  0.25367486  0.06483180
Ir-Ru                                   
           1
     8.313586    3.638101   -1.280411