Ir_Ru                                   
           1
     5.219967    1.766310   -4.645023
     3.965455    8.366079    4.258286
     9.300736   -3.100245    6.200491
   Ru
  48
Direct configuration=     1
   0.12023855  0.42229290  0.80912959
   0.53961652  0.70949299  0.96182327
   0.93799117  0.10401054  0.92458662
   0.47553314  0.08539648  0.55896061
   0.82297937  0.36768372  0.22503010
   0.97981753  0.89389203  0.16283212
   0.28093544  0.34310231  0.49531005
   0.21135968  0.71979223  0.30338839
   0.72000440  0.94906252  0.34784534
   0.90674335  0.92289003  0.55514182
   0.21297888  0.25353099  0.21523510
   0.69226360  0.70185167  0.52222657
   0.87211424  0.61847736  0.85702466
   0.20900593  0.72026081  0.83439599
   0.50875424  0.39850299  0.63603644
   0.56379097  0.18505849  0.92279879
   0.88833113  0.33373556  0.98572104
   0.43420036  0.61014487  0.73463832
   0.63332297  0.67050218  0.20017959
   0.24118093  0.69397603  0.10546803
   0.16706703  0.87022868  0.94643689
   0.53093886  0.43078761  0.03329958
   0.24020984  0.16253028  0.00613869
   0.52801203  0.50735437  0.41701943
   0.53378739  0.80284873  0.34572732
   0.26861837  0.03949249  0.30587015
   0.94187386  0.54885905  0.60509029
   0.68033382  0.82037271  0.69342416
   0.14964801  0.12173394  0.49902831
   0.86333327  0.26173199  0.68136199
   0.68820683  0.40449588  0.80607074
   0.06892468  0.00358395  0.71085543
   0.68527534  0.08931810  0.73103109
   0.17656759  0.45150915  0.99997198
   0.75807285  0.90104425  0.97270936
   0.87869932  0.41619578  0.45242122
   0.37894135  0.89808535  0.11087030
   0.69420000  0.05769780  0.11104221
   0.96022132  0.14109362  0.18258718
   0.85892024  0.59377175  0.06346266
   0.88025631  0.68849156  0.32445631
   0.32223991  0.88042637  0.57166704
   0.49650408  0.27101878  0.33890479
   0.21925980  0.48506977  0.29730250
   0.23661405  0.61692525  0.54019616
   0.73236499  0.22231711  0.47280989
   0.30356420  0.19728013  0.74042107
   0.43281632  0.94332426  0.80081127
Ir_Ru                                   
           1
     5.222262    1.768409   -4.644681
     3.966663    8.367259    4.259355
     9.303036   -3.101012    6.202024
   Ru
  48
Direct configuration=     2
   0.11988595  0.42323418  0.80923699
   0.53933967  0.70874850  0.96132741
   0.93915302  0.10305144  0.92452314
   0.47622703  0.08490562  0.55870288
   0.82354630  0.36796380  0.22389360
   0.97832048  0.89393749  0.16245364
   0.28012168  0.34227732  0.49430776
   0.21046111  0.72039028  0.30385346
   0.71951625  0.95043254  0.34688330
   0.90420150  0.92373988  0.55560870
   0.21258334  0.25320349  0.21623361
   0.69186499  0.70247349  0.52202841
   0.87180024  0.61849961  0.85698986
   0.21020472  0.71900744  0.83450889
   0.50801007  0.39951296  0.63622590
   0.56547739  0.18442149  0.92292298
   0.88846208  0.33287289  0.98534007
   0.43556514  0.60881117  0.73387152
   0.63155888  0.66974782  0.19989912
   0.24274277  0.69451391  0.10538892
   0.16687017  0.87084838  0.94691823
   0.53099448  0.43119179  0.03367623
   0.24010426  0.16199530  0.00562148
   0.52779248  0.50740247  0.41678888
   0.53423123  0.80279357  0.34671341
   0.26510225  0.03998664  0.30595125
   0.94195987  0.54879415  0.60419698
   0.67998046  0.81959832  0.69454438
   0.14892479  0.12141258  0.49973145
   0.86315097  0.26100655  0.68063950
   0.68741386  0.40490665  0.80650263
   0.06933133  0.00450853  0.70930137
   0.68567864  0.08960828  0.73096531
   0.17571162  0.45037145  0.99936111
   0.75720627  0.90261978  0.97219581
   0.87987583  0.41569154  0.45180294
   0.38038045  0.89788930  0.11085445
   0.69554032  0.05709208  0.11141256
   0.96005498  0.14069552  0.18261124
   0.85810492  0.59373187  0.06503988
   0.88122946  0.68762357  0.32486915
   0.32272138  0.87944596  0.57213027
   0.49734554  0.27007936  0.33839725
   0.21808995  0.48431284  0.29684692
   0.23625079  0.61722367  0.53937355
   0.73235860  0.22106193  0.47296509
   0.30408786  0.19835825  0.74099726
   0.43147793  0.94361315  0.80168185
Ir_Ru                                   
           1
     5.224535    1.770487   -4.644369
     3.967851    8.368480    4.260417
     9.305355   -3.101785    6.203570
   Ru
  48
Direct configuration=     3
   0.11957131  0.42415580  0.80930802
   0.53907748  0.70799913  0.96083010
   0.94036276  0.10211234  0.92442753
   0.47692640  0.08440416  0.55846130
   0.82410041  0.36824257  0.22276953
   0.97686187  0.89398590  0.16205655
   0.27925629  0.34145092  0.49337783
   0.20962457  0.72101865  0.30435755
   0.71907726  0.95185976  0.34593474
   0.90169195  0.92461100  0.55604586
   0.21218925  0.25299149  0.21718433
   0.69141318  0.70309757  0.52187891
   0.87149469  0.61853152  0.85691299
   0.21132346  0.71773858  0.83462358
   0.50724108  0.40050545  0.63643288
   0.56713329  0.18379745  0.92302193
   0.88857472  0.33201403  0.98498568
   0.43699161  0.60745528  0.73306755
   0.62973283  0.66899913  0.19962156
   0.24431374  0.69493667  0.10533981
   0.16659603  0.87156770  0.94737515
   0.53103249  0.43160178  0.03406764
   0.23998561  0.16146553  0.00509934
   0.52757634  0.50746849  0.41651552
   0.53454534  0.80274563  0.34768082
   0.26161663  0.04037525  0.30607638
   0.94206894  0.54869445  0.60331848
   0.67962885  0.81878076  0.69568057
   0.14815276  0.12113679  0.50040299
   0.86306643  0.26031094  0.67988922
   0.68663460  0.40534242  0.80694806
   0.06972189  0.00542158  0.70778585
   0.68607662  0.08986902  0.73089971
   0.17489356  0.44923909  0.99875901
   0.75632362  0.90417469  0.97167880
   0.88111340  0.41520562  0.45117703
   0.38183086  0.89771380  0.11084022
   0.69679084  0.05651020  0.11180802
   0.95987241  0.14027684  0.18265558
   0.85735914  0.59368901  0.06661637
   0.88220486  0.68672009  0.32528793
   0.32322389  0.87842198  0.57259179
   0.49820763  0.26913248  0.33783550
   0.21688308  0.48354004  0.29637123
   0.23592395  0.61753123  0.53856320
   0.73242224  0.21977593  0.47312738
   0.30457909  0.19945012  0.74157731
   0.43010940  0.94390606  0.80255491
Ir_Ru                                   
           1
     5.226783    1.772541   -4.644086
     3.969019    8.369745    4.261471
     9.307690   -3.102563    6.205127
   Ru
  48
Direct configuration=     4
   0.11929461  0.42505776  0.80934072
   0.53883180  0.70724501  0.96033066
   0.94161928  0.10119633  0.92429848
   0.47762802  0.08389098  0.55823708
   0.82464043  0.36851842  0.22165973
   0.97544733  0.89403229  0.16164318
   0.27834253  0.34062294  0.49251996
   0.20884978  0.72167659  0.30489817
   0.71868611  0.95334254  0.34500129
   0.89921468  0.92550266  0.55645317
   0.21179690  0.25289741  0.21808472
   0.69091069  0.70372295  0.52178023
   0.87119695  0.61857255  0.85679803
   0.21236433  0.71645667  0.83474112
   0.50644763  0.40147885  0.63665628
   0.56875550  0.18318773  0.92309613
   0.88866696  0.33115900  0.98465822
   0.43847514  0.60608266  0.73222733
   0.62784253  0.66825888  0.19935100
   0.24589305  0.69524385  0.10532297
   0.16624571  0.87238014  0.94780577
   0.53105299  0.43201695  0.03447355
   0.23985496  0.16094099  0.00457301
   0.52736522  0.50755023  0.41620059
   0.53473015  0.80270647  0.34862548
   0.25816250  0.04065422  0.30624744
   0.94219943  0.54855977  0.60245486
   0.67927681  0.81792058  0.69683335
   0.14733444  0.12090718  0.50104088
   0.86307790  0.25965014  0.67911206
   0.68587259  0.40579956  0.80740524
   0.07009664  0.00631961  0.70631325
   0.68646561  0.09009678  0.73083520
   0.17411515  0.44811369  0.99816760
   0.75542422  0.90570704  0.97115756
   0.88240929  0.41473597  0.45054351
   0.38329098  0.89756005  0.11082781
   0.69794659  0.05595583  0.11222694
   0.95967480  0.13983874  0.18271924
   0.85668706  0.59364399  0.06818626
   0.88317901  0.68578162  0.32571247
   0.32374700  0.87735576  0.57305153
   0.49909061  0.26817917  0.33722047
   0.21564039  0.48275422  0.29587494
   0.23563330  0.61784739  0.53776545
   0.73255718  0.21846221  0.47329465
   0.30504035  0.20055526  0.74215987
   0.42871500  0.94420432  0.80342807
Ir_Ru                                   
           1
     5.229006    1.774572   -4.643832
     3.970166    8.371054    4.262518
     9.310040   -3.103347    6.206693
   Ru
  48
Direct configuration=     5
   0.11905574  0.42593971  0.80933345
   0.53860476  0.70648689  0.95982900
   0.94292043  0.10030724  0.92413498
   0.47832862  0.08336520  0.55803144
   0.82516585  0.36878943  0.22056623
   0.97408284  0.89407153  0.16121602
   0.27738385  0.33979467  0.49173343
   0.20813625  0.72236296  0.30547286
   0.71834078  0.95487832  0.34408492
   0.89676810  0.92641440  0.55683105
   0.21140626  0.25292261  0.21893308
   0.69036030  0.70434952  0.52173395
   0.87090643  0.61862204  0.85664889
   0.21333049  0.71516347  0.83486296
   0.50563111  0.40243091  0.63689416
   0.57034181  0.18259374  0.92314569
   0.88873755  0.33030768  0.98435777
   0.44001052  0.60469866  0.73135166
   0.62588590  0.66752939  0.19909113
   0.24747962  0.69543603  0.10533992
   0.16582092  0.87327918  0.94820864
   0.53105537  0.43243663  0.03489368
   0.23971362  0.16042153  0.00404286
   0.52716013  0.50764536  0.41584545
   0.53478688  0.80267695  0.34954367
   0.25474066  0.04082012  0.30646489
   0.94235080  0.54839050  0.60160656
   0.67892251  0.81701895  0.69800251
   0.14647253  0.12072419  0.50164282
   0.86318313  0.25902823  0.67830906
   0.68513153  0.40627470  0.80787213
   0.07045571  0.00719839  0.70488864
   0.68684195  0.09028883  0.73077245
   0.17337779  0.44699636  0.99758941
   0.75450715  0.90721471  0.97063123
   0.88376068  0.41428079  0.44990208
   0.38475888  0.89742966  0.11081683
   0.69900267  0.05543243  0.11266756
   0.95946357  0.13938244  0.18280165
   0.85609293  0.59359733  0.06974407
   0.88414955  0.68480858  0.32614240
   0.32429024  0.87624898  0.57350987
   0.49999443  0.26722014  0.33655413
   0.21436303  0.48195870  0.29535732
   0.23537808  0.61817198  0.53698103
   0.73276429  0.21712418  0.47346477
   0.30547337  0.20167224  0.74274367
   0.42729790  0.94450934  0.80429841
Ir_Ru                                   
           1
     5.231202    1.776578   -4.643606
     3.971291    8.372407    4.263555
     9.312402   -3.104134    6.208268
   Ru
  48
Direct configuration=     6
   0.11885497  0.42680131  0.80928432
   0.53839843  0.70572493  0.95932409
   0.94426340  0.09944905  0.92393692
   0.47902520  0.08282629  0.55784556
   0.82567628  0.36905352  0.21949063
   0.97277517  0.89409773  0.16077757
   0.27638266  0.33896759  0.49101713
   0.20748332  0.72307593  0.30607896
   0.71803843  0.95646444  0.34318746
   0.89435171  0.92734572  0.55717942
   0.21101790  0.25306756  0.21972787
   0.68976491  0.70497641  0.52174156
   0.87062221  0.61867959  0.85646920
   0.21422485  0.71386121  0.83499059
   0.50479294  0.40336000  0.63714495
   0.57188808  0.18201740  0.92317059
   0.88878490  0.32945972  0.98408423
   0.44159185  0.60330913  0.73044248
   0.62386112  0.66681321  0.19884560
   0.24907218  0.69551458  0.10539202
   0.16532444  0.87425726  0.94858298
   0.53103944  0.43286057  0.03532790
   0.23956296  0.15990690  0.00350916
   0.52696196  0.50775154  0.41545175
   0.53471669  0.80265848  0.35043163
   0.25135122  0.04087007  0.30672969
   0.94252203  0.54818671  0.60077307
   0.67856353  0.81607706  0.69918848
   0.14557060  0.12058883  0.50220597
   0.86337970  0.25844965  0.67748118
   0.68441544  0.40676455  0.80834650
   0.07079997  0.00805385  0.70351688
   0.68720222  0.09044246  0.73071230
   0.17268228  0.44588824  0.99702696
   0.75357177  0.90869552  0.97009868
   0.88516417  0.41383796  0.44925279
   0.38623286  0.89732355  0.11080713
   0.69995401  0.05494393  0.11312780
   0.95924016  0.13890947  0.18290213
   0.85558073  0.59355044  0.07128357
   0.88511433  0.68380184  0.32657756
   0.32485264  0.87510305  0.57396673
   0.50091922  0.26625625  0.33583886
   0.21305298  0.48115553  0.29481832
   0.23515736  0.61850481  0.53621099
   0.73304431  0.21576534  0.47363539
   0.30588078  0.20279937  0.74332740
   0.42586247  0.94482205  0.80516384
Ir_Ru                                   
           1
     5.233371    1.778558   -4.643409
     3.972391    8.373807    4.264584
     9.314775   -3.104925    6.209850
   Ru
  48
Direct configuration=     7
   0.11869189  0.42764286  0.80919156
   0.53821447  0.70495918  0.95881547
   0.94564496  0.09862547  0.92370390
   0.47971459  0.08227320  0.55768038
   0.82617121  0.36930832  0.21843455
   0.97153094  0.89410504  0.16033073
   0.27534247  0.33814321  0.49036924
   0.20689013  0.72381492  0.30671333
   0.71777604  0.95809922  0.34231026
   0.89196458  0.92829558  0.55749864
   0.21063307  0.25333092  0.22046795
   0.68912852  0.70560291  0.52180434
   0.87034393  0.61874462  0.85626264
   0.21504957  0.71255285  0.83512556
   0.50393502  0.40426415  0.63740675
   0.57339210  0.18145993  0.92317156
   0.88880830  0.32861528  0.98383742
   0.44321293  0.60192015  0.72950128
   0.62176573  0.66611216  0.19861730
   0.25066980  0.69548091  0.10548028
   0.16475997  0.87530559  0.94892885
   0.53100528  0.43328835  0.03577620
   0.23940409  0.15939666  0.00297259
   0.52677227  0.50786614  0.41502115
   0.53452172  0.80265194  0.35128680
   0.24799611  0.04080161  0.30704244
   0.94271167  0.54794812  0.59995419
   0.67819804  0.81509695  0.70039009
   0.14463137  0.12050152  0.50272739
   0.86366555  0.25791826  0.67662919
   0.68372798  0.40726606  0.80882700
   0.07112975  0.00888209  0.70220284
   0.68754350  0.09055542  0.73065522
   0.17202900  0.44479106  0.99648322
   0.75261641  0.91014748  0.96955910
   0.88661689  0.41340565  0.44859599
   0.38771121  0.89724234  0.11079858
   0.70079484  0.05449479  0.11360519
   0.95900594  0.13842129  0.18302039
   0.85515384  0.59350432  0.07279921
   0.88607113  0.68276278  0.32701780
   0.32543278  0.87391977  0.57442178
   0.50186353  0.26528872  0.33507641
   0.21171135  0.48034753  0.29425715
   0.23497047  0.61884608  0.53545564
   0.73339704  0.21438850  0.47380425
   0.30626493  0.20393505  0.74391039
   0.42441300  0.94514327  0.80602260
Ir_Ru                                   
           1
     5.235513    1.780512   -4.643237
     3.973468    8.375252    4.265602
     9.317156   -3.105719    6.211438
   Ru
  48
Direct configuration=     8
   0.11856594  0.42846432  0.80905394
   0.53805379  0.70418956  0.95830291
   0.94706092  0.09784064  0.92343579
   0.48039280  0.08170570  0.55753714
   0.82664995  0.36955196  0.21739986
   0.97035574  0.89408767  0.15987866
   0.27426741  0.33732271  0.48978796
   0.20635544  0.72457940  0.30737276
   0.71755092  0.95977908  0.34145527
   0.88960581  0.92926364  0.55778904
   0.21025253  0.25371061  0.22115257
   0.68845515  0.70622812  0.52192284
   0.87007167  0.61881651  0.85603302
   0.21580692  0.71124016  0.83526918
   0.50305918  0.40514073  0.63767692
   0.57485206  0.18092252  0.92314849
   0.88880714  0.32777486  0.98361696
   0.44486675  0.60053875  0.72852987
   0.61959786  0.66542786  0.19840859
   0.25227031  0.69533685  0.10560486
   0.16413247  0.87641602  0.94924566
   0.53095286  0.43371949  0.03623810
   0.23923768  0.15889116  0.00243407
   0.52659169  0.50798665  0.41455594
   0.53420531  0.80265830  0.35210615
   0.24467647  0.04061425  0.30740258
   0.94291826  0.54767536  0.59914936
   0.67782486  0.81407989  0.70160733
   0.14365844  0.12046259  0.50320393
   0.86403791  0.25743846  0.67575378
   0.68307249  0.40777571  0.80931270
   0.07144563  0.00967862  0.70095131
   0.68786285  0.09062564  0.73060158
   0.17141782  0.44370539  0.99596106
   0.75164145  0.91156775  0.96901229
   0.88811584  0.41298228  0.44793136
   0.38919156  0.89718685  0.11079076
   0.70152094  0.05408839  0.11409695
   0.95876269  0.13791945  0.18315584
   0.85481528  0.59346047  0.07428697
   0.88701706  0.68169329  0.32746274
   0.32603003  0.87270133  0.57487486
   0.50282550  0.26431953  0.33426921
   0.21033963  0.47953644  0.29367402
   0.23481789  0.61919504  0.53471561
   0.73382293  0.21299697  0.47396889
   0.30662727  0.20507813  0.74449188
   0.42295363  0.94547367  0.80687274
Ir_Ru                                   
           1
     5.237626    1.782436   -4.643089
     3.974520    8.376741    4.266610
     9.319543   -3.106514    6.213029
   Ru
  48
Direct configuration=     9
   0.11847701  0.42926585  0.80886988
   0.53791723  0.70341595  0.95778637
   0.94850688  0.09709903  0.92313221
   0.48105666  0.08112269  0.55741649
   0.82711229  0.36978244  0.21638777
   0.96925355  0.89404026  0.15942398
   0.27316311  0.33650632  0.48927137
   0.20587737  0.72536894  0.30805391
   0.71735947  0.96150142  0.34062455
   0.88727406  0.93024930  0.55805135
   0.20987718  0.25420327  0.22178212
   0.68774816  0.70685218  0.52209725
   0.86980473  0.61889475  0.85578344
   0.21649863  0.70992508  0.83542245
   0.50216673  0.40598713  0.63795336
   0.57626649  0.18040675  0.92310193
   0.88878050  0.32693819  0.98342245
   0.44654652  0.59917157  0.72752975
   0.61735692  0.66476113  0.19822186
   0.25387264  0.69508541  0.10576561
   0.16344709  0.87757926  0.94953466
   0.53088259  0.43415341  0.03671345
   0.23906568  0.15838996  0.00189438
   0.52642072  0.50811059  0.41405790
   0.53377141  0.80267863  0.35288743
   0.24139275  0.04030907  0.30780949
   0.94314044  0.54736859  0.59835876
   0.67744191  0.81302809  0.70284015
   0.14265665  0.12047200  0.50363206
   0.86449347  0.25701419  0.67485584
   0.68245341  0.40829009  0.80980225
   0.07174809  0.01043892  0.69976716
   0.68815810  0.09065149  0.73055175
   0.17085036  0.44263199  0.99546287
   0.75064642  0.91295407  0.96845800
   0.88965660  0.41256658  0.44725906
   0.39067199  0.89715796  0.11078357
   0.70212763  0.05372838  0.11459935
   0.95851259  0.13740562  0.18330772
   0.85456697  0.59341994  0.07574293
   0.88794915  0.68059524  0.32791201
   0.32664347  0.87144996  0.57532596
   0.50380421  0.26334983  0.33341945
   0.20893987  0.47872351  0.29306911
   0.23469914  0.61955170  0.53399103
   0.73432188  0.21159384  0.47412762
   0.30696873  0.20622758  0.74507103
   0.42148779  0.94581398  0.80771220
Ir_Ru                                   
           1
     5.239709    1.784331   -4.642966
     3.975548    8.378274    4.267608
     9.321933   -3.107311    6.214622
   Ru
  48
Direct configuration=    10
   0.11842507  0.43004694  0.80863793
   0.53780573  0.70263912  0.95726522
   0.94997800  0.09640543  0.92279270
   0.48170253  0.08052401  0.55731914
   0.82755767  0.36999707  0.21540047
   0.96822934  0.89395741  0.15896920
   0.27203454  0.33569531  0.48881704
   0.20545508  0.72618293  0.30875381
   0.71719807  0.96326252  0.33982050
   0.88496829  0.93125169  0.55828597
   0.20950863  0.25480422  0.22235698
   0.68701113  0.70747488  0.52232763
   0.86954229  0.61897890  0.85551681
   0.21712704  0.70860864  0.83558600
   0.50126037  0.40680006  0.63823361
   0.57763300  0.17991424  0.92303216
   0.88872761  0.32610618  0.98325337
   0.44824613  0.59782583  0.72650215
   0.61504318  0.66411365  0.19805839
   0.25547418  0.69472951  0.10596270
   0.16270923  0.87878557  0.94979713
   0.53079473  0.43458879  0.03720185
   0.23888950  0.15789307  0.00135409
   0.52625944  0.50823572  0.41352862
   0.53322433  0.80271447  0.35362837
   0.23814425  0.03988819  0.30826307
   0.94337707  0.54702866  0.59758209
   0.67704725  0.81194331  0.70408799
   0.14162916  0.12052989  0.50400865
   0.86502944  0.25664859  0.67393687
   0.68187445  0.40880607  0.81029504
   0.07203751  0.01115884  0.69865422
   0.68842696  0.09063172  0.73050622
   0.17032729  0.44157143  0.99499098
   0.74963116  0.91430454  0.96789591
   0.89123331  0.41215827  0.44657966
   0.39215098  0.89715616  0.11077706
   0.70261035  0.05341848  0.11510949
   0.95825788  0.13688145  0.18347536
   0.85441136  0.59338400  0.07716372
   0.88886520  0.67947023  0.32836523
   0.32727210  0.87016795  0.57577500
   0.50479811  0.26238100  0.33252933
   0.20751433  0.47791070  0.29244214
   0.23461369  0.61991537  0.53328267
   0.73489450  0.21018186  0.47427891
   0.30729088  0.20738139  0.74564741
   0.42001897  0.94616421  0.80853890
Ir_Ru                                   
           1
     5.241763    1.786195   -4.642867
     3.976551    8.379851    4.268595
     9.324324   -3.108108    6.216216
   Ru
  48
Direct configuration=    11
   0.11840974  0.43080734  0.80835720
   0.53772038  0.70185960  0.95673891
   0.95146928  0.09576471  0.92241595
   0.48232708  0.07990933  0.55724552
   0.82798518  0.37019436  0.21443922
   0.96728690  0.89383424  0.15851648
   0.27088633  0.33489021  0.48842287
   0.20508709  0.72702133  0.30946909
   0.71706378  0.96505887  0.33904633
   0.88268812  0.93226942  0.55849349
   0.20914772  0.25550797  0.22287800
   0.68624870  0.70809598  0.52261326
   0.86928424  0.61906853  0.85523614
   0.21769440  0.70729228  0.83576021
   0.50034171  0.40757641  0.63851526
   0.57894928  0.17944677  0.92293957
   0.88864818  0.32527906  0.98310957
   0.44995910  0.59650869  0.72544949
   0.61265499  0.66348608  0.19791968
   0.25707285  0.69427285  0.10619620
   0.16192438  0.88002594  0.95003514
   0.53068979  0.43502463  0.03770274
   0.23871070  0.15740025  0.00081390
   0.52610797  0.50835993  0.41297008
   0.53256938  0.80276741  0.35432719
   0.23493019  0.03935561  0.30876186
   0.94362717  0.54665598  0.59681882
   0.67663931  0.81082688  0.70535047
   0.14057924  0.12063641  0.50433049
   0.86564230  0.25634374  0.67299803
   0.68133961  0.40932012  0.81079025
   0.07231485  0.01183426  0.69761650
   0.68866710  0.09056545  0.73046535
   0.16984996  0.44052402  0.99454730
   0.74859620  0.91561681  0.96732608
   0.89284237  0.41175544  0.44589345
   0.39362536  0.89718150  0.11077109
   0.70296581  0.05316153  0.11562369
   0.95800122  0.13634880  0.18365794
   0.85435051  0.59335404  0.07854682
   0.88976360  0.67832059  0.32882203
   0.32791449  0.86885766  0.57622190
   0.50580564  0.26141445  0.33160106
   0.20606450  0.47709997  0.29179288
   0.23456093  0.62028585  0.53259165
   0.73553984  0.20876429  0.47442066
   0.30759514  0.20853828  0.74622063
   0.41855019  0.94652380  0.80935126
Ir_Ru                                   
           1
     5.243788    1.788026   -4.642789
     3.977528    8.381471    4.269571
     9.326714   -3.108905    6.217809
   Ru
  48
Direct configuration=    12
   0.11843068  0.43154744  0.80802670
   0.53766154  0.70107771  0.95620696
   0.95297434  0.09518217  0.92200146
   0.48292724  0.07927837  0.55719576
   0.82839390  0.37037268  0.21350508
   0.96642949  0.89366592  0.15806832
   0.26972321  0.33409238  0.48808743
   0.20477145  0.72788347  0.31019661
   0.71695292  0.96688700  0.33830480
   0.88043302  0.93330075  0.55867513
   0.20879555  0.25630820  0.22334648
   0.68546455  0.70871582  0.52295325
   0.86903031  0.61916325  0.85494420
   0.21820341  0.70597686  0.83594561
   0.49941329  0.40831252  0.63879514
   0.58021355  0.17900654  0.92282463
   0.88854193  0.32445745  0.98299053
   0.45167893  0.59522824  0.72437349
   0.61019306  0.66287886  0.19780622
   0.25866678  0.69371928  0.10646576
   0.16109863  0.88128952  0.95025135
   0.53056798  0.43546034  0.03821577
   0.23853101  0.15691199  0.00027412
   0.52596663  0.50848118  0.41238417
   0.53181185  0.80283801  0.35498289
   0.23174962  0.03871525  0.30930439
   0.94388954  0.54625060  0.59606843
   0.67621732  0.80968215  0.70662666
   0.13951073  0.12079158  0.50459358
   0.86632824  0.25610168  0.67204001
   0.68085266  0.40982868  0.81128800
   0.07258127  0.01246077  0.69665874
   0.68887725  0.09045204  0.73042924
   0.16941857  0.43949017  0.99413375
   0.74754184  0.91688900  0.96674807
   0.89447941  0.41135725  0.44520040
   0.39509290  0.89723446  0.11076555
   0.70319122  0.05295954  0.11613937
   0.95774507  0.13580919  0.18385512
   0.85438535  0.59333256  0.07988913
   0.89064236  0.67714818  0.32928225
   0.32856920  0.86752125  0.57666648
   0.50682570  0.26045031  0.33063733
   0.20459220  0.47629352  0.29112126
   0.23453989  0.62066293  0.53191813
   0.73625680  0.20734388  0.47455117
   0.30788211  0.20969586  0.74679029
   0.41708515  0.94689301  0.81014782
Ir_Ru                                   
           1
     5.245782    1.789823   -4.642734
     3.978479    8.383133    4.270535
     9.329101   -3.109700    6.219401
   Ru
  48
Direct configuration=    13
   0.11848705  0.43226816  0.80764547
   0.53763048  0.70029458  0.95566954
   0.95448618  0.09466279  0.92154847
   0.48350008  0.07863073  0.55717001
   0.82878309  0.37053067  0.21259919
   0.96566024  0.89344802  0.15762703
   0.26855014  0.33330264  0.48780837
   0.20450529  0.72876850  0.31093330
   0.71686156  0.96874258  0.33759852
   0.87820201  0.93434460  0.55883176
   0.20845291  0.25719781  0.22376394
   0.68466206  0.70933457  0.52334644
   0.86878000  0.61926239  0.85464371
   0.21865723  0.70466360  0.83614218
   0.49847757  0.40900358  0.63907043
   0.58142388  0.17859555  0.92268753
   0.88840910  0.32364163  0.98289565
   0.45339901  0.59399175  0.72327681
   0.60765942  0.66229187  0.19771886
   0.26025347  0.69307307  0.10677016
   0.16023822  0.88256580  0.95044879
   0.53042919  0.43589503  0.03874071
   0.23835192  0.15642797  0.99973560
   0.52583517  0.50859720  0.41177279
   0.53095729  0.80292760  0.35559413
   0.22860292  0.03797244  0.30988867
   0.94416273  0.54581335  0.59532992
   0.67578015  0.80851207  0.70791582
   0.13842717  0.12099527  0.50479423
   0.86708435  0.25592388  0.67106352
   0.68041708  0.41032861  0.81178844
   0.07283729  0.01303437  0.69578502
   0.68905618  0.09029120  0.73039786
   0.16903311  0.43847017  0.99375224
   0.74646871  0.91811888  0.96616173
   0.89614035  0.41096213  0.44450128
   0.39655105  0.89731522  0.11075969
   0.70328458  0.05281426  0.11665398
   0.95749200  0.13526493  0.18406611
   0.85451644  0.59332193  0.08118877
   0.89149948  0.67595598  0.32974526
   0.32923401  0.86616157  0.57710884
   0.50785733  0.25948939  0.32964065
   0.20309937  0.47549278  0.29042784
   0.23454876  0.62104610  0.53126299
   0.73704482  0.20592379  0.47466869
   0.30815240  0.21085228  0.74735634
   0.41562905  0.94727155  0.81092648
Ir_Ru                                   
           1
     5.247747    1.791583   -4.642698
     3.979405    8.384838    4.271487
     9.331484   -3.110495    6.220989
   Ru
  48
Direct configuration=    14
   0.11857766  0.43296958  0.80721337
   0.53762715  0.69951025  0.95512698
   0.95599910  0.09421110  0.92105592
   0.48404250  0.07796652  0.55716802
   0.82915189  0.37066717  0.21172232
   0.96498010  0.89317696  0.15719444
   0.26737243  0.33252176  0.48758253
   0.20428566  0.72967628  0.31167648
   0.71678659  0.97062242  0.33692995
   0.87599431  0.93539956  0.55896456
   0.20812073  0.25816861  0.22413128
   0.68384493  0.70995248  0.52379100
   0.86853322  0.61936526  0.85433728
   0.21905842  0.70335318  0.83635000
   0.49753819  0.40964484  0.63933841
   0.58257865  0.17821592  0.92252837
   0.88824969  0.32283326  0.98282435
   0.45511223  0.59280768  0.72216204
   0.60505653  0.66172392  0.19765769
   0.26182984  0.69233853  0.10710852
   0.15935083  0.88384321  0.95063037
   0.53027375  0.43632745  0.03927756
   0.23817533  0.15594847  0.99919905
   0.52571292  0.50870637  0.41113859
   0.53001048  0.80303726  0.35616055
   0.22549050  0.03713314  0.31051277
   0.94444500  0.54534568  0.59460283
   0.67532635  0.80731936  0.70921655
   0.13733137  0.12124684  0.50492953
   0.86790705  0.25581096  0.67006975
   0.68003615  0.41081748  0.81229132
   0.07308393  0.01355098  0.69499889
   0.68920310  0.09008304  0.73037099
   0.16869326  0.43746448  0.99340483
   0.74537747  0.91930403  0.96556718
   0.89782061  0.41056916  0.44379623
   0.39799767  0.89742386  0.11075320
   0.70324618  0.05272668  0.11716414
   0.95724389  0.13471741  0.18429025
   0.85474407  0.59332405  0.08244452
   0.89233346  0.67474665  0.33021051
   0.32990677  0.86478122  0.57754905
   0.50889984  0.25853212  0.32861339
   0.20158824  0.47469977  0.28971292
   0.23458670  0.62143453  0.53062703
   0.73790237  0.20450774  0.47477124
   0.30840701  0.21200616  0.74791886
   0.41418513  0.94765945  0.81168629
Ir_Ru                                   
           1
     5.249681    1.793306   -4.642681
     3.980304    8.386585    4.272428
     9.333860   -3.111287    6.222574
   Ru
  48
Direct configuration=    15
   0.11870172  0.43365261  0.80672986
   0.53765134  0.69872532  0.95457889
   0.95750606  0.09383114  0.92052323
   0.48455185  0.07728592  0.55718950
   0.82949899  0.37078096  0.21087573
   0.96438988  0.89284976  0.15677271
   0.26619577  0.33175110  0.48740731
   0.20410991  0.73060658  0.31242300
   0.71672466  0.97252351  0.33630165
   0.87381025  0.93646368  0.55907442
   0.20779991  0.25921277  0.22445037
   0.68301692  0.71056977  0.52428500
   0.86829018  0.61947125  0.85402712
   0.21940967  0.70204630  0.83656955
   0.49659848  0.41023160  0.63959603
   0.58367611  0.17786967  0.92234724
   0.88806401  0.32203251  0.98277631
   0.45681159  0.59168414  0.72103190
   0.60238786  0.66117368  0.19762301
   0.26339258  0.69152059  0.10747944
   0.15844277  0.88511163  0.95079953
   0.53010257  0.43675647  0.03982606
   0.23800292  0.15547331  0.99866499
   0.52559971  0.50880701  0.41048360
   0.52897698  0.80316768  0.35668157
   0.22241154  0.03620275  0.31117515
   0.94473488  0.54484848  0.59388654
   0.67485502  0.80610683  0.71052750
   0.13622677  0.12154528  0.50499649
   0.86879264  0.25576378  0.66905936
   0.67971343  0.41129240  0.81279652
   0.07332209  0.01400720  0.69430344
   0.68931779  0.08982790  0.73034834
   0.16839820  0.43647332  0.99309356
   0.74426849  0.92044306  0.96496417