 256 256   0   0
  0.1418917E+02  0.1588033E-08  0.1692661E-08  0.1693229E-08  0.5000000E-15
  1.000000000000000E-004
  CAR 
 Ir_Ru                                   
     14.28473632     -1.29210913  301      9.45702385      1.00000000
     -1.292  0.0000E+00  0.0000E+00
     -1.240  0.0000E+00  0.0000E+00
     -1.188  0.0000E+00  0.0000E+00
     -1.136 -0.2837E-30 -0.1473E-31
     -1.084 -0.1305E-26 -0.6777E-28
     -1.032 -0.3486E-23 -0.1811E-24
     -0.981 -0.5405E-20 -0.2808E-21
     -0.929 -0.4859E-17 -0.2526E-18
     -0.877 -0.2471E-14 -0.1286E-15
     -0.825 -0.7361E-12 -0.3835E-13
     -0.773 -0.1271E-09 -0.6639E-11
     -0.721 -0.1262E-07 -0.6619E-09
     -0.669 -0.7173E-06 -0.3791E-07
     -0.617 -0.2321E-04 -0.1243E-05
     -0.565 -0.4245E-03 -0.2329E-04
     -0.513 -0.4346E-02 -0.2489E-03
     -0.461 -0.2464E-01 -0.1528E-02
     -0.409 -0.7580E-01 -0.5464E-02
     -0.357 -0.1014E+00 -0.1073E-01
     -0.306  0.2141E+00  0.3847E-03
     -0.254  0.1667E+01  0.8696E-01
     -0.202  0.4436E+01  0.3173E+00
     -0.150  0.6365E+01  0.6478E+00
     -0.098  0.6421E+01  0.9812E+00
     -0.046  0.6985E+01  0.1344E+01
      0.006  0.8897E+01  0.1806E+01
      0.058  0.1122E+02  0.2389E+01
      0.110  0.1365E+02  0.3097E+01
      0.162  0.1432E+02  0.3841E+01
      0.214  0.1164E+02  0.4445E+01
      0.266  0.1010E+02  0.4970E+01
      0.317  0.1441E+02  0.5718E+01
      0.369  0.2045E+02  0.6780E+01
      0.421  0.2254E+02  0.7950E+01
      0.473  0.2274E+02  0.9131E+01
      0.525  0.2353E+02  0.1035E+02
      0.577  0.2247E+02  0.1152E+02
      0.629  0.2045E+02  0.1258E+02
      0.681  0.2107E+02  0.1367E+02
      0.733  0.2028E+02  0.1473E+02
      0.785  0.1437E+02  0.1547E+02
      0.837  0.8732E+01  0.1593E+02
      0.889  0.8027E+01  0.1634E+02
      0.941  0.1181E+02  0.1696E+02
      0.992  0.1912E+02  0.1795E+02
      1.044  0.2805E+02  0.1941E+02
      1.096  0.3339E+02  0.2114E+02
      1.148  0.3300E+02  0.2285E+02
      1.200  0.2868E+02  0.2434E+02
      1.252  0.2268E+02  0.2552E+02
      1.304  0.1944E+02  0.2653E+02
      1.356  0.2180E+02  0.2766E+02
      1.408  0.2729E+02  0.2908E+02
      1.460  0.3032E+02  0.3065E+02
      1.512  0.2975E+02  0.3220E+02
      1.564  0.2936E+02  0.3372E+02
      1.616  0.3049E+02  0.3531E+02
      1.667  0.3118E+02  0.3692E+02
      1.719  0.3212E+02  0.3859E+02
      1.771  0.3514E+02  0.4042E+02
      1.823  0.3927E+02  0.4245E+02
      1.875  0.4578E+02  0.4483E+02
      1.927  0.5493E+02  0.4768E+02
      1.979  0.5933E+02  0.5076E+02
      2.031  0.5456E+02  0.5360E+02
      2.083  0.5064E+02  0.5623E+02
      2.135  0.6237E+02  0.5946E+02
      2.187  0.8786E+02  0.6403E+02
      2.239  0.1093E+03  0.6970E+02
      2.291  0.1199E+03  0.7593E+02
      2.342  0.1259E+03  0.8246E+02
      2.394  0.1316E+03  0.8930E+02
      2.446  0.1376E+03  0.9645E+02
      2.498  0.1476E+03  0.1041E+03
      2.550  0.1651E+03  0.1127E+03
      2.602  0.1835E+03  0.1222E+03
      2.654  0.1952E+03  0.1323E+03
      2.706  0.2072E+03  0.1431E+03
      2.758  0.2241E+03  0.1547E+03
      2.810  0.2306E+03  0.1667E+03
      2.862  0.2243E+03  0.1784E+03
      2.914  0.2283E+03  0.1902E+03
      2.966  0.2461E+03  0.2030E+03
      3.017  0.2583E+03  0.2164E+03
      3.069  0.2600E+03  0.2299E+03
      3.121  0.2606E+03  0.2434E+03
      3.173  0.2644E+03  0.2572E+03
      3.225  0.2737E+03  0.2714E+03
      3.277  0.2888E+03  0.2864E+03
      3.329  0.3079E+03  0.3024E+03
      3.381  0.3246E+03  0.3192E+03
      3.433  0.3306E+03  0.3364E+03
      3.485  0.3275E+03  0.3534E+03
      3.537  0.3211E+03  0.3701E+03
      3.589  0.3180E+03  0.3866E+03
      3.641  0.3164E+03  0.4030E+03
      3.692  0.3108E+03  0.4191E+03
      3.744  0.3050E+03  0.4350E+03
      3.796  0.3010E+03  0.4506E+03
      3.848  0.2967E+03  0.4660E+03
      3.900  0.2931E+03  0.4812E+03
      3.952  0.2880E+03  0.4962E+03
      4.004  0.2752E+03  0.5105E+03
      4.056  0.2663E+03  0.5243E+03
      4.108  0.2765E+03  0.5386E+03
      4.160  0.2950E+03  0.5540E+03
      4.212  0.3029E+03  0.5697E+03
      4.264  0.3054E+03  0.5855E+03
      4.316  0.3127E+03  0.6018E+03
      4.367  0.3190E+03  0.6183E+03
      4.419  0.3213E+03  0.6350E+03
      4.471  0.3236E+03  0.6518E+03
      4.523  0.3206E+03  0.6685E+03
      4.575  0.3089E+03  0.6845E+03
      4.627  0.2968E+03  0.6999E+03
      4.679  0.2936E+03  0.7152E+03
      4.731  0.2986E+03  0.7307E+03
      4.783  0.3064E+03  0.7466E+03
      4.835  0.3187E+03  0.7631E+03
      4.887  0.3321E+03  0.7804E+03
      4.939  0.3381E+03  0.7979E+03
      4.991  0.3459E+03  0.8159E+03
      5.042  0.3590E+03  0.8345E+03
      5.094  0.3659E+03  0.8535E+03
      5.146  0.3639E+03  0.8724E+03
      5.198  0.3540E+03  0.8908E+03
      5.250  0.3326E+03  0.9081E+03
      5.302  0.2996E+03  0.9236E+03
      5.354  0.2582E+03  0.9370E+03
      5.406  0.2153E+03  0.9482E+03
      5.458  0.1827E+03  0.9577E+03
      5.510  0.1730E+03  0.9667E+03
      5.562  0.1916E+03  0.9766E+03
      5.614  0.2309E+03  0.9886E+03
      5.666  0.2796E+03  0.1003E+04
      5.717  0.3294E+03  0.1020E+04
      5.769  0.3704E+03  0.1039E+04
      5.821  0.3968E+03  0.1060E+04
      5.873  0.4112E+03  0.1081E+04
      5.925  0.4198E+03  0.1103E+04
      5.977  0.4262E+03  0.1125E+04
      6.029  0.4279E+03  0.1148E+04
      6.081  0.4147E+03  0.1169E+04
      6.133  0.3899E+03  0.1189E+04
      6.185  0.3705E+03  0.1209E+04
      6.237  0.3605E+03  0.1227E+04
      6.289  0.3551E+03  0.1246E+04
      6.341  0.3571E+03  0.1264E+04
      6.392  0.3706E+03  0.1284E+04
      6.444  0.3825E+03  0.1303E+04
      6.496  0.3845E+03  0.1323E+04
      6.548  0.3929E+03  0.1344E+04
      6.600  0.4114E+03  0.1365E+04
      6.652  0.4245E+03  0.1387E+04
      6.704  0.4279E+03  0.1409E+04
      6.756  0.4245E+03  0.1431E+04
      6.808  0.4117E+03  0.1453E+04
      6.860  0.3902E+03  0.1473E+04
      6.912  0.3724E+03  0.1492E+04
      6.964  0.3662E+03  0.1511E+04
      7.016  0.3636E+03  0.1530E+04
      7.067  0.3696E+03  0.1549E+04
      7.119  0.3938E+03  0.1570E+04
      7.171  0.4160E+03  0.1592E+04
      7.223  0.4223E+03  0.1613E+04
      7.275  0.4221E+03  0.1635E+04
      7.327  0.4117E+03  0.1657E+04
      7.379  0.3851E+03  0.1677E+04
      7.431  0.3565E+03  0.1695E+04
      7.483  0.3392E+03  0.1713E+04
      7.535  0.3323E+03  0.1730E+04
      7.587  0.3281E+03  0.1747E+04
      7.639  0.3153E+03  0.1764E+04
      7.691  0.2936E+03  0.1779E+04
      7.742  0.2762E+03  0.1793E+04
      7.794  0.2680E+03  0.1807E+04
      7.846  0.2630E+03  0.1821E+04
      7.898  0.2567E+03  0.1834E+04
      7.950  0.2475E+03  0.1847E+04
      8.002  0.2427E+03  0.1859E+04
      8.054  0.2431E+03  0.1872E+04
      8.106  0.2384E+03  0.1884E+04
      8.158  0.2307E+03  0.1896E+04
      8.210  0.2292E+03  0.1908E+04
      8.262  0.2340E+03  0.1920E+04
      8.314  0.2381E+03  0.1933E+04
      8.366  0.2391E+03  0.1945E+04
      8.417  0.2363E+03  0.1958E+04
      8.469  0.2277E+03  0.1969E+04
      8.521  0.2176E+03  0.1981E+04
      8.573  0.2116E+03  0.1992E+04
      8.625  0.2065E+03  0.2002E+04
      8.677  0.1990E+03  0.2013E+04
      8.729  0.1904E+03  0.2023E+04
      8.781  0.1824E+03  0.2032E+04
      8.833  0.1796E+03  0.2041E+04
      8.885  0.1903E+03  0.2051E+04
      8.937  0.2161E+03  0.2062E+04
      8.989  0.2366E+03  0.2075E+04
      9.041  0.2354E+03  0.2087E+04
      9.092  0.2218E+03  0.2099E+04
      9.144  0.2043E+03  0.2109E+04
      9.196  0.1852E+03  0.2119E+04
      9.248  0.1796E+03  0.2128E+04
      9.300  0.2009E+03  0.2138E+04
      9.352  0.2312E+03  0.2150E+04
      9.404  0.2433E+03  0.2163E+04
      9.456  0.2429E+03  0.2176E+04
      9.508  0.2453E+03  0.2188E+04
      9.560  0.2441E+03  0.2201E+04
      9.612  0.2479E+03  0.2214E+04
      9.664  0.2795E+03  0.2229E+04
      9.716  0.3215E+03  0.2245E+04
      9.767  0.3355E+03  0.2263E+04
      9.819  0.3250E+03  0.2280E+04
      9.871  0.3161E+03  0.2296E+04
      9.923  0.3155E+03  0.2312E+04
      9.975  0.3233E+03  0.2329E+04
     10.027  0.3470E+03  0.2347E+04
     10.079  0.3847E+03  0.2367E+04
     10.131  0.4158E+03  0.2389E+04
     10.183  0.4295E+03  0.2411E+04
     10.235  0.4374E+03  0.2434E+04
     10.287  0.4510E+03  0.2457E+04
     10.339  0.4700E+03  0.2482E+04
     10.391  0.4883E+03  0.2507E+04
     10.442  0.4980E+03  0.2533E+04
     10.494  0.4871E+03  0.2558E+04
     10.546  0.4454E+03  0.2581E+04
     10.598  0.3831E+03  0.2601E+04
     10.650  0.3128E+03  0.2617E+04
     10.702  0.2261E+03  0.2629E+04
     10.754  0.1242E+03  0.2635E+04
     10.806  0.3994E+02  0.2638E+04
     10.858  0.2961E+00  0.2638E+04
     10.910 -0.5515E+01  0.2637E+04
     10.962 -0.2278E+01  0.2637E+04
     11.014 -0.4592E+00  0.2637E+04
     11.066 -0.5485E-01  0.2637E+04
     11.117 -0.4225E-02  0.2637E+04
     11.169 -0.2174E-03  0.2637E+04
     11.221 -0.7359E-05  0.2637E+04
     11.273 -0.1571E-06  0.2637E+04
     11.325 -0.2037E-08  0.2637E+04
     11.377 -0.1581E-10  0.2637E+04
     11.429 -0.3481E-10  0.2637E+04
     11.481 -0.4287E-08  0.2637E+04
     11.533 -0.3025E-06  0.2637E+04
     11.585 -0.1210E-04  0.2637E+04
     11.637 -0.2708E-03  0.2637E+04
     11.689 -0.3304E-02  0.2637E+04
     11.741 -0.2075E-01  0.2637E+04
     11.792 -0.5603E-01  0.2637E+04
     11.844  0.8168E-02  0.2637E+04
     11.896  0.3978E+00  0.2637E+04
     11.948  0.1092E+01  0.2637E+04
     12.000  0.1866E+01  0.2637E+04
     12.052  0.2306E+01  0.2637E+04
     12.104  0.1850E+01  0.2637E+04
     12.156  0.8003E+00  0.2638E+04
     12.208  0.4310E+00  0.2638E+04
     12.260  0.1728E+01  0.2638E+04
     12.312  0.3587E+01  0.2638E+04
     12.364  0.3829E+01  0.2638E+04
     12.416  0.2795E+01  0.2638E+04
     12.467  0.2106E+01  0.2638E+04
     12.519  0.1880E+01  0.2638E+04
     12.571  0.2165E+01  0.2639E+04
     12.623  0.2769E+01  0.2639E+04
     12.675  0.3476E+01  0.2639E+04
     12.727  0.4125E+01  0.2639E+04
     12.779  0.3462E+01  0.2639E+04
     12.831  0.2318E+01  0.2639E+04
     12.883  0.2425E+01  0.2639E+04
     12.935  0.2634E+01  0.2640E+04
     12.987  0.2031E+01  0.2640E+04
     13.039  0.1096E+01  0.2640E+04
     13.091  0.3191E+00  0.2640E+04
     13.142  0.2841E+00  0.2640E+04
     13.194  0.8303E+00  0.2640E+04
     13.246  0.1206E+01  0.2640E+04
     13.298  0.1143E+01  0.2640E+04
     13.350  0.6837E+00  0.2640E+04
     13.402  0.1606E+00  0.2640E+04
     13.454 -0.4405E-01  0.2640E+04
     13.506 -0.3339E-01  0.2640E+04
     13.558 -0.7384E-02  0.2640E+04
     13.610 -0.7874E-03  0.2640E+04
     13.662 -0.4475E-04  0.2640E+04
     13.714 -0.1408E-05  0.2640E+04
     13.766 -0.2500E-07  0.2640E+04
     13.817 -0.2530E-09  0.2640E+04
     13.869 -0.1468E-11  0.2640E+04
     13.921 -0.5227E-14  0.2640E+04
     13.973  0.0000E+00  0.2640E+04
     14.025  0.0000E+00  0.2640E+04
     14.077  0.0000E+00  0.2640E+04
     14.129  0.0000E+00  0.2640E+04
     14.181  0.0000E+00  0.2640E+04
     14.233  0.0000E+00  0.2640E+04
     14.285  0.0000E+00  0.2640E+04
