       N       E                     dE             d eps       ncg     rms          rms(c)
RMM:   1     0.136790985313E+05    0.13679E+05   -0.47218E+05 25080   0.725E+02
RMM:   2     0.131338295484E+04   -0.12366E+05   -0.13120E+05 25080   0.260E+02
RMM:   3    -0.104567540810E+04   -0.23591E+04   -0.22856E+04 25080   0.111E+02
RMM:   4    -0.184600248811E+04   -0.80033E+03   -0.57406E+03 25080   0.768E+01
RMM:   5    -0.212912177654E+04   -0.28312E+03   -0.24896E+03 25080   0.451E+01
RMM:   6    -0.227484151468E+04   -0.14572E+03   -0.12952E+03 25080   0.349E+01
RMM:   7    -0.235270468687E+04   -0.77863E+02   -0.73854E+02 25080   0.235E+01
RMM:   8    -0.240020261480E+04   -0.47498E+02   -0.44556E+02 25080   0.195E+01
RMM:   9    -0.247909067215E+04   -0.78888E+02   -0.77968E+02 71871   0.137E+01
RMM:  10    -0.248863849108E+04   -0.95478E+01   -0.11971E+02 79664   0.283E+00
RMM:  11    -0.249088287138E+04   -0.22444E+01   -0.17865E+01 77271   0.686E-01
RMM:  12    -0.249118892611E+04   -0.30605E+00   -0.19807E+00 79551   0.198E-01    0.782E+01
RMM:  13    -0.241370894517E+04    0.77480E+02   -0.68522E+02 57193   0.246E+01    0.584E+01
RMM:  14    -0.236777669595E+04    0.45932E+02   -0.34139E+02 51442   0.174E+01    0.416E+01
RMM:  15    -0.233563943772E+04    0.32137E+02   -0.11848E+02 53316   0.101E+01    0.255E+01
RMM:  16    -0.232133249039E+04    0.14307E+02   -0.25867E+01 56022   0.435E+00    0.444E+00
RMM:  17    -0.232153076037E+04   -0.19827E+00   -0.64714E+00 73827   0.129E+00    0.444E+00
RMM:  18    -0.232113514177E+04    0.39562E+00   -0.11697E+00 64635   0.691E-01    0.341E+00
RMM:  19    -0.232074765505E+04    0.38749E+00   -0.66981E-01 59510   0.770E-01    0.165E+00
RMM:  20    -0.232069644016E+04    0.51215E-01   -0.24409E-01 63578   0.354E-01    0.154E+00
RMM:  21    -0.232065835523E+04    0.38085E-01   -0.11094E-01 62690   0.234E-01    0.122E+00
RMM:  22    -0.232063322803E+04    0.25127E-01   -0.48352E-02 61301   0.159E-01    0.720E-01
RMM:  23    -0.232062769194E+04    0.55361E-02   -0.13646E-02 67269   0.684E-02    0.490E-01
RMM:  24    -0.232062412443E+04    0.35675E-02   -0.10373E-02 62343   0.758E-02    0.248E-01
RMM:  25    -0.232062498155E+04   -0.85712E-03   -0.12773E-02 66352   0.776E-02    0.253E-01
RMM:  26    -0.232062520120E+04   -0.21965E-03   -0.34958E-03 74062   0.308E-02    0.266E-01
RMM:  27    -0.232062432694E+04    0.87426E-03   -0.68525E-04 60196   0.200E-02    0.180E-01
RMM:  28    -0.232062376866E+04    0.55828E-03   -0.93714E-04 63648   0.223E-02    0.834E-02
RMM:  29    -0.232062364009E+04    0.12857E-03   -0.61552E-04 69667   0.162E-02    0.286E-02
RMM:  30    -0.232062362188E+04    0.18207E-04   -0.12314E-04 71706   0.630E-03
   1 F= -.23206236E+04 E0= -.23206235E+04  d E =-.366402E-03
