       N       E                     dE             d eps       ncg     rms          rms(c)
DAV:   1     0.112830180681E+05    0.11283E+05   -0.55466E+05 95400   0.810E+02
DAV:   2    -0.143839605367E+04   -0.12721E+05   -0.12145E+05 95780   0.337E+02
DAV:   3    -0.241078686353E+04   -0.97239E+03   -0.89421E+03135140   0.780E+01
DAV:   4    -0.248225534995E+04   -0.71468E+02   -0.69031E+02132000   0.209E+01
DAV:   5    -0.248511441042E+04   -0.28591E+01   -0.28029E+01139880   0.332E+00    0.779E+01
RMM:   6    -0.241639959871E+04    0.68715E+02   -0.68050E+02105887   0.245E+01    0.622E+01
RMM:   7    -0.237000791394E+04    0.46392E+02   -0.35223E+02 97786   0.172E+01    0.455E+01
RMM:   8    -0.233985648334E+04    0.30151E+02   -0.15700E+02 97677   0.114E+01    0.321E+01
RMM:   9    -0.231565951194E+04    0.24197E+02   -0.34492E+01 98773   0.532E+00    0.628E+00
RMM:  10    -0.231549795794E+04    0.16155E+00   -0.73199E+00136909   0.150E+00    0.378E+00
RMM:  11    -0.231536662956E+04    0.13133E+00   -0.13297E+00123336   0.699E-01    0.397E+00
RMM:  12    -0.231489081880E+04    0.47581E+00   -0.60320E-01111677   0.731E-01    0.198E+00
RMM:  13    -0.231477748142E+04    0.11334E+00   -0.25461E-01112339   0.440E-01    0.130E+00
RMM:  14    -0.231474317124E+04    0.34310E-01   -0.15006E-01111896   0.326E-01    0.123E+00
RMM:  15    -0.231472665869E+04    0.16513E-01   -0.44670E-02118283   0.145E-01    0.815E-01
RMM:  16    -0.231471675889E+04    0.98998E-02   -0.14189E-02121259   0.791E-02    0.450E-01
RMM:  17    -0.231471395149E+04    0.28074E-02   -0.12003E-02117769   0.798E-02    0.211E-01
RMM:  18    -0.231471468073E+04   -0.72924E-03   -0.81283E-03132002   0.555E-02    0.226E-01
RMM:  19    -0.231471454369E+04    0.13704E-03   -0.20747E-03134180   0.250E-02    0.212E-01
RMM:  20    -0.231471390334E+04    0.64035E-03   -0.57111E-04112205   0.186E-02    0.132E-01
RMM:  21    -0.231471354329E+04    0.36005E-03   -0.92921E-04120842   0.217E-02    0.428E-02
RMM:  22    -0.231471351195E+04    0.31341E-04   -0.27795E-04136791   0.961E-03
   1 F= -.23147135E+04 E0= -.23147212E+04  d E =0.230769E-01
