<?xml version="1.0" encoding="ISO-8859-1"?>
<modeling>
 <generator>
  <i name="program" type="string">vasp </i>
  <i name="version" type="string">5.4.1  </i>
  <i name="subversion" type="string">24Jun15 (build Feb 03 2017 16:24:58) complex                          parallel </i>
  <i name="platform" type="string">IFC91_ompi </i>
  <i name="date" type="string">2018 07 01 </i>
  <i name="time" type="string">08:01:08 </i>
 </generator>
 <incar>
  <i type="string" name="SYSTEM"> Ir_Ru</i>
  <i type="int" name="ISTART">     0</i>
  <i type="string" name="PREC">accurate</i>
  <i type="string" name="ALGO"> Fast</i>
  <i type="int" name="ICHARG">     2</i>
  <i type="int" name="NELMIN">     5</i>
  <i type="int" name="IBRION">    -1</i>
  <i name="EDIFFG">      0.00001000</i>
  <i type="int" name="ISIF">     2</i>
  <i type="string" name="LREAL"> AUTO</i>
  <i type="int" name="ISMEAR">     1</i>
  <i name="SIGMA">      0.10000000</i>
  <v type="int" name="KPOINT_BSE">    -1     0     0     0</v>
 </incar>
 <kpoints>
  <generation param="Gamma">
   <v type="int" name="divisions">       4        4        4 </v>
   <v name="usershift">      0.00000000       0.00000000       0.00000000 </v>
   <v name="genvec1">      0.25000000       0.00000000      -0.00000000 </v>
   <v name="genvec2">      0.00000000       0.25000000       0.00000000 </v>
   <v name="genvec3">     -0.00000000      -0.00000000       0.25000000 </v>
   <v name="shift">      0.00000000       0.00000000       0.00000000 </v>
  </generation>
  <varray name="kpointlist" >
   <v>       0.00000000       0.00000000       0.00000000 </v>
   <v>       0.25000000      -0.00000000      -0.00000000 </v>
   <v>       0.50000000      -0.00000000      -0.00000000 </v>
   <v>      -0.00000000       0.25000000       0.00000000 </v>
   <v>       0.25000000       0.25000000      -0.00000000 </v>
   <v>       0.50000000       0.25000000      -0.00000000 </v>
   <v>      -0.25000000       0.25000000       0.00000000 </v>
   <v>      -0.00000000       0.50000000       0.00000000 </v>
   <v>       0.25000000       0.50000000      -0.00000000 </v>
   <v>       0.50000000       0.50000000      -0.00000000 </v>
   <v>      -0.00000000      -0.00000000       0.25000000 </v>
   <v>       0.25000000      -0.00000000       0.25000000 </v>
   <v>       0.50000000      -0.00000000       0.25000000 </v>
   <v>      -0.25000000       0.00000000       0.25000000 </v>
   <v>      -0.00000000       0.25000000       0.25000000 </v>
   <v>       0.25000000       0.25000000       0.25000000 </v>
   <v>       0.50000000       0.25000000       0.25000000 </v>
   <v>      -0.25000000       0.25000000       0.25000000 </v>
   <v>      -0.00000000       0.50000000       0.25000000 </v>
   <v>       0.25000000       0.50000000       0.25000000 </v>
   <v>       0.50000000       0.50000000       0.25000000 </v>
   <v>      -0.25000000       0.50000000       0.25000000 </v>
   <v>       0.00000000      -0.25000000       0.25000000 </v>
   <v>       0.25000000      -0.25000000       0.25000000 </v>
   <v>       0.50000000      -0.25000000       0.25000000 </v>
   <v>      -0.25000000      -0.25000000       0.25000000 </v>
   <v>      -0.00000000      -0.00000000       0.50000000 </v>
   <v>       0.25000000      -0.00000000       0.50000000 </v>
   <v>       0.50000000      -0.00000000       0.50000000 </v>
   <v>      -0.00000000       0.25000000       0.50000000 </v>
   <v>       0.25000000       0.25000000       0.50000000 </v>
   <v>       0.50000000       0.25000000       0.50000000 </v>
   <v>      -0.25000000       0.25000000       0.50000000 </v>
   <v>      -0.00000000       0.50000000       0.50000000 </v>
   <v>       0.25000000       0.50000000       0.50000000 </v>
   <v>       0.50000000       0.50000000       0.50000000 </v>
  </varray>
  <varray name="weights" >
   <v>       0.01562500 </v>
   <v>       0.03125000 </v>
   <v>       0.01562500 </v>
   <v>       0.03125000 </v>
   <v>       0.03125000 </v>
   <v>       0.03125000 </v>
   <v>       0.03125000 </v>
   <v>       0.01562500 </v>
   <v>       0.03125000 </v>
   <v>       0.01562500 </v>
   <v>       0.03125000 </v>
   <v>       0.03125000 </v>
   <v>       0.03125000 </v>
   <v>       0.03125000 </v>
   <v>       0.03125000 </v>
   <v>       0.03125000 </v>
   <v>       0.03125000 </v>
   <v>       0.03125000 </v>
   <v>       0.03125000 </v>
   <v>       0.03125000 </v>
   <v>       0.03125000 </v>
   <v>       0.03125000 </v>
   <v>       0.03125000 </v>
   <v>       0.03125000 </v>
   <v>       0.03125000 </v>
   <v>       0.03125000 </v>
   <v>       0.01562500 </v>
   <v>       0.03125000 </v>
   <v>       0.01562500 </v>
   <v>       0.03125000 </v>
   <v>       0.03125000 </v>
   <v>       0.03125000 </v>
   <v>       0.03125000 </v>
   <v>       0.01562500 </v>
   <v>       0.03125000 </v>
   <v>       0.01562500 </v>
  </varray>
 </kpoints>
 <parameters>
  <separator name="general" >
   <i type="string" name="SYSTEM">Ir_Ru</i>
   <i type="logical" name="LCOMPAT"> F  </i>
  </separator>
  <separator name="electronic" >
   <i type="string" name="PREC">accura</i>
   <i name="ENMAX">    213.27600000</i>
   <i name="ENAUG">    333.49400000</i>
   <i name="EDIFF">      0.00010000</i>
   <i type="int" name="IALGO">    68</i>
   <i type="int" name="IWAVPR">    10</i>
   <i type="int" name="NBANDS">  1320</i>
   <i name="NELECT">   2176.00000000</i>
   <i type="int" name="TURBO">     0</i>
   <i type="int" name="IRESTART">     0</i>
   <i type="int" name="NREBOOT">     0</i>
   <i type="int" name="NMIN">     0</i>
   <i name="EREF">      0.00000000</i>
   <separator name="electronic smearing" >
    <i type="int" name="ISMEAR">     1</i>
    <i name="SIGMA">      0.10000000</i>
    <i name="KSPACING">      0.50000000</i>
    <i type="logical" name="KGAMMA"> T  </i>
   </separator>
   <separator name="electronic projectors" >
    <i type="logical" name="LREAL"> T  </i>
    <v name="ROPT">     -0.00025000     -0.00025000</v>
    <i type="int" name="LMAXPAW">  -100</i>
    <i type="int" name="LMAXMIX">     2</i>
    <i type="logical" name="NLSPLINE"> F  </i>
   </separator>
   <separator name="electronic startup" >
    <i type="int" name="ISTART">     0</i>
    <i type="int" name="ICHARG">     2</i>
    <i type="int" name="INIWAV">     1</i>
   </separator>
   <separator name="electronic spin" >
    <i type="int" name="ISPIN">     1</i>
    <i type="logical" name="LNONCOLLINEAR"> F  </i>
    <v name="MAGMOM">      1.00000000      1.00000000      1.00000000      1.00000000      1.00000000      1.00000000      1.00000000      1.00000000      1.00000000      1.00000000      1.00000000      1.00000000      1.00000000      1.00000000      1.00000000      1.00000000      1.00000000      1.00000000      1.00000000      1.00000000
      1.00000000      1.00000000      1.00000000      1.00000000      1.00000000      1.00000000      1.00000000      1.00000000      1.00000000      1.00000000      1.00000000      1.00000000      1.00000000      1.00000000      1.00000000      1.00000000      1.00000000      1.00000000      1.00000000      1.00000000
      1.00000000      1.00000000      1.00000000      1.00000000      1.00000000      1.00000000      1.00000000      1.00000000      1.00000000      1.00000000      1.00000000      1.00000000      1.00000000      1.00000000      1.00000000      1.00000000      1.00000000      1.00000000      1.00000000      1.00000000
      1.00000000      1.00000000      1.00000000      1.00000000      1.00000000      1.00000000      1.00000000      1.00000000      1.00000000      1.00000000      1.00000000      1.00000000      1.00000000      1.00000000      1.00000000      1.00000000      1.00000000      1.00000000      1.00000000      1.00000000
      1.00000000      1.00000000      1.00000000      1.00000000      1.00000000      1.00000000      1.00000000      1.00000000      1.00000000      1.00000000      1.00000000      1.00000000      1.00000000      1.00000000      1.00000000      1.00000000      1.00000000      1.00000000      1.00000000      1.00000000
      1.00000000      1.00000000      1.00000000      1.00000000      1.00000000      1.00000000      1.00000000      1.00000000      1.00000000      1.00000000      1.00000000      1.00000000      1.00000000      1.00000000      1.00000000      1.00000000      1.00000000      1.00000000      1.00000000      1.00000000
      1.00000000      1.00000000      1.00000000      1.00000000      1.00000000      1.00000000      1.00000000      1.00000000      1.00000000      1.00000000      1.00000000      1.00000000      1.00000000      1.00000000      1.00000000      1.00000000      1.00000000      1.00000000      1.00000000      1.00000000
      1.00000000      1.00000000      1.00000000      1.00000000      1.00000000      1.00000000      1.00000000      1.00000000      1.00000000      1.00000000      1.00000000      1.00000000      1.00000000      1.00000000      1.00000000      1.00000000      1.00000000      1.00000000      1.00000000      1.00000000
      1.00000000      1.00000000      1.00000000      1.00000000      1.00000000      1.00000000      1.00000000      1.00000000      1.00000000      1.00000000      1.00000000      1.00000000      1.00000000      1.00000000      1.00000000      1.00000000      1.00000000      1.00000000      1.00000000      1.00000000
      1.00000000      1.00000000      1.00000000      1.00000000      1.00000000      1.00000000      1.00000000      1.00000000      1.00000000      1.00000000      1.00000000      1.00000000      1.00000000      1.00000000      1.00000000      1.00000000      1.00000000      1.00000000      1.00000000      1.00000000
      1.00000000      1.00000000      1.00000000      1.00000000      1.00000000      1.00000000      1.00000000      1.00000000      1.00000000      1.00000000      1.00000000      1.00000000      1.00000000      1.00000000      1.00000000      1.00000000      1.00000000      1.00000000      1.00000000      1.00000000
      1.00000000      1.00000000      1.00000000      1.00000000      1.00000000      1.00000000      1.00000000      1.00000000      1.00000000      1.00000000      1.00000000      1.00000000      1.00000000      1.00000000      1.00000000      1.00000000      1.00000000      1.00000000      1.00000000      1.00000000
      1.00000000      1.00000000      1.00000000      1.00000000      1.00000000      1.00000000      1.00000000      1.00000000      1.00000000      1.00000000      1.00000000      1.00000000      1.00000000      1.00000000      1.00000000      1.00000000</v>
    <i name="NUPDOWN">     -1.00000000</i>
    <i type="logical" name="LSORBIT"> F  </i>
    <v name="SAXIS">      0.00000000      0.00000000      1.00000000</v>
    <i type="logical" name="LSPIRAL"> F  </i>
    <v name="QSPIRAL">      0.00000000      0.00000000      0.00000000</v>
    <i type="logical" name="LZEROZ"> F  </i>
   </separator>
   <separator name="electronic exchange-correlation" >
    <i type="logical" name="LASPH"> F  </i>
    <i type="logical" name="LMETAGGA"> F  </i>
   </separator>
   <separator name="electronic convergence" >
    <i type="int" name="NELM">    60</i>
    <i type="int" name="NELMDL">    -5</i>
    <i type="int" name="NELMIN">     5</i>
    <i name="ENINI">    213.27600000</i>
    <separator name="electronic convergence detail" >
     <i type="logical" name="LDIAG"> T  </i>
     <i type="logical" name="LSUBROT"> F  </i>
     <i name="WEIMIN">      0.00000000</i>
     <i name="EBREAK">      0.00000000</i>
     <i name="DEPER">      0.30000000</i>
     <i type="int" name="NRMM">     4</i>
     <i name="TIME">      0.40000000</i>
    </separator>
   </separator>
   <separator name="electronic mixer" >
    <i name="AMIX">      0.40000000</i>
    <i name="BMIX">      1.00000000</i>
    <i name="AMIN">      0.10000000</i>
    <i name="AMIX_MAG">      1.60000000</i>
    <i name="BMIX_MAG">      1.00000000</i>
    <separator name="electronic mixer details" >
     <i type="int" name="IMIX">     4</i>
     <i type="logical" name="MIXFIRST"> F  </i>
     <i type="int" name="MAXMIX">   -45</i>
     <i name="WC">    100.00000000</i>
     <i type="int" name="INIMIX">     1</i>
     <i type="int" name="MIXPRE">     1</i>
     <i type="int" name="MREMOVE">     5</i>
    </separator>
   </separator>
   <separator name="electronic dipolcorrection" >
    <i type="logical" name="LDIPOL"> F  </i>
    <i type="logical" name="LMONO"> F  </i>
    <i type="int" name="IDIPOL">     0</i>
    <i name="EPSILON">      1.00000000</i>
    <v name="DIPOL">   -100.00000000   -100.00000000   -100.00000000</v>
    <i name="EFIELD">      0.00000000</i>
   </separator>
  </separator>
  <separator name="grids" >
   <i type="int" name="NGX">    80</i>
   <i type="int" name="NGY">    80</i>
   <i type="int" name="NGZ">    80</i>
   <i type="int" name="NGXF">   160</i>
   <i type="int" name="NGYF">   160</i>
   <i type="int" name="NGZF">   160</i>
   <i type="logical" name="ADDGRID"> F  </i>
  </separator>
  <separator name="ionic" >
   <i type="int" name="NSW">     0</i>
   <i type="int" name="IBRION">    -1</i>
   <i type="int" name="ISIF">     2</i>
   <i name="PSTRESS">      0.00000000</i>
   <i name="EDIFFG">      0.00001000</i>
   <i type="int" name="NFREE">     0</i>
   <i name="POTIM">      0.50000000</i>
   <i name="SMASS">     -3.00000000</i>
   <i name="SCALEE">      1.00000000</i>
  </separator>
  <separator name="ionic md" >
   <i name="TEBEG">      0.00010000</i>
   <i name="TEEND">      0.00010000</i>
   <i type="int" name="NBLOCK">     1</i>
   <i type="int" name="KBLOCK">     1</i>
   <i type="int" name="NPACO">   256</i>
   <i name="APACO">     16.00000000</i>
  </separator>
  <separator name="symmetry" >
   <i type="int" name="ISYM">     2</i>
   <i name="SYMPREC">      0.00001000</i>
  </separator>
  <separator name="dos" >
   <i type="logical" name="LORBIT"> F  </i>
   <v name="RWIGS">     -1.00000000     -1.00000000</v>
   <i type="int" name="NEDOS">   301</i>
   <i name="EMIN">     10.00000000</i>
   <i name="EMAX">    -10.00000000</i>
   <i name="EFERMI">      0.00000000</i>
  </separator>
  <separator name="writing" >
   <i type="int" name="NWRITE">     2</i>
   <i type="logical" name="LWAVE"> T  </i>
   <i type="logical" name="LCHARG"> T  </i>
   <i type="logical" name="LPARD"> F  </i>
   <i type="logical" name="LVTOT"> F  </i>
   <i type="logical" name="LVHAR"> F  </i>
   <i type="logical" name="LELF"> F  </i>
   <i type="logical" name="LOPTICS"> F  </i>
   <v name="STM">      0.00000000      0.00000000      0.00000000      0.00000000      0.00000000      0.00000000      0.00000000</v>
  </separator>
  <separator name="performance" >
   <i type="int" name="NPAR">    20</i>
   <i type="int" name="NSIM">     4</i>
   <i type="int" name="NBLK">    -1</i>
   <i type="logical" name="LPLANE"> T  </i>
   <i type="logical" name="LSCALAPACK"> T  </i>
   <i type="logical" name="LSCAAWARE"> F  </i>
   <i type="logical" name="LSCALU"> F  </i>
   <i type="logical" name="LASYNC"> F  </i>
   <i type="logical" name="LORBITALREAL"> F  </i>
  </separator>
  <separator name="miscellaneous" >
   <i type="int" name="IDIOT">     3</i>
   <i type="logical" name="LMUSIC"> F  </i>
   <v name="POMASS">    192.22000000    101.07000000</v>
   <v name="DARWINR">      0.00000000      0.00000000</v>
   <v name="DARWINV">      1.00000000      1.00000000</v>
   <i type="logical" name="LCORR"> T  </i>
  </separator>
  <i type="logical" name="GGA_COMPAT"> T  </i>
  <i type="logical" name="LBERRY"> F  </i>
  <i type="int" name="ICORELEVEL">     0</i>
  <i type="logical" name="LDAU"> F  </i>
  <i type="int" name="I_CONSTRAINED_M">     0</i>
  <separator name="electronic exchange-correlation" >
   <i type="string" name="GGA">--</i>
   <i type="int" name="VOSKOWN">     0</i>
   <i type="logical" name="LHFCALC"> F  </i>
   <i type="string" name="PRECFOCK"></i>
   <i type="logical" name="LSYMGRAD"> F  </i>
   <i type="logical" name="LHFONE"> F  </i>
   <i type="logical" name="LRHFCALC"> F  </i>
   <i type="logical" name="LTHOMAS"> F  </i>
   <i type="logical" name="LMODELHF"> F  </i>
   <i name="ENCUT4O">     -1.00000000</i>
   <i type="int" name="EXXOEP">     0</i>
   <i type="int" name="FOURORBIT">     0</i>
   <i name="AEXX">      0.00000000</i>
   <i name="HFALPHA">      0.00000000</i>
   <i name="MCALPHA">      0.00000000</i>
   <i name="ALDAX">      1.00000000</i>
   <i name="AGGAX">      1.00000000</i>
   <i name="ALDAC">      1.00000000</i>
   <i name="AGGAC">      1.00000000</i>
   <i type="int" name="NKREDX">     1</i>
   <i type="int" name="NKREDY">     1</i>
   <i type="int" name="NKREDZ">     1</i>
   <i type="logical" name="SHIFTRED"> F  </i>
   <i type="logical" name="ODDONLY"> F  </i>
   <i type="logical" name="EVENONLY"> F  </i>
   <i type="int" name="LMAXFOCK">     0</i>
   <i type="int" name="NMAXFOCKAE">     0</i>
   <i type="logical" name="LFOCKAEDFT"> F  </i>
   <i name="HFSCREEN">      0.00000000</i>
   <i name="HFSCREENC">      0.00000000</i>
   <i type="int" name="NBANDSGWLOW">     0</i>
  </separator>
  <separator name="vdW DFT" >
   <i type="logical" name="LUSE_VDW"> F  </i>
   <i name="Zab_VDW">     -0.84910000</i>
   <i name="PARAM1">      0.12340000</i>
   <i name="PARAM2">      1.00000000</i>
   <i name="PARAM3">      0.00000000</i>
  </separator>
  <separator name="model GW" >
   <i type="int" name="MODEL_GW">     0</i>
   <i name="MODEL_EPS0">      8.51523704</i>
   <i name="MODEL_ALPHA">      1.00000000</i>
  </separator>
  <separator name="linear response parameters" >
   <i type="logical" name="LEPSILON"> F  </i>
   <i type="logical" name="LRPA"> F  </i>
   <i type="logical" name="LNABLA"> F  </i>
   <i type="logical" name="LVEL"> F  </i>
   <i type="int" name="KINTER">     0</i>
   <i name="CSHIFT">      0.10000000</i>
   <i name="OMEGAMAX">     -1.00000000</i>
   <i name="DEG_THRESHOLD">      0.00200000</i>
  </separator>
  <separator name="orbital magnetization" >
   <i type="logical" name="NUCIND"> F  </i>
   <v name="MAGPOS">      0.00000000      0.00000000      0.00000000</v>
   <i type="logical" name="LNICSALL"> T  </i>
   <i type="logical" name="ORBITALMAG"> F  </i>
   <i type="logical" name="LMAGBLOCH"> F  </i>
   <i type="logical" name="LCHIMAG"> F  </i>
   <i type="logical" name="LGAUGE"> T  </i>
   <i type="int" name="MAGATOM">     0</i>
   <v name="MAGDIPOL">      0.00000000      0.00000000      0.00000000</v>
   <v name="AVECCONST">      0.00000000      0.00000000      0.00000000</v>
  </separator>
  <separator name="response functions" >
   <i type="logical" name="LADDER"> F  </i>
   <i type="logical" name="LFXC"> F  </i>
   <i type="logical" name="LHARTREE"> T  </i>
   <i type="int" name="IBSE">     0</i>
   <v type="int" name="KPOINT">    -1     0     0     0</v>
   <i type="logical" name="LTCTE"> F  </i>
   <i type="logical" name="LTETE"> F  </i>
   <i type="logical" name="LTRIPLET"> F  </i>
   <i type="logical" name="LFXCEPS"> F  </i>
   <i type="logical" name="LFXHEG"> F  </i>
   <i type="int" name="NATURALO">     0</i>
   <i type="logical" name="L2ORDER"> F  </i>
   <i type="logical" name="LUSEW"> F  </i>
   <i name="ENCUTGW">     -2.00000000</i>
   <i name="ENCUTGWSOFT">     -2.00000000</i>
   <i name="ENCUTLF">     -1.00000000</i>
   <i type="int" name="LMAXMP2">    -1</i>
   <i name="SCISSOR">      0.00000000</i>
   <i type="int" name="NOMEGA">     0</i>
   <i type="int" name="NOMEGAR">     0</i>
   <i type="int" name="NBANDSGW">    -1</i>
   <i type="int" name="NBANDSO">    -1</i>
   <i type="int" name="NBANDSV">    -1</i>
   <i type="int" name="NELM">     1</i>
   <i type="int" name="NELMHF">     1</i>
   <i type="int" name="DIM">     3</i>
   <i type="int" name="ANTIRES">     0</i>
   <i name="OMEGAMAX">    -30.00000000</i>
   <i name="OMEGAMIN">    -30.00000000</i>
   <i name="OMEGATL">   -200.00000000</i>
   <i type="int" name="OMEGAGRID">     0</i>
   <i name="CSHIFT">     -0.10000000</i>
   <i type="logical" name="SELFENERGY"> F  </i>
   <i type="logical" name="LSPECTRAL"> F  </i>
   <i type="logical" name="LSPECTRALGW"> F  </i>
   <i type="logical" name="LSINGLES"> F  </i>
   <i type="logical" name="LFERMIGW"> F  </i>
   <i type="logical" name="ODDONLYGW"> F  </i>
   <i type="logical" name="EVENONLYGW"> F  </i>
   <i type="int" name="NKREDLFX">     1</i>
   <i type="int" name="NKREDLFY">     1</i>
   <i type="int" name="NKREDLFZ">     1</i>
   <i type="int" name="MAXMEM">  1800</i>
   <i type="int" name="TELESCOPE">     0</i>
   <i type="int" name="TAUPAR">     1</i>
   <i type="int" name="OMEGAPAR">    -1</i>
   <i name="LAMBDA">      1.00000000</i>
  </separator>
  <separator name="External order field" >
   <i name="OFIELD_KAPPA">      0.00000000</i>
   <v name="OFIELD_K">      0.00000000      0.00000000      0.00000000</v>
   <i name="OFIELD_Q6_NEAR">      0.00000000</i>
   <i name="OFIELD_Q6_FAR">      0.00000000</i>
   <i name="OFIELD_A">      0.00000000</i>
  </separator>
 </parameters>
 <atominfo>
  <atoms>     256 </atoms>
  <types>       2 </types>
  <array name="atoms" >
   <dimension dim="1">ion</dimension>
   <field type="string">element</field>
   <field type="int">atomtype</field>
   <set>
    <rc><c>Ir</c><c>   1</c></rc>
    <rc><c>Ir</c><c>   1</c></rc>
    <rc><c>Ir</c><c>   1</c></rc>
    <rc><c>Ir</c><c>   1</c></rc>
    <rc><c>Ir</c><c>   1</c></rc>
    <rc><c>Ir</c><c>   1</c></rc>
    <rc><c>Ir</c><c>   1</c></rc>
    <rc><c>Ir</c><c>   1</c></rc>
    <rc><c>Ir</c><c>   1</c></rc>
    <rc><c>Ir</c><c>   1</c></rc>
    <rc><c>Ir</c><c>   1</c></rc>
    <rc><c>Ir</c><c>   1</c></rc>
    <rc><c>Ir</c><c>   1</c></rc>
    <rc><c>Ir</c><c>   1</c></rc>
    <rc><c>Ir</c><c>   1</c></rc>
    <rc><c>Ir</c><c>   1</c></rc>
    <rc><c>Ir</c><c>   1</c></rc>
    <rc><c>Ir</c><c>   1</c></rc>
    <rc><c>Ir</c><c>   1</c></rc>
    <rc><c>Ir</c><c>   1</c></rc>
    <rc><c>Ir</c><c>   1</c></rc>
    <rc><c>Ir</c><c>   1</c></rc>
    <rc><c>Ir</c><c>   1</c></rc>
    <rc><c>Ir</c><c>   1</c></rc>
    <rc><c>Ir</c><c>   1</c></rc>
    <rc><c>Ir</c><c>   1</c></rc>
    <rc><c>Ir</c><c>   1</c></rc>
    <rc><c>Ir</c><c>   1</c></rc>
    <rc><c>Ir</c><c>   1</c></rc>
    <rc><c>Ir</c><c>   1</c></rc>
    <rc><c>Ir</c><c>   1</c></rc>
    <rc><c>Ir</c><c>   1</c></rc>
    <rc><c>Ir</c><c>   1</c></rc>
    <rc><c>Ir</c><c>   1</c></rc>
    <rc><c>Ir</c><c>   1</c></rc>
    <rc><c>Ir</c><c>   1</c></rc>
    <rc><c>Ir</c><c>   1</c></rc>
    <rc><c>Ir</c><c>   1</c></rc>
    <rc><c>Ir</c><c>   1</c></rc>
    <rc><c>Ir</c><c>   1</c></rc>
    <rc><c>Ir</c><c>   1</c></rc>
    <rc><c>Ir</c><c>   1</c></rc>
    <rc><c>Ir</c><c>   1</c></rc>
    <rc><c>Ir</c><c>   1</c></rc>
    <rc><c>Ir</c><c>   1</c></rc>
    <rc><c>Ir</c><c>   1</c></rc>
    <rc><c>Ir</c><c>   1</c></rc>
    <rc><c>Ir</c><c>   1</c></rc>
    <rc><c>Ir</c><c>   1</c></rc>
    <rc><c>Ir</c><c>   1</c></rc>
    <rc><c>Ir</c><c>   1</c></rc>
    <rc><c>Ir</c><c>   1</c></rc>
    <rc><c>Ir</c><c>   1</c></rc>
    <rc><c>Ir</c><c>   1</c></rc>
    <rc><c>Ir</c><c>   1</c></rc>
    <rc><c>Ir</c><c>   1</c></rc>
    <rc><c>Ir</c><c>   1</c></rc>
    <rc><c>Ir</c><c>   1</c></rc>
    <rc><c>Ir</c><c>   1</c></rc>
    <rc><c>Ir</c><c>   1</c></rc>
    <rc><c>Ir</c><c>   1</c></rc>
    <rc><c>Ir</c><c>   1</c></rc>
    <rc><c>Ir</c><c>   1</c></rc>
    <rc><c>Ir</c><c>   1</c></rc>
    <rc><c>Ir</c><c>   1</c></rc>
    <rc><c>Ir</c><c>   1</c></rc>
    <rc><c>Ir</c><c>   1</c></rc>
    <rc><c>Ir</c><c>   1</c></rc>
    <rc><c>Ir</c><c>   1</c></rc>
    <rc><c>Ir</c><c>   1</c></rc>
    <rc><c>Ir</c><c>   1</c></rc>
    <rc><c>Ir</c><c>   1</c></rc>
    <rc><c>Ir</c><c>   1</c></rc>
    <rc><c>Ir</c><c>   1</c></rc>
    <rc><c>Ir</c><c>   1</c></rc>
    <rc><c>Ir</c><c>   1</c></rc>
    <rc><c>Ir</c><c>   1</c></rc>
    <rc><c>Ir</c><c>   1</c></rc>
    <rc><c>Ir</c><c>   1</c></rc>
    <rc><c>Ir</c><c>   1</c></rc>
    <rc><c>Ir</c><c>   1</c></rc>
    <rc><c>Ir</c><c>   1</c></rc>
    <rc><c>Ir</c><c>   1</c></rc>
    <rc><c>Ir</c><c>   1</c></rc>
    <rc><c>Ir</c><c>   1</c></rc>
    <rc><c>Ir</c><c>   1</c></rc>
    <rc><c>Ir</c><c>   1</c></rc>
    <rc><c>Ir</c><c>   1</c></rc>
    <rc><c>Ir</c><c>   1</c></rc>
    <rc><c>Ir</c><c>   1</c></rc>
    <rc><c>Ir</c><c>   1</c></rc>
    <rc><c>Ir</c><c>   1</c></rc>
    <rc><c>Ir</c><c>   1</c></rc>
    <rc><c>Ir</c><c>   1</c></rc>
    <rc><c>Ir</c><c>   1</c></rc>
    <rc><c>Ir</c><c>   1</c></rc>
    <rc><c>Ir</c><c>   1</c></rc>
    <rc><c>Ir</c><c>   1</c></rc>
    <rc><c>Ir</c><c>   1</c></rc>
    <rc><c>Ir</c><c>   1</c></rc>
    <rc><c>Ir</c><c>   1</c></rc>
    <rc><c>Ir</c><c>   1</c></rc>
    <rc><c>Ir</c><c>   1</c></rc>
    <rc><c>Ir</c><c>   1</c></rc>
    <rc><c>Ir</c><c>   1</c></rc>
    <rc><c>Ir</c><c>   1</c></rc>
    <rc><c>Ir</c><c>   1</c></rc>
    <rc><c>Ir</c><c>   1</c></rc>
    <rc><c>Ir</c><c>   1</c></rc>
    <rc><c>Ir</c><c>   1</c></rc>
    <rc><c>Ir</c><c>   1</c></rc>
    <rc><c>Ir</c><c>   1</c></rc>
    <rc><c>Ir</c><c>   1</c></rc>
    <rc><c>Ir</c><c>   1</c></rc>
    <rc><c>Ir</c><c>   1</c></rc>
    <rc><c>Ir</c><c>   1</c></rc>
    <rc><c>Ir</c><c>   1</c></rc>
    <rc><c>Ir</c><c>   1</c></rc>
    <rc><c>Ir</c><c>   1</c></rc>
    <rc><c>Ir</c><c>   1</c></rc>
    <rc><c>Ir</c><c>   1</c></rc>
    <rc><c>Ir</c><c>   1</c></rc>
    <rc><c>Ir</c><c>   1</c></rc>
    <rc><c>Ir</c><c>   1</c></rc>
    <rc><c>Ir</c><c>   1</c></rc>
    <rc><c>Ir</c><c>   1</c></rc>
    <rc><c>Ir</c><c>   1</c></rc>
    <rc><c>Ir</c><c>   1</c></rc>
    <rc><c>Ru</c><c>   2</c></rc>
    <rc><c>Ru</c><c>   2</c></rc>
    <rc><c>Ru</c><c>   2</c></rc>
    <rc><c>Ru</c><c>   2</c></rc>
    <rc><c>Ru</c><c>   2</c></rc>
    <rc><c>Ru</c><c>   2</c></rc>
    <rc><c>Ru</c><c>   2</c></rc>
    <rc><c>Ru</c><c>   2</c></rc>
    <rc><c>Ru</c><c>   2</c></rc>
    <rc><c>Ru</c><c>   2</c></rc>
    <rc><c>Ru</c><c>   2</c></rc>
    <rc><c>Ru</c><c>   2</c></rc>
    <rc><c>Ru</c><c>   2</c></rc>
    <rc><c>Ru</c><c>   2</c></rc>
    <rc><c>Ru</c><c>   2</c></rc>
    <rc><c>Ru</c><c>   2</c></rc>
    <rc><c>Ru</c><c>   2</c></rc>
    <rc><c>Ru</c><c>   2</c></rc>
    <rc><c>Ru</c><c>   2</c></rc>
    <rc><c>Ru</c><c>   2</c></rc>
    <rc><c>Ru</c><c>   2</c></rc>
    <rc><c>Ru</c><c>   2</c></rc>
    <rc><c>Ru</c><c>   2</c></rc>
    <rc><c>Ru</c><c>   2</c></rc>
    <rc><c>Ru</c><c>   2</c></rc>
    <rc><c>Ru</c><c>   2</c></rc>
    <rc><c>Ru</c><c>   2</c></rc>
    <rc><c>Ru</c><c>   2</c></rc>
    <rc><c>Ru</c><c>   2</c></rc>
    <rc><c>Ru</c><c>   2</c></rc>
    <rc><c>Ru</c><c>   2</c></rc>
    <rc><c>Ru</c><c>   2</c></rc>
    <rc><c>Ru</c><c>   2</c></rc>
    <rc><c>Ru</c><c>   2</c></rc>
    <rc><c>Ru</c><c>   2</c></rc>
    <rc><c>Ru</c><c>   2</c></rc>
    <rc><c>Ru</c><c>   2</c></rc>
    <rc><c>Ru</c><c>   2</c></rc>
    <rc><c>Ru</c><c>   2</c></rc>
    <rc><c>Ru</c><c>   2</c></rc>
    <rc><c>Ru</c><c>   2</c></rc>
    <rc><c>Ru</c><c>   2</c></rc>
    <rc><c>Ru</c><c>   2</c></rc>
    <rc><c>Ru</c><c>   2</c></rc>
    <rc><c>Ru</c><c>   2</c></rc>
    <rc><c>Ru</c><c>   2</c></rc>
    <rc><c>Ru</c><c>   2</c></rc>
    <rc><c>Ru</c><c>   2</c></rc>
    <rc><c>Ru</c><c>   2</c></rc>
    <rc><c>Ru</c><c>   2</c></rc>
    <rc><c>Ru</c><c>   2</c></rc>
    <rc><c>Ru</c><c>   2</c></rc>
    <rc><c>Ru</c><c>   2</c></rc>
    <rc><c>Ru</c><c>   2</c></rc>
    <rc><c>Ru</c><c>   2</c></rc>
    <rc><c>Ru</c><c>   2</c></rc>
    <rc><c>Ru</c><c>   2</c></rc>
    <rc><c>Ru</c><c>   2</c></rc>
    <rc><c>Ru</c><c>   2</c></rc>
    <rc><c>Ru</c><c>   2</c></rc>
    <rc><c>Ru</c><c>   2</c></rc>
    <rc><c>Ru</c><c>   2</c></rc>
    <rc><c>Ru</c><c>   2</c></rc>
    <rc><c>Ru</c><c>   2</c></rc>
    <rc><c>Ru</c><c>   2</c></rc>
    <rc><c>Ru</c><c>   2</c></rc>
    <rc><c>Ru</c><c>   2</c></rc>
    <rc><c>Ru</c><c>   2</c></rc>
    <rc><c>Ru</c><c>   2</c></rc>
    <rc><c>Ru</c><c>   2</c></rc>
    <rc><c>Ru</c><c>   2</c></rc>
    <rc><c>Ru</c><c>   2</c></rc>
    <rc><c>Ru</c><c>   2</c></rc>
    <rc><c>Ru</c><c>   2</c></rc>
    <rc><c>Ru</c><c>   2</c></rc>
    <rc><c>Ru</c><c>   2</c></rc>
    <rc><c>Ru</c><c>   2</c></rc>
    <rc><c>Ru</c><c>   2</c></rc>
    <rc><c>Ru</c><c>   2</c></rc>
    <rc><c>Ru</c><c>   2</c></rc>
    <rc><c>Ru</c><c>   2</c></rc>
    <rc><c>Ru</c><c>   2</c></rc>
    <rc><c>Ru</c><c>   2</c></rc>
    <rc><c>Ru</c><c>   2</c></rc>
    <rc><c>Ru</c><c>   2</c></rc>
    <rc><c>Ru</c><c>   2</c></rc>
    <rc><c>Ru</c><c>   2</c></rc>
    <rc><c>Ru</c><c>   2</c></rc>
    <rc><c>Ru</c><c>   2</c></rc>
    <rc><c>Ru</c><c>   2</c></rc>
    <rc><c>Ru</c><c>   2</c></rc>
    <rc><c>Ru</c><c>   2</c></rc>
    <rc><c>Ru</c><c>   2</c></rc>
    <rc><c>Ru</c><c>   2</c></rc>
    <rc><c>Ru</c><c>   2</c></rc>
    <rc><c>Ru</c><c>   2</c></rc>
    <rc><c>Ru</c><c>   2</c></rc>
    <rc><c>Ru</c><c>   2</c></rc>
    <rc><c>Ru</c><c>   2</c></rc>
    <rc><c>Ru</c><c>   2</c></rc>
    <rc><c>Ru</c><c>   2</c></rc>
    <rc><c>Ru</c><c>   2</c></rc>
    <rc><c>Ru</c><c>   2</c></rc>
    <rc><c>Ru</c><c>   2</c></rc>
    <rc><c>Ru</c><c>   2</c></rc>
    <rc><c>Ru</c><c>   2</c></rc>
    <rc><c>Ru</c><c>   2</c></rc>
    <rc><c>Ru</c><c>   2</c></rc>
    <rc><c>Ru</c><c>   2</c></rc>
    <rc><c>Ru</c><c>   2</c></rc>
    <rc><c>Ru</c><c>   2</c></rc>
    <rc><c>Ru</c><c>   2</c></rc>
    <rc><c>Ru</c><c>   2</c></rc>
    <rc><c>Ru</c><c>   2</c></rc>
    <rc><c>Ru</c><c>   2</c></rc>
    <rc><c>Ru</c><c>   2</c></rc>
    <rc><c>Ru</c><c>   2</c></rc>
    <rc><c>Ru</c><c>   2</c></rc>
    <rc><c>Ru</c><c>   2</c></rc>
    <rc><c>Ru</c><c>   2</c></rc>
    <rc><c>Ru</c><c>   2</c></rc>
    <rc><c>Ru</c><c>   2</c></rc>
    <rc><c>Ru</c><c>   2</c></rc>
    <rc><c>Ru</c><c>   2</c></rc>
    <rc><c>Ru</c><c>   2</c></rc>
    <rc><c>Ru</c><c>   2</c></rc>
    <rc><c>Ru</c><c>   2</c></rc>
    <rc><c>Ru</c><c>   2</c></rc>
   </set>
  </array>
  <array name="atomtypes" >
   <dimension dim="1">type</dimension>
   <field type="int">atomspertype</field>
   <field type="string">element</field>
   <field>mass</field>
   <field>valence</field>
   <field type="string">pseudopotential</field>
   <set>
    <rc><c> 128</c><c>Ir</c><c>    192.22000000</c><c>      9.00000000</c><c> PAW_PBE Ir 06Sep2000                   </c></rc>
    <rc><c> 128</c><c>Ru</c><c>    101.07000000</c><c>      8.00000000</c><c> PAW_PBE Ru 06Sep2000                   </c></rc>
   </set>
  </array>
 </atominfo>
 <structure name="initialpos" >
  <crystal>
   <varray name="basis" >
    <v>       0.00188000      15.37080000       0.00140000 </v>
    <v>       0.00152000      -0.00140000     -15.37218000 </v>
    <v>     -15.37636000      -0.00188000       0.00151000 </v>
   </varray>
   <i name="volume">   3633.16780401 </i>
   <varray name="rec_basis" >
    <v>      -0.00000795       0.06505842      -0.00000593 </v>
    <v>      -0.00000639       0.00000593      -0.06505258 </v>
    <v>      -0.06503490       0.00000795      -0.00000643 </v>
   </varray>
  </crystal>
  <varray name="positions" >
   <v>       0.12544250       0.12495750       0.00137500 </v>
   <v>       0.25023500       0.87425500       0.37476000 </v>
   <v>       0.50095250       0.12407750       0.62474500 </v>
   <v>       0.37553250       0.12507750       0.50016500 </v>
   <v>       0.24973750       0.12571750       0.37459500 </v>
   <v>       0.37600500       0.00007500       0.37466000 </v>
   <v>       0.25039000       0.00088000       0.24854000 </v>
   <v>       0.37534750       0.24987750       0.37305500 </v>
   <v>       0.49970000       0.00076500       0.24985000 </v>
   <v>       0.25027250       0.00022250       0.00012500 </v>
   <v>       0.62466750       0.24912250       0.37463500 </v>
   <v>       0.37446000       0.12498500       0.00162000 </v>
   <v>       0.49907250       0.37499750       0.12491500 </v>
   <v>       0.49965250       0.24988250       0.00137500 </v>
   <v>       0.37398000       0.25085000       0.87599000 </v>
   <v>       0.62457250       0.37420750       0.24977500 </v>
   <v>       0.37544250       0.37495750       0.50137500 </v>
   <v>       0.50023500       0.12425500       0.87476000 </v>
   <v>       0.75095250       0.37407750       0.12474500 </v>
   <v>       0.62553250       0.37507750       0.00016500 </v>
   <v>       0.49973750       0.37571750       0.87459500 </v>
   <v>       0.62600500       0.25007500       0.87466000 </v>
   <v>       0.50039000       0.25088000       0.74854000 </v>
   <v>       0.62534750       0.49987750       0.87305500 </v>
   <v>       0.74970000       0.25076500       0.74985000 </v>
   <v>       0.50027250       0.25022250       0.50012500 </v>
   <v>       0.87466750       0.49912250       0.87463500 </v>
   <v>       0.62446000       0.37498500       0.50162000 </v>
   <v>       0.74907250       0.62499750       0.62491500 </v>
   <v>       0.74965250       0.49988250       0.50137500 </v>
   <v>       0.62398000       0.50085000       0.37599000 </v>
   <v>       0.87457250       0.62420750       0.74977500 </v>
   <v>       0.62544250       0.12495750       0.00137500 </v>
   <v>       0.75023500       0.87425500       0.37476000 </v>
   <v>       0.00095250       0.12407750       0.62474500 </v>
   <v>       0.87553250       0.12507750       0.50016500 </v>
   <v>       0.74973750       0.12571750       0.37459500 </v>
   <v>       0.87600500       0.00007500       0.37466000 </v>
   <v>       0.75039000       0.00088000       0.24854000 </v>
   <v>       0.87534750       0.24987750       0.37305500 </v>
   <v>       0.99970000       0.00076500       0.24985000 </v>
   <v>       0.75027250       0.00022250       0.00012500 </v>
   <v>       0.12466750       0.24912250       0.37463500 </v>
   <v>       0.87445750       0.12498750       0.00161500 </v>
   <v>       0.99907250       0.37499750       0.12491500 </v>
   <v>       0.99965250       0.24988250       0.00137500 </v>
   <v>       0.87398000       0.25085000       0.87599000 </v>
   <v>       0.12457250       0.37420750       0.24977500 </v>
   <v>       0.12544250       0.62495750       0.00137500 </v>
   <v>       0.25023500       0.37425500       0.37476000 </v>
   <v>       0.50095250       0.62407750       0.62474500 </v>
   <v>       0.37553250       0.62507750       0.50016500 </v>
   <v>       0.24973750       0.62571750       0.37459500 </v>
   <v>       0.37600500       0.50007500       0.37466000 </v>
   <v>       0.25039000       0.50088000       0.24854000 </v>
   <v>       0.37534750       0.74987750       0.37305500 </v>
   <v>       0.49970000       0.50076500       0.24985000 </v>
   <v>       0.25027250       0.50022250       0.00012500 </v>
   <v>       0.62466750       0.74912250       0.37463500 </v>
   <v>       0.37446000       0.62498500       0.00162000 </v>
   <v>       0.49907250       0.87499750       0.12491500 </v>
   <v>       0.49965250       0.74988250       0.00137500 </v>
   <v>       0.37397750       0.75084750       0.87598500 </v>
   <v>       0.62457250       0.87420750       0.24977500 </v>
   <v>       0.87544250       0.37495750       0.50137500 </v>
   <v>       0.00023500       0.12425500       0.87476000 </v>
   <v>       0.25095250       0.37407750       0.12474500 </v>
   <v>       0.12553250       0.37507750       0.00016500 </v>
   <v>       0.99973750       0.37571750       0.87459500 </v>
   <v>       0.12600500       0.25007500       0.87466000 </v>
   <v>       0.00039000       0.25088000       0.74854000 </v>
   <v>       0.12534750       0.49987750       0.87305500 </v>
   <v>       0.24970000       0.25076500       0.74985000 </v>
   <v>       0.00027250       0.25022250       0.50012500 </v>
   <v>       0.37466750       0.49912250       0.87463500 </v>
   <v>       0.12446000       0.37498500       0.50162000 </v>
   <v>       0.24907250       0.62499750       0.62491500 </v>
   <v>       0.24965250       0.49988250       0.50137500 </v>
   <v>       0.12397750       0.50084750       0.37598500 </v>
   <v>       0.37457250       0.62420750       0.74977500 </v>
   <v>       0.37544250       0.87495750       0.50137500 </v>
   <v>       0.50023500       0.62425500       0.87476000 </v>
   <v>       0.75095250       0.87407750       0.12474500 </v>
   <v>       0.62553250       0.87507750       0.00016500 </v>
   <v>       0.49973750       0.87571750       0.87459500 </v>
   <v>       0.62600250       0.75007250       0.87465500 </v>
   <v>       0.50039000       0.75088000       0.74854000 </v>
   <v>       0.62534750       0.99987750       0.87305500 </v>
   <v>       0.74970000       0.75076500       0.74985000 </v>
   <v>       0.50027250       0.75022250       0.50012500 </v>
   <v>       0.87466750       0.99912250       0.87463500 </v>
   <v>       0.62446000       0.87498500       0.50162000 </v>
   <v>       0.74907250       0.12499750       0.62491500 </v>
   <v>       0.74965250       0.99988250       0.50137500 </v>
   <v>       0.62397750       0.00084750       0.37598500 </v>
   <v>       0.87457250       0.12420750       0.74977500 </v>
   <v>       0.62544250       0.62495750       0.00137500 </v>
   <v>       0.75023500       0.37425500       0.37476000 </v>
   <v>       0.00095250       0.62407750       0.62474500 </v>
   <v>       0.87553250       0.62507750       0.50016500 </v>
   <v>       0.74973750       0.62571750       0.37459500 </v>
   <v>       0.87600500       0.50007500       0.37466000 </v>
   <v>       0.75039000       0.50088000       0.24854000 </v>
   <v>       0.87534750       0.74987750       0.37305500 </v>
   <v>       0.99970000       0.50076500       0.24985000 </v>
   <v>       0.75027250       0.50022250       0.00012500 </v>
   <v>       0.12466750       0.74912250       0.37463500 </v>
   <v>       0.87445750       0.62498750       0.00161500 </v>
   <v>       0.99907250       0.87499750       0.12491500 </v>
   <v>       0.99965250       0.74988250       0.00137500 </v>
   <v>       0.87398000       0.75085000       0.87599000 </v>
   <v>       0.12457250       0.87420750       0.24977500 </v>
   <v>       0.87544250       0.87495750       0.50137500 </v>
   <v>       0.00023500       0.62425500       0.87476000 </v>
   <v>       0.25095000       0.87407500       0.12474000 </v>
   <v>       0.12553250       0.87507750       0.00016500 </v>
   <v>       0.99973750       0.87571750       0.87459500 </v>
   <v>       0.12600250       0.75007250       0.87465500 </v>
   <v>       0.00039000       0.75088000       0.74854000 </v>
   <v>       0.12534750       0.99987750       0.87305500 </v>
   <v>       0.24970000       0.75076500       0.74985000 </v>
   <v>       0.00027250       0.75022250       0.50012500 </v>
   <v>       0.37466750       0.99912250       0.87463500 </v>
   <v>       0.12446000       0.87498500       0.50162000 </v>
   <v>       0.24907250       0.12499750       0.62491500 </v>
   <v>       0.24965250       0.99988250       0.50137500 </v>
   <v>       0.12397750       0.00084750       0.37598500 </v>
   <v>       0.37457250       0.12420750       0.74977500 </v>
   <v>       0.25026250       0.24934750       0.24886500 </v>
   <v>       0.37540000       0.99901500       0.62581000 </v>
   <v>       0.25026250       0.24988250       0.99990500 </v>
   <v>       0.37536500       0.37434000       0.25012000 </v>
   <v>       0.12452500       0.00102500       0.12470000 </v>
   <v>       0.62450750       0.12506750       0.49982500 </v>
   <v>       0.50015250       0.12515750       0.37466500 </v>
   <v>       0.37555250       0.12560250       0.24861500 </v>
   <v>       0.24996250       0.12589750       0.12593500 </v>
   <v>       0.37545500       0.00032500       0.12460000 </v>
   <v>       0.49970750       0.24909250       0.24996500 </v>
   <v>       0.37461750       0.87555250       0.74886500 </v>
   <v>       0.37463500       0.24969000       0.12600000 </v>
   <v>       0.50001500       0.12515000       0.12596000 </v>
   <v>       0.49971750       0.00013750       0.00129500 </v>
   <v>       0.24985750       0.12477250       0.87470500 </v>
   <v>       0.50026250       0.49934750       0.74886500 </v>
   <v>       0.62540000       0.24901500       0.12581000 </v>
   <v>       0.50026250       0.49988250       0.49990500 </v>
   <v>       0.62536500       0.62434000       0.75012000 </v>
   <v>       0.37452500       0.25102500       0.62470000 </v>
   <v>       0.87450750       0.37506750       0.99982500 </v>
   <v>       0.75015250       0.37515750       0.87466500 </v>
   <v>       0.62555250       0.37560250       0.74861500 </v>
   <v>       0.49996250       0.37589750       0.62593500 </v>
   <v>       0.62545500       0.25032500       0.62460000 </v>
   <v>       0.74970750       0.49909250       0.74996500 </v>
   <v>       0.62461750       0.12555250       0.24886500 </v>
   <v>       0.62463250       0.49969250       0.62599500 </v>
   <v>       0.75001500       0.37515000       0.62596000 </v>
   <v>       0.74971750       0.25013750       0.50129500 </v>
   <v>       0.49985750       0.37477250       0.37470500 </v>
   <v>       0.74765750       0.24934750       0.24886500 </v>
   <v>       0.87540000       0.99901500       0.62581000 </v>
   <v>       0.75026250       0.24988250       0.99990500 </v>
   <v>       0.87536500       0.37434000       0.25012000 </v>
   <v>       0.62452500       0.00102500       0.12470000 </v>
   <v>       0.12450750       0.12506750       0.49982500 </v>
   <v>       0.00015250       0.12515750       0.37466500 </v>
   <v>       0.87555250       0.12560250       0.24861500 </v>
   <v>       0.74996250       0.12589750       0.12593500 </v>
   <v>       0.87545500       0.00032500       0.12460000 </v>
   <v>       0.99970750       0.24909250       0.24996500 </v>
   <v>       0.87461750       0.87555250       0.74886500 </v>
   <v>       0.87463250       0.24969250       0.12599500 </v>
   <v>       0.00001500       0.12515000       0.12596000 </v>
   <v>       0.99971750       0.00013750       0.00129500 </v>
   <v>       0.74985750       0.12477250       0.87470500 </v>
   <v>       0.25026250       0.74934750       0.24886500 </v>
   <v>       0.37540000       0.49901500       0.62581000 </v>
   <v>       0.25026250       0.74988250       0.99990500 </v>
   <v>       0.37536500       0.87434000       0.25012000 </v>
   <v>       0.12452500       0.50102500       0.12470000 </v>
   <v>       0.62450750       0.62506750       0.49982500 </v>
   <v>       0.50015250       0.62515750       0.37466500 </v>
   <v>       0.37555250       0.62560250       0.24861500 </v>
   <v>       0.24996250       0.62589750       0.12593500 </v>
   <v>       0.37545500       0.50032500       0.12460000 </v>
   <v>       0.49970750       0.74909250       0.24996500 </v>
   <v>       0.37461750       0.37555250       0.74886500 </v>
   <v>       0.37463500       0.74969000       0.12600000 </v>
   <v>       0.50001500       0.62515000       0.12596000 </v>
   <v>       0.49971750       0.50013750       0.00129500 </v>
   <v>       0.24985750       0.62477250       0.87470500 </v>
   <v>       0.00026250       0.49934750       0.74886500 </v>
   <v>       0.12540000       0.24901500       0.12581000 </v>
   <v>       0.00026250       0.49988250       0.49990500 </v>
   <v>       0.12536500       0.62434000       0.75012000 </v>
   <v>       0.87452500       0.25102500       0.62470000 </v>
   <v>       0.37450750       0.37506750       0.99982500 </v>
   <v>       0.25015250       0.37515750       0.87466500 </v>
   <v>       0.12555250       0.37560250       0.74861500 </v>
   <v>       0.99996250       0.37589750       0.62593500 </v>
   <v>       0.12545500       0.25032500       0.62460000 </v>
   <v>       0.24970750       0.49909250       0.74996500 </v>
   <v>       0.12461750       0.12555250       0.24886500 </v>
   <v>       0.12463250       0.49969250       0.62599500 </v>
   <v>       0.25001500       0.37515000       0.62596000 </v>
   <v>       0.24971750       0.25013750       0.50129500 </v>
   <v>       0.99985750       0.37477250       0.37470500 </v>
   <v>       0.50026250       0.99934750       0.74886500 </v>
   <v>       0.62540000       0.74901500       0.12581000 </v>
   <v>       0.50026250       0.99988250       0.49990500 </v>
   <v>       0.62536500       0.12434000       0.75012000 </v>
   <v>       0.37452500       0.75102500       0.62470000 </v>
   <v>       0.87450750       0.87506750       0.99982500 </v>
   <v>       0.75015250       0.87515750       0.87466500 </v>
   <v>       0.62555250       0.87560250       0.74861500 </v>
   <v>       0.49996250       0.87589750       0.62593500 </v>
   <v>       0.62545500       0.75032500       0.62460000 </v>
   <v>       0.74970750       0.99909250       0.74996500 </v>
   <v>       0.62461750       0.62555250       0.24886500 </v>
   <v>       0.62463250       0.99969250       0.62599500 </v>
   <v>       0.75001500       0.87515000       0.62596000 </v>
   <v>       0.74971750       0.75013750       0.50129500 </v>
   <v>       0.49985750       0.87477250       0.37470500 </v>
   <v>       0.75026250       0.74934750       0.24886500 </v>
   <v>       0.87540000       0.49901500       0.62581000 </v>
   <v>       0.75026250       0.74988250       0.99990500 </v>
   <v>       0.87536500       0.87434000       0.25012000 </v>
   <v>       0.62452500       0.50102500       0.12470000 </v>
   <v>       0.12450750       0.62506750       0.49982500 </v>
   <v>       0.00015250       0.62515750       0.37466500 </v>
   <v>       0.87555250       0.62560250       0.24861500 </v>
   <v>       0.74996250       0.62589750       0.12593500 </v>
   <v>       0.87545500       0.50032500       0.12460000 </v>
   <v>       0.99970750       0.74909250       0.24996500 </v>
   <v>       0.87461750       0.37555250       0.74886500 </v>
   <v>       0.87463250       0.74969250       0.12599500 </v>
   <v>       0.00001500       0.62515000       0.12596000 </v>
   <v>       0.99971750       0.50013750       0.00129500 </v>
   <v>       0.74985750       0.62477250       0.87470500 </v>
   <v>       0.00026250       0.99934750       0.74886500 </v>
   <v>       0.12540000       0.74901500       0.12581000 </v>
   <v>       0.00026250       0.99988250       0.49990500 </v>
   <v>       0.12536500       0.12434000       0.75012000 </v>
   <v>       0.87452500       0.75102500       0.62470000 </v>
   <v>       0.37450750       0.87506750       0.99982500 </v>
   <v>       0.25015250       0.87515750       0.87466500 </v>
   <v>       0.12555250       0.87560250       0.74861500 </v>
   <v>       0.99996250       0.87589750       0.62593500 </v>
   <v>       0.12545500       0.75032500       0.62460000 </v>
   <v>       0.24970750       0.99909250       0.74996500 </v>
   <v>       0.12461750       0.62555250       0.24886500 </v>
   <v>       0.12463500       0.99969000       0.62600000 </v>
   <v>       0.25001250       0.87514750       0.62596500 </v>
   <v>       0.24971750       0.75013750       0.50129500 </v>
   <v>       0.99985750       0.87477250       0.37470500 </v>
  </varray>
 </structure>
 <calculation>
  <scstep>
   <time name="dav"> 1462.07 1462.61</time>
   <time name="total"> 1462.32 1462.88</time>
   <energy>
    <i name="alphaZ">  17816.49363791 </i>
    <i name="ewald">-159090.67712061 </i>
    <i name="hartreedc"> -10357.88018809 </i>
    <i name="XCdc">  -6288.28782320 </i>
    <i name="pawpsdc"> 107387.23103886 </i>
    <i name="pawaedc"> -95870.62587529 </i>
    <i name="eentropy">      0.00156126 </i>
    <i name="bandstr">  27752.62397247 </i>
    <i name="atom"> 129934.13886476 </i>
    <i name="e_fr_energy">  11283.01806808 </i>
    <i name="e_wo_entrp">  11283.01650682 </i>
    <i name="e_0_energy">  11283.01754766 </i>
   </energy>
  </scstep>
  <scstep>
   <time name="dav"> 1467.25 1467.52</time>
   <time name="total"> 1467.27 1467.54</time>
   <energy>
    <i name="e_fr_energy">  -1438.39605367 </i>
    <i name="e_wo_entrp">  -1438.39594184 </i>
    <i name="e_0_energy">  -1438.39601639 </i>
   </energy>
  </scstep>
  <scstep>
   <time name="dav"> 1937.59 1937.41</time>
   <time name="total"> 1937.61 1937.43</time>
   <energy>
    <i name="e_fr_energy">  -2410.78686353 </i>
    <i name="e_wo_entrp">  -2410.77496867 </i>
    <i name="e_0_energy">  -2410.78289857 </i>
   </energy>
  </scstep>
  <scstep>
   <time name="dav"> 1898.15 1898.00</time>
   <time name="total"> 1898.17 1898.02</time>
   <energy>
    <i name="e_fr_energy">  -2482.25534995 </i>
    <i name="e_wo_entrp">  -2482.25479451 </i>
    <i name="e_0_energy">  -2482.25516481 </i>
   </energy>
  </scstep>
  <scstep>
   <time name="dav"> 1991.19 1990.98</time>
   <time name="total"> 2032.12 2031.91</time>
   <energy>
    <i name="e_fr_energy">  -2485.11441042 </i>
    <i name="e_wo_entrp">  -2485.11471807 </i>
    <i name="e_0_energy">  -2485.11451297 </i>
   </energy>
  </scstep>
  <scstep>
   <time name="diag">  170.95  170.92</time>
   <time name="diis">  674.67  674.60</time>
   <time name="orth">   64.70   64.68</time>
   <time name="total">  951.47  951.34</time>
   <energy>
    <i name="e_fr_energy">  -2416.39959871 </i>
    <i name="e_wo_entrp">  -2416.39825324 </i>
    <i name="e_0_energy">  -2416.39915022 </i>
   </energy>
  </scstep>
  <scstep>
   <time name="diag">  171.10  171.06</time>
   <time name="diis">  621.17  621.08</time>
   <time name="orth">   64.70   64.67</time>
   <time name="total">  898.28  898.13</time>
   <energy>
    <i name="e_fr_energy">  -2370.00791394 </i>
    <i name="e_wo_entrp">  -2369.98773932 </i>
    <i name="e_0_energy">  -2370.00118907 </i>
   </energy>
  </scstep>
  <scstep>
   <time name="diag">  170.98  170.96</time>
   <time name="diis">  623.14  623.02</time>
   <time name="orth">   64.76   64.74</time>
   <time name="total">  900.08  899.92</time>
   <energy>
    <i name="e_fr_energy">  -2339.85648334 </i>
    <i name="e_wo_entrp">  -2339.85248560 </i>
    <i name="e_0_energy">  -2339.85515076 </i>
   </energy>
  </scstep>
  <scstep>
   <time name="diag">  171.02  170.99</time>
   <time name="diis">  631.93  631.84</time>
   <time name="orth">   64.62   64.60</time>
   <time name="total">  908.79  908.65</time>
   <energy>
    <i name="e_fr_energy">  -2315.65951194 </i>
    <i name="e_wo_entrp">  -2315.69365084 </i>
    <i name="e_0_energy">  -2315.67089157 </i>
   </energy>
  </scstep>
  <scstep>
   <time name="diag">  171.30  171.27</time>
   <time name="diis">  866.38  866.28</time>
   <time name="orth">   64.62   64.60</time>
   <time name="total"> 1143.48 1143.31</time>
   <energy>
    <i name="e_fr_energy">  -2315.49795794 </i>
    <i name="e_wo_entrp">  -2315.52071508 </i>
    <i name="e_0_energy">  -2315.50554366 </i>
   </energy>
  </scstep>
  <scstep>
   <time name="diag">  170.95  170.92</time>
   <time name="diis">  786.91  786.82</time>
   <time name="orth">   64.62   64.60</time>
   <time name="total"> 1063.21 1063.06</time>
   <energy>
    <i name="e_fr_energy">  -2315.36662956 </i>
    <i name="e_wo_entrp">  -2315.38632307 </i>
    <i name="e_0_energy">  -2315.37319406 </i>
   </energy>
  </scstep>
  <scstep>
   <time name="diag">  170.85  170.82</time>
   <time name="diis">  713.81  713.73</time>
   <time name="orth">   64.84   64.81</time>
   <time name="total">  990.40  990.26</time>
   <energy>
    <i name="e_fr_energy">  -2314.89081880 </i>
    <i name="e_wo_entrp">  -2314.91070096 </i>
    <i name="e_0_energy">  -2314.89744619 </i>
   </energy>
  </scstep>
  <scstep>
   <time name="diag">  170.80  170.76</time>
   <time name="diis">  719.37  719.30</time>
   <time name="orth">   64.95   64.93</time>
   <time name="total">  995.82  995.69</time>
   <energy>
    <i name="e_fr_energy">  -2314.77748142 </i>
    <i name="e_wo_entrp">  -2314.79902403 </i>
    <i name="e_0_energy">  -2314.78466229 </i>
   </energy>
  </scstep>
  <scstep>
   <time name="diag">  171.08  171.05</time>
   <time name="diis">  714.74  714.66</time>
   <time name="orth">   64.91   64.89</time>
   <time name="total">  991.61  991.47</time>
   <energy>
    <i name="e_fr_energy">  -2314.74317124 </i>
    <i name="e_wo_entrp">  -2314.76840562 </i>
    <i name="e_0_energy">  -2314.75158270 </i>
   </energy>
  </scstep>
  <scstep>
   <time name="diag">  170.87  170.83</time>
   <time name="diis">  755.57  755.46</time>
   <time name="orth">   65.10   65.07</time>
   <time name="total"> 1032.32 1032.14</time>
   <energy>
    <i name="e_fr_energy">  -2314.72665869 </i>
    <i name="e_wo_entrp">  -2314.75139179 </i>
    <i name="e_0_energy">  -2314.73490305 </i>
   </energy>
  </scstep>
  <scstep>
   <time name="diag">  170.99  170.94</time>
   <time name="diis">  774.30  774.14</time>
   <time name="orth">   65.02   65.01</time>
   <time name="total"> 1051.45 1051.22</time>
   <energy>
    <i name="e_fr_energy">  -2314.71675889 </i>
    <i name="e_wo_entrp">  -2314.74104369 </i>
    <i name="e_0_energy">  -2314.72485382 </i>
   </energy>
  </scstep>
  <scstep>
   <time name="diag">  171.05  171.00</time>
   <time name="diis">  751.78  751.62</time>
   <time name="orth">   64.86   64.84</time>
   <time name="total"> 1028.98 1028.76</time>
   <energy>
    <i name="e_fr_energy">  -2314.71395149 </i>
    <i name="e_wo_entrp">  -2314.73720012 </i>
    <i name="e_0_energy">  -2314.72170103 </i>
   </energy>
  </scstep>
  <scstep>
   <time name="diag">  171.14  171.10</time>
   <time name="diis">  839.21  839.02</time>
   <time name="orth">   64.84   64.81</time>
   <time name="total"> 1116.60 1116.36</time>
   <energy>
    <i name="e_fr_energy">  -2314.71468073 </i>
    <i name="e_wo_entrp">  -2314.73724368 </i>
    <i name="e_0_energy">  -2314.72220171 </i>
   </energy>
  </scstep>
  <scstep>
   <time name="diag">  170.93  170.89</time>
   <time name="diis">  853.01  852.81</time>
   <time name="orth">   64.88   64.85</time>
   <time name="total"> 1130.20 1129.93</time>
   <energy>
    <i name="e_fr_energy">  -2314.71454369 </i>
    <i name="e_wo_entrp">  -2314.73691760 </i>
    <i name="e_0_energy">  -2314.72200166 </i>
   </energy>
  </scstep>
  <scstep>
   <time name="diag">  170.91  170.86</time>
   <time name="diis">  716.90  716.71</time>
   <time name="orth">   64.85   64.83</time>
   <time name="total">  993.84  993.58</time>
   <energy>
    <i name="e_fr_energy">  -2314.71390334 </i>
    <i name="e_wo_entrp">  -2314.73647493 </i>
    <i name="e_0_energy">  -2314.72142720 </i>
   </energy>
  </scstep>
  <scstep>
   <time name="diag">  170.93  170.89</time>
   <time name="diis">  768.99  768.82</time>
   <time name="orth">   65.16   65.13</time>
   <time name="total"> 1045.78 1045.54</time>
   <energy>
    <i name="e_fr_energy">  -2314.71354329 </i>
    <i name="e_wo_entrp">  -2314.73653164 </i>
    <i name="e_0_energy">  -2314.72120607 </i>
   </energy>
  </scstep>
  <scstep>
   <time name="diag">  170.81  170.77</time>
   <time name="diis">  869.23  869.06</time>
   <time name="orth">   64.99   64.97</time>
   <time name="total"> 1105.27 1105.03</time>
   <energy>
    <i name="alphaZ">  17816.49363791 </i>
    <i name="ewald">-159090.67712061 </i>
    <i name="hartreedc">  -7947.32998347 </i>
    <i name="XCdc">  -6308.14111735 </i>
    <i name="pawpsdc"> 121857.50001917 </i>
    <i name="pawaedc">-111029.78182416 </i>
    <i name="eentropy">      0.02307692 </i>
    <i name="bandstr">  12453.06093488 </i>
    <i name="atom"> 129934.13886476 </i>
    <i name="e_fr_energy">  -2314.71351195 </i>
    <i name="e_wo_entrp">  -2314.73658887 </i>
    <i name="e_0_energy">  -2314.72120425 </i>
   </energy>
  </scstep>
  <structure>
   <crystal>
    <varray name="basis" >
     <v>       0.00188000      15.37080000       0.00140000 </v>
     <v>       0.00152000      -0.00140000     -15.37218000 </v>
     <v>     -15.37636000      -0.00188000       0.00151000 </v>
    </varray>
    <i name="volume">   3633.16780401 </i>
    <varray name="rec_basis" >
     <v>      -0.00000795       0.06505842      -0.00000593 </v>
     <v>      -0.00000639       0.00000593      -0.06505258 </v>
     <v>      -0.06503490       0.00000795      -0.00000643 </v>
    </varray>
   </crystal>
   <varray name="positions" >
    <v>       0.12544250       0.12495750       0.00137500 </v>
    <v>       0.25023500       0.87425500       0.37476000 </v>
    <v>       0.50095250       0.12407750       0.62474500 </v>
    <v>       0.37553250       0.12507750       0.50016500 </v>
    <v>       0.24973750       0.12571750       0.37459500 </v>
    <v>       0.37600500       0.00007500       0.37466000 </v>
    <v>       0.25039000       0.00088000       0.24854000 </v>
    <v>       0.37534750       0.24987750       0.37305500 </v>
    <v>       0.49970000       0.00076500       0.24985000 </v>
    <v>       0.25027250       0.00022250       0.00012500 </v>
    <v>       0.62466750       0.24912250       0.37463500 </v>
    <v>       0.37446000       0.12498500       0.00162000 </v>
    <v>       0.49907250       0.37499750       0.12491500 </v>
    <v>       0.49965250       0.24988250       0.00137500 </v>
    <v>       0.37398000       0.25085000       0.87599000 </v>
    <v>       0.62457250       0.37420750       0.24977500 </v>
    <v>       0.37544250       0.37495750       0.50137500 </v>
    <v>       0.50023500       0.12425500       0.87476000 </v>
    <v>       0.75095250       0.37407750       0.12474500 </v>
    <v>       0.62553250       0.37507750       0.00016500 </v>
    <v>       0.49973750       0.37571750       0.87459500 </v>
    <v>       0.62600500       0.25007500       0.87466000 </v>
    <v>       0.50039000       0.25088000       0.74854000 </v>
    <v>       0.62534750       0.49987750       0.87305500 </v>
    <v>       0.74970000       0.25076500       0.74985000 </v>
    <v>       0.50027250       0.25022250       0.50012500 </v>
    <v>       0.87466750       0.49912250       0.87463500 </v>
    <v>       0.62446000       0.37498500       0.50162000 </v>
    <v>       0.74907250       0.62499750       0.62491500 </v>
    <v>       0.74965250       0.49988250       0.50137500 </v>
    <v>       0.62398000       0.50085000       0.37599000 </v>
    <v>       0.87457250       0.62420750       0.74977500 </v>
    <v>       0.62544250       0.12495750       0.00137500 </v>
    <v>       0.75023500       0.87425500       0.37476000 </v>
    <v>       0.00095250       0.12407750       0.62474500 </v>
    <v>       0.87553250       0.12507750       0.50016500 </v>
    <v>       0.74973750       0.12571750       0.37459500 </v>
    <v>       0.87600500       0.00007500       0.37466000 </v>
    <v>       0.75039000       0.00088000       0.24854000 </v>
    <v>       0.87534750       0.24987750       0.37305500 </v>
    <v>       0.99970000       0.00076500       0.24985000 </v>
    <v>       0.75027250       0.00022250       0.00012500 </v>
    <v>       0.12466750       0.24912250       0.37463500 </v>
    <v>       0.87445750       0.12498750       0.00161500 </v>
    <v>       0.99907250       0.37499750       0.12491500 </v>
    <v>       0.99965250       0.24988250       0.00137500 </v>
    <v>       0.87398000       0.25085000       0.87599000 </v>
    <v>       0.12457250       0.37420750       0.24977500 </v>
    <v>       0.12544250       0.62495750       0.00137500 </v>
    <v>       0.25023500       0.37425500       0.37476000 </v>
    <v>       0.50095250       0.62407750       0.62474500 </v>
    <v>       0.37553250       0.62507750       0.50016500 </v>
    <v>       0.24973750       0.62571750       0.37459500 </v>
    <v>       0.37600500       0.50007500       0.37466000 </v>
    <v>       0.25039000       0.50088000       0.24854000 </v>
    <v>       0.37534750       0.74987750       0.37305500 </v>
    <v>       0.49970000       0.50076500       0.24985000 </v>
    <v>       0.25027250       0.50022250       0.00012500 </v>
    <v>       0.62466750       0.74912250       0.37463500 </v>
    <v>       0.37446000       0.62498500       0.00162000 </v>
    <v>       0.49907250       0.87499750       0.12491500 </v>
    <v>       0.49965250       0.74988250       0.00137500 </v>
    <v>       0.37397750       0.75084750       0.87598500 </v>
    <v>       0.62457250       0.87420750       0.24977500 </v>
    <v>       0.87544250       0.37495750       0.50137500 </v>
    <v>       0.00023500       0.12425500       0.87476000 </v>
    <v>       0.25095250       0.37407750       0.12474500 </v>
    <v>       0.12553250       0.37507750       0.00016500 </v>
    <v>       0.99973750       0.37571750       0.87459500 </v>
    <v>       0.12600500       0.25007500       0.87466000 </v>
    <v>       0.00039000       0.25088000       0.74854000 </v>
    <v>       0.12534750       0.49987750       0.87305500 </v>
    <v>       0.24970000       0.25076500       0.74985000 </v>
    <v>       0.00027250       0.25022250       0.50012500 </v>
    <v>       0.37466750       0.49912250       0.87463500 </v>
    <v>       0.12446000       0.37498500       0.50162000 </v>
    <v>       0.24907250       0.62499750       0.62491500 </v>
    <v>       0.24965250       0.49988250       0.50137500 </v>
    <v>       0.12397750       0.50084750       0.37598500 </v>
    <v>       0.37457250       0.62420750       0.74977500 </v>
    <v>       0.37544250       0.87495750       0.50137500 </v>
    <v>       0.50023500       0.62425500       0.87476000 </v>
    <v>       0.75095250       0.87407750       0.12474500 </v>
    <v>       0.62553250       0.87507750       0.00016500 </v>
    <v>       0.49973750       0.87571750       0.87459500 </v>
    <v>       0.62600250       0.75007250       0.87465500 </v>
    <v>       0.50039000       0.75088000       0.74854000 </v>
    <v>       0.62534750       0.99987750       0.87305500 </v>
    <v>       0.74970000       0.75076500       0.74985000 </v>
    <v>       0.50027250       0.75022250       0.50012500 </v>
    <v>       0.87466750       0.99912250       0.87463500 </v>
    <v>       0.62446000       0.87498500       0.50162000 </v>
    <v>       0.74907250       0.12499750       0.62491500 </v>
    <v>       0.74965250       0.99988250       0.50137500 </v>
    <v>       0.62397750       0.00084750       0.37598500 </v>
    <v>       0.87457250       0.12420750       0.74977500 </v>
    <v>       0.62544250       0.62495750       0.00137500 </v>
    <v>       0.75023500       0.37425500       0.37476000 </v>
    <v>       0.00095250       0.62407750       0.62474500 </v>
    <v>       0.87553250       0.62507750       0.50016500 </v>
    <v>       0.74973750       0.62571750       0.37459500 </v>
    <v>       0.87600500       0.50007500       0.37466000 </v>
    <v>       0.75039000       0.50088000       0.24854000 </v>
    <v>       0.87534750       0.74987750       0.37305500 </v>
    <v>       0.99970000       0.50076500       0.24985000 </v>
    <v>       0.75027250       0.50022250       0.00012500 </v>
    <v>       0.12466750       0.74912250       0.37463500 </v>
    <v>       0.87445750       0.62498750       0.00161500 </v>
    <v>       0.99907250       0.87499750       0.12491500 </v>
    <v>       0.99965250       0.74988250       0.00137500 </v>
    <v>       0.87398000       0.75085000       0.87599000 </v>
    <v>       0.12457250       0.87420750       0.24977500 </v>
    <v>       0.87544250       0.87495750       0.50137500 </v>
    <v>       0.00023500       0.62425500       0.87476000 </v>
    <v>       0.25095000       0.87407500       0.12474000 </v>
    <v>       0.12553250       0.87507750       0.00016500 </v>
    <v>       0.99973750       0.87571750       0.87459500 </v>
    <v>       0.12600250       0.75007250       0.87465500 </v>
    <v>       0.00039000       0.75088000       0.74854000 </v>
    <v>       0.12534750       0.99987750       0.87305500 </v>
    <v>       0.24970000       0.75076500       0.74985000 </v>
    <v>       0.00027250       0.75022250       0.50012500 </v>
    <v>       0.37466750       0.99912250       0.87463500 </v>
    <v>       0.12446000       0.87498500       0.50162000 </v>
    <v>       0.24907250       0.12499750       0.62491500 </v>
    <v>       0.24965250       0.99988250       0.50137500 </v>
    <v>       0.12397750       0.00084750       0.37598500 </v>
    <v>       0.37457250       0.12420750       0.74977500 </v>
    <v>       0.25026250       0.24934750       0.24886500 </v>
    <v>       0.37540000       0.99901500       0.62581000 </v>
    <v>       0.25026250       0.24988250       0.99990500 </v>
    <v>       0.37536500       0.37434000       0.25012000 </v>
    <v>       0.12452500       0.00102500       0.12470000 </v>
    <v>       0.62450750       0.12506750       0.49982500 </v>
    <v>       0.50015250       0.12515750       0.37466500 </v>
    <v>       0.37555250       0.12560250       0.24861500 </v>
    <v>       0.24996250       0.12589750       0.12593500 </v>
    <v>       0.37545500       0.00032500       0.12460000 </v>
    <v>       0.49970750       0.24909250       0.24996500 </v>
    <v>       0.37461750       0.87555250       0.74886500 </v>
    <v>       0.37463500       0.24969000       0.12600000 </v>
    <v>       0.50001500       0.12515000       0.12596000 </v>
    <v>       0.49971750       0.00013750       0.00129500 </v>
    <v>       0.24985750       0.12477250       0.87470500 </v>
    <v>       0.50026250       0.49934750       0.74886500 </v>
    <v>       0.62540000       0.24901500       0.12581000 </v>
    <v>       0.50026250       0.49988250       0.49990500 </v>
    <v>       0.62536500       0.62434000       0.75012000 </v>
    <v>       0.37452500       0.25102500       0.62470000 </v>
    <v>       0.87450750       0.37506750       0.99982500 </v>
    <v>       0.75015250       0.37515750       0.87466500 </v>
    <v>       0.62555250       0.37560250       0.74861500 </v>
    <v>       0.49996250       0.37589750       0.62593500 </v>
    <v>       0.62545500       0.25032500       0.62460000 </v>
    <v>       0.74970750       0.49909250       0.74996500 </v>
    <v>       0.62461750       0.12555250       0.24886500 </v>
    <v>       0.62463250       0.49969250       0.62599500 </v>
    <v>       0.75001500       0.37515000       0.62596000 </v>
    <v>       0.74971750       0.25013750       0.50129500 </v>
    <v>       0.49985750       0.37477250       0.37470500 </v>
    <v>       0.74765750       0.24934750       0.24886500 </v>
    <v>       0.87540000       0.99901500       0.62581000 </v>
    <v>       0.75026250       0.24988250       0.99990500 </v>
    <v>       0.87536500       0.37434000       0.25012000 </v>
    <v>       0.62452500       0.00102500       0.12470000 </v>
    <v>       0.12450750       0.12506750       0.49982500 </v>
    <v>       0.00015250       0.12515750       0.37466500 </v>
    <v>       0.87555250       0.12560250       0.24861500 </v>
    <v>       0.74996250       0.12589750       0.12593500 </v>
    <v>       0.87545500       0.00032500       0.12460000 </v>
    <v>       0.99970750       0.24909250       0.24996500 </v>
    <v>       0.87461750       0.87555250       0.74886500 </v>
    <v>       0.87463250       0.24969250       0.12599500 </v>
    <v>       0.00001500       0.12515000       0.12596000 </v>
    <v>       0.99971750       0.00013750       0.00129500 </v>
    <v>       0.74985750       0.12477250       0.87470500 </v>
    <v>       0.25026250       0.74934750       0.24886500 </v>
    <v>       0.37540000       0.49901500       0.62581000 </v>
    <v>       0.25026250       0.74988250       0.99990500 </v>
    <v>       0.37536500       0.87434000       0.25012000 </v>
    <v>       0.12452500       0.50102500       0.12470000 </v>
    <v>       0.62450750       0.62506750       0.49982500 </v>
    <v>       0.50015250       0.62515750       0.37466500 </v>
    <v>       0.37555250       0.62560250       0.24861500 </v>
    <v>       0.24996250       0.62589750       0.12593500 </v>
    <v>       0.37545500       0.50032500       0.12460000 </v>
    <v>       0.49970750       0.74909250       0.24996500 </v>
    <v>       0.37461750       0.37555250       0.74886500 </v>
    <v>       0.37463500       0.74969000       0.12600000 </v>
    <v>       0.50001500       0.62515000       0.12596000 </v>
    <v>       0.49971750       0.50013750       0.00129500 </v>
    <v>       0.24985750       0.62477250       0.87470500 </v>
    <v>       0.00026250       0.49934750       0.74886500 </v>
    <v>       0.12540000       0.24901500       0.12581000 </v>
    <v>       0.00026250       0.49988250       0.49990500 </v>
    <v>       0.12536500       0.62434000       0.75012000 </v>
    <v>       0.87452500       0.25102500       0.62470000 </v>
    <v>       0.37450750       0.37506750       0.99982500 </v>
    <v>       0.25015250       0.37515750       0.87466500 </v>
    <v>       0.12555250       0.37560250       0.74861500 </v>
    <v>       0.99996250       0.37589750       0.62593500 </v>
    <v>       0.12545500       0.25032500       0.62460000 </v>
    <v>       0.24970750       0.49909250       0.74996500 </v>
    <v>       0.12461750       0.12555250       0.24886500 </v>
    <v>       0.12463250       0.49969250       0.62599500 </v>
    <v>       0.25001500       0.37515000       0.62596000 </v>
    <v>       0.24971750       0.25013750       0.50129500 </v>
    <v>       0.99985750       0.37477250       0.37470500 </v>
    <v>       0.50026250       0.99934750       0.74886500 </v>
    <v>       0.62540000       0.74901500       0.12581000 </v>
    <v>       0.50026250       0.99988250       0.49990500 </v>
    <v>       0.62536500       0.12434000       0.75012000 </v>
    <v>       0.37452500       0.75102500       0.62470000 </v>
    <v>       0.87450750       0.87506750       0.99982500 </v>
    <v>       0.75015250       0.87515750       0.87466500 </v>
    <v>       0.62555250       0.87560250       0.74861500 </v>
    <v>       0.49996250       0.87589750       0.62593500 </v>
    <v>       0.62545500       0.75032500       0.62460000 </v>
    <v>       0.74970750       0.99909250       0.74996500 </v>
    <v>       0.62461750       0.62555250       0.24886500 </v>
    <v>       0.62463250       0.99969250       0.62599500 </v>
    <v>       0.75001500       0.87515000       0.62596000 </v>
    <v>       0.74971750       0.75013750       0.50129500 </v>
    <v>       0.49985750       0.87477250       0.37470500 </v>
    <v>       0.75026250       0.74934750       0.24886500 </v>
    <v>       0.87540000       0.49901500       0.62581000 </v>
    <v>       0.75026250       0.74988250       0.99990500 </v>
    <v>       0.87536500       0.87434000       0.25012000 </v>
    <v>       0.62452500       0.50102500       0.12470000 </v>
    <v>       0.12450750       0.62506750       0.49982500 </v>
    <v>       0.00015250       0.62515750       0.37466500 </v>
    <v>       0.87555250       0.62560250       0.24861500 </v>
    <v>       0.74996250       0.62589750       0.12593500 </v>
    <v>       0.87545500       0.50032500       0.12460000 </v>
    <v>       0.99970750       0.74909250       0.24996500 </v>
    <v>       0.87461750       0.37555250       0.74886500 </v>
    <v>       0.87463250       0.74969250       0.12599500 </v>
    <v>       0.00001500       0.62515000       0.12596000 </v>
    <v>       0.99971750       0.50013750       0.00129500 </v>
    <v>       0.74985750       0.62477250       0.87470500 </v>
    <v>       0.00026250       0.99934750       0.74886500 </v>
    <v>       0.12540000       0.74901500       0.12581000 </v>
    <v>       0.00026250       0.99988250       0.49990500 </v>
    <v>       0.12536500       0.12434000       0.75012000 </v>
    <v>       0.87452500       0.75102500       0.62470000 </v>
    <v>       0.37450750       0.87506750       0.99982500 </v>
    <v>       0.25015250       0.87515750       0.87466500 </v>
    <v>       0.12555250       0.87560250       0.74861500 </v>
    <v>       0.99996250       0.87589750       0.62593500 </v>
    <v>       0.12545500       0.75032500       0.62460000 </v>
    <v>       0.24970750       0.99909250       0.74996500 </v>
    <v>       0.12461750       0.62555250       0.24886500 </v>
    <v>       0.12463500       0.99969000       0.62600000 </v>
    <v>       0.25001250       0.87514750       0.62596500 </v>
    <v>       0.24971750       0.75013750       0.50129500 </v>
    <v>       0.99985750       0.87477250       0.37470500 </v>
   </varray>
  </structure>
  <varray name="forces" >
   <v>       0.01181441       0.00393767       0.00167094 </v>
   <v>      -0.00549340      -0.00250306       0.00116907 </v>
   <v>       0.01214224       0.00456105      -0.00020960 </v>
   <v>       0.00381348       0.00240952      -0.00434475 </v>
   <v>       0.00860697       0.00221451      -0.00259465 </v>
   <v>       0.00001550      -0.00145731      -0.00161153 </v>
   <v>      -0.00443092      -0.00140149      -0.00505748 </v>
   <v>      -0.00383618       0.00879565       0.00000978 </v>
   <v>      -0.00865758      -0.02060373       0.01249140 </v>
   <v>       0.00534537      -0.00155009      -0.00231001 </v>
   <v>      -0.03284474      -0.02485150       0.00540415 </v>
   <v>      -0.00700906      -0.00095980       0.00184655 </v>
   <v>       0.00252789      -0.01580423       0.00390749 </v>
   <v>       0.01446120      -0.02099567      -0.00010493 </v>
   <v>       0.00847321      -0.00307559      -0.00519915 </v>
   <v>       0.00199895      -0.03398637      -0.03628824 </v>
   <v>       0.01212696       0.00468115       0.00280393 </v>
   <v>      -0.00683173      -0.00119499       0.00090876 </v>
   <v>       0.01033274       0.00079981       0.00169687 </v>
   <v>       0.00763345      -0.00640341       0.00098871 </v>
   <v>       0.00718450       0.00276073      -0.00217551 </v>
   <v>      -0.00116784      -0.00392899      -0.00048029 </v>
   <v>      -0.00457523      -0.00300582      -0.00441479 </v>
   <v>      -0.00616177       0.00697607       0.00047260 </v>
   <v>      -0.00887542      -0.00077762      -0.00766881 </v>
   <v>      -0.01023954      -0.01664374      -0.00208752 </v>
   <v>      -0.00266637      -0.00146986       0.00475811 </v>
   <v>      -0.00999758      -0.00738759       0.00475531 </v>
   <v>      -0.00202533      -0.00550868       0.00897821 </v>
   <v>      -0.00534493       0.00003414      -0.00064465 </v>
   <v>       0.00825283      -0.00399301      -0.00847289 </v>
   <v>       0.00254146      -0.00121938       0.00136684 </v>
   <v>       0.01646470      -0.00337744      -0.00238973 </v>
   <v>      -0.00550611      -0.00032298       0.00155072 </v>
   <v>       0.00922271       0.00478115       0.00075446 </v>
   <v>       0.00610971      -0.00477122      -0.00095113 </v>
   <v>       0.01080649       0.00072663      -0.00417283 </v>
   <v>      -0.00353745      -0.00868184      -0.00601694 </v>
   <v>      -0.00452345       0.00189734      -0.00422521 </v>
   <v>       0.02031812      -0.01781843       0.00077555 </v>
   <v>      -0.00817785      -0.02096123      -0.02906891 </v>
   <v>       0.00534850      -0.00249899      -0.00239119 </v>
   <v>      -0.00457709       0.00026312       0.00441915 </v>
   <v>      -0.01302885      -0.00770061       0.00606552 </v>
   <v>      -0.00576393      -0.01487076       0.01430706 </v>
   <v>      -0.02498237      -0.01942696      -0.00086446 </v>
   <v>       0.00643069       0.00022787      -0.00487019 </v>
   <v>       0.00250826       0.00146857       0.00040514 </v>
   <v>       0.01052692       0.00239761       0.00125262 </v>
   <v>      -0.00559257      -0.00110941       0.00116396 </v>
   <v>       0.01028428       0.00340522      -0.00011161 </v>
   <v>       0.00200130       0.00069623      -0.00349156 </v>
   <v>       0.00855763       0.00139729      -0.00287772 </v>
   <v>       0.00067146      -0.00129732       0.00073275 </v>
   <v>      -0.00455623       0.00025823      -0.00558282 </v>
   <v>      -0.00593242       0.00495788       0.00010052 </v>
   <v>      -0.00952582      -0.01430462      -0.02280396 </v>
   <v>       0.00511083      -0.00213644      -0.00233094 </v>
   <v>      -0.00229174      -0.00214276       0.00443688 </v>
   <v>      -0.00582981      -0.00258615       0.00210022 </v>
   <v>      -0.00181146      -0.00507586       0.00773488 </v>
   <v>      -0.00541379      -0.00101202      -0.00068411 </v>
   <v>       0.00295778       0.00251890      -0.00525444 </v>
   <v>       0.00260644      -0.00208120      -0.00077276 </v>
   <v>       0.01460350      -0.00244742      -0.00137643 </v>
   <v>      -0.00433367      -0.00074352       0.00164785 </v>
   <v>       0.01059632       0.00403126      -0.00009885 </v>
   <v>       0.00358167       0.00247741      -0.00428872 </v>
   <v>       0.00951970       0.00289532      -0.00307432 </v>
   <v>      -0.00377238      -0.00708052      -0.00020503 </v>
   <v>      -0.00538175      -0.00308583      -0.00506940 </v>
   <v>      -0.00523258       0.00581861       0.00026040 </v>
   <v>      -0.00860921       0.01256300      -0.00752690 </v>
   <v>       0.02078652      -0.01652545      -0.00227791 </v>
   <v>      -0.00316754      -0.00248015       0.00438928 </v>
   <v>      -0.00708317      -0.00087677       0.00062957 </v>
   <v>      -0.00165059      -0.00594300       0.00966097 </v>
   <v>      -0.00544327      -0.00081435      -0.00044087 </v>
   <v>       0.00297821       0.00308132      -0.00648338 </v>
   <v>       0.00276957      -0.00101854       0.00190032 </v>
   <v>       0.01037858       0.00220422       0.00143782 </v>
   <v>      -0.00516089      -0.00224971       0.00120868 </v>
   <v>       0.01061296       0.00483194       0.00012214 </v>
   <v>       0.00225866       0.00152009      -0.00416833 </v>
   <v>       0.00854101       0.00230969      -0.00246991 </v>
   <v>      -0.00084259      -0.00251769      -0.00096896 </v>
   <v>      -0.00452537      -0.00241676      -0.00506817 </v>
   <v>      -0.00605485       0.00676772       0.00031949 </v>
   <v>      -0.00858068       0.00150464      -0.00773985 </v>
   <v>       0.00457119      -0.00222397      -0.00266230 </v>
   <v>      -0.00218646      -0.00153256       0.00460439 </v>
   <v>      -0.00576644      -0.00172797       0.00094495 </v>
   <v>      -0.00198422      -0.00420060       0.00959051 </v>
   <v>      -0.00531404      -0.00034999      -0.00079528 </v>
   <v>       0.00715922      -0.00392320       0.00007577 </v>
   <v>       0.00253097      -0.00156663       0.00140526 </v>
   <v>       0.01062181       0.00337262       0.00190617 </v>
   <v>      -0.00436305      -0.00226861       0.00332276 </v>
   <v>       0.01092671       0.00346865       0.00006426 </v>
   <v>       0.00166794       0.00162083      -0.00439866 </v>
   <v>       0.00836213       0.00386184      -0.00316448 </v>
   <v>      -0.00297071      -0.00785567       0.00371180 </v>
   <v>      -0.00454769       0.00416124      -0.00664325 </v>
   <v>      -0.00551429       0.00611137       0.00000799 </v>
   <v>      -0.00799550      -0.02003606       0.01256328 </v>
   <v>       0.00525995      -0.00190618      -0.00250358 </v>
   <v>      -0.00257924      -0.00319114       0.00439479 </v>
   <v>      -0.00702152      -0.00118049       0.00230396 </v>
   <v>      -0.00129413      -0.00503773       0.01094753 </v>
   <v>      -0.00555612      -0.00048718      -0.00053911 </v>
   <v>       0.00466546       0.00120466      -0.00499296 </v>
   <v>       0.00208815      -0.00515793      -0.00240396 </v>
   <v>       0.01025806       0.00331748       0.00222412 </v>
[...]
       <r>     9.7503   243.4563  2303.7888 </r>
       <r>     9.7969   223.9971  2314.2282 </r>
       <r>     9.8435   219.6409  2324.4647 </r>
       <r>     9.8901   237.0423  2335.5121 </r>
       <r>     9.9367   264.7373  2347.8502 </r>
       <r>     9.9834   295.7948  2361.6359 </r>
       <r>    10.0300   327.9466  2376.9199 </r>
       <r>    10.0766   349.4111  2393.2043 </r>
       <r>    10.1232   346.0771  2409.3334 </r>
       <r>    10.1698   323.4568  2424.4082 </r>
       <r>    10.2164   310.1880  2438.8646 </r>
       <r>    10.2630   329.9446  2454.2417 </r>
       <r>    10.3096   388.7380  2472.3590 </r>
       <r>    10.3562   468.0265  2494.1715 </r>
       <r>    10.4028   519.1085  2518.3647 </r>
       <r>    10.4494   508.2810  2542.0533 </r>
       <r>    10.4960   448.8567  2562.9724 </r>
       <r>    10.5426   372.2073  2580.3193 </r>
       <r>    10.5892   300.6504  2594.3312 </r>
       <r>    10.6358   247.2427  2605.8540 </r>
       <r>    10.6824   211.6914  2615.7199 </r>
       <r>    10.7290   179.8051  2624.0998 </r>
       <r>    10.7756   140.5622  2630.6507 </r>
       <r>    10.8222    96.0092  2635.1253 </r>
       <r>    10.8689    55.6986  2637.7211 </r>
       <r>    10.9155    26.9236  2638.9759 </r>
       <r>    10.9621    10.2838  2639.4552 </r>
       <r>    11.0087     2.9906  2639.5946 </r>
       <r>    11.0553     1.5677  2639.6676 </r>
       <r>    11.1019     2.0957  2639.7653 </r>
       <r>    11.1485     1.8243  2639.8503 </r>
       <r>    11.1951     0.7280  2639.8843 </r>
       <r>    11.2417    -0.0068  2639.8839 </r>
       <r>    11.2883    -0.1262  2639.8781 </r>
       <r>    11.3349    -0.0533  2639.8756 </r>
       <r>    11.3815    -0.0113  2639.8751 </r>
       <r>    11.4281    -0.0036  2639.8749 </r>
       <r>    11.4747    -0.0137  2639.8743 </r>
       <r>    11.5213    -0.0432  2639.8722 </r>
       <r>    11.5679    -0.0332  2639.8707 </r>
       <r>    11.6145     0.2113  2639.8805 </r>
       <r>    11.6611     0.7297  2639.9145 </r>
       <r>    11.7077     1.0251  2639.9623 </r>
       <r>    11.7544     0.7078  2639.9953 </r>
       <r>    11.8010     0.1942  2640.0044 </r>
       <r>    11.8476    -0.0367  2640.0027 </r>
       <r>    11.8942    -0.0418  2640.0007 </r>
       <r>    11.9408    -0.0128  2640.0001 </r>
       <r>    11.9874    -0.0020  2640.0000 </r>
       <r>    12.0340    -0.0002  2640.0000 </r>
       <r>    12.0806    -0.0000  2640.0000 </r>
       <r>    12.1272    -0.0000  2640.0000 </r>
       <r>    12.1738    -0.0000  2640.0000 </r>
       <r>    12.2204    -0.0000  2640.0000 </r>
       <r>    12.2670    -0.0000  2640.0000 </r>
       <r>    12.3136    -0.0000  2640.0000 </r>
       <r>    12.3602     0.0000  2640.0000 </r>
       <r>    12.4068     0.0000  2640.0000 </r>
       <r>    12.4534     0.0000  2640.0000 </r>
       <r>    12.5000     0.0000  2640.0000 </r>
       <r>    12.5466     0.0000  2640.0000 </r>
       <r>    12.5932     0.0000  2640.0000 </r>
       <r>    12.6399     0.0000  2640.0000 </r>
       <r>    12.6865     0.0000  2640.0000 </r>
      </set>
     </set>
    </array>
   </total>
  </dos>
 </calculation>
 <structure name="finalpos" >
  <crystal>
   <varray name="basis" >
    <v>       0.00188000      15.37080000       0.00140000 </v>
    <v>       0.00152000      -0.00140000     -15.37218000 </v>
    <v>     -15.37636000      -0.00188000       0.00151000 </v>
   </varray>
   <i name="volume">   3633.16780401 </i>
   <varray name="rec_basis" >
    <v>      -0.00000795       0.06505842      -0.00000593 </v>
    <v>      -0.00000639       0.00000593      -0.06505258 </v>
    <v>      -0.06503490       0.00000795      -0.00000643 </v>
   </varray>
  </crystal>
  <varray name="positions" >
   <v>       0.12544250       0.12495750       0.00137500 </v>
   <v>       0.25023500       0.87425500       0.37476000 </v>
   <v>       0.50095250       0.12407750       0.62474500 </v>
   <v>       0.37553250       0.12507750       0.50016500 </v>
   <v>       0.24973750       0.12571750       0.37459500 </v>
   <v>       0.37600500       0.00007500       0.37466000 </v>
   <v>       0.25039000       0.00088000       0.24854000 </v>
   <v>       0.37534750       0.24987750       0.37305500 </v>
   <v>       0.49970000       0.00076500       0.24985000 </v>
   <v>       0.25027250       0.00022250       0.00012500 </v>
   <v>       0.62466750       0.24912250       0.37463500 </v>
   <v>       0.37446000       0.12498500       0.00162000 </v>
   <v>       0.49907250       0.37499750       0.12491500 </v>
   <v>       0.49965250       0.24988250       0.00137500 </v>
   <v>       0.37398000       0.25085000       0.87599000 </v>
   <v>       0.62457250       0.37420750       0.24977500 </v>
   <v>       0.37544250       0.37495750       0.50137500 </v>
   <v>       0.50023500       0.12425500       0.87476000 </v>
   <v>       0.75095250       0.37407750       0.12474500 </v>
   <v>       0.62553250       0.37507750       0.00016500 </v>
   <v>       0.49973750       0.37571750       0.87459500 </v>
   <v>       0.62600500       0.25007500       0.87466000 </v>
   <v>       0.50039000       0.25088000       0.74854000 </v>
   <v>       0.62534750       0.49987750       0.87305500 </v>
   <v>       0.74970000       0.25076500       0.74985000 </v>
   <v>       0.50027250       0.25022250       0.50012500 </v>
   <v>       0.87466750       0.49912250       0.87463500 </v>
   <v>       0.62446000       0.37498500       0.50162000 </v>
   <v>       0.74907250       0.62499750       0.62491500 </v>
   <v>       0.74965250       0.49988250       0.50137500 </v>
   <v>       0.62398000       0.50085000       0.37599000 </v>
   <v>       0.87457250       0.62420750       0.74977500 </v>
   <v>       0.62544250       0.12495750       0.00137500 </v>
   <v>       0.75023500       0.87425500       0.37476000 </v>
   <v>       0.00095250       0.12407750       0.62474500 </v>
   <v>       0.87553250       0.12507750       0.50016500 </v>
   <v>       0.74973750       0.12571750       0.37459500 </v>
   <v>       0.87600500       0.00007500       0.37466000 </v>
   <v>       0.75039000       0.00088000       0.24854000 </v>
   <v>       0.87534750       0.24987750       0.37305500 </v>
   <v>       0.99970000       0.00076500       0.24985000 </v>
   <v>       0.75027250       0.00022250       0.00012500 </v>
   <v>       0.12466750       0.24912250       0.37463500 </v>
   <v>       0.87445750       0.12498750       0.00161500 </v>
   <v>       0.99907250       0.37499750       0.12491500 </v>
   <v>       0.99965250       0.24988250       0.00137500 </v>
   <v>       0.87398000       0.25085000       0.87599000 </v>
   <v>       0.12457250       0.37420750       0.24977500 </v>
   <v>       0.12544250       0.62495750       0.00137500 </v>
   <v>       0.25023500       0.37425500       0.37476000 </v>
   <v>       0.50095250       0.62407750       0.62474500 </v>
   <v>       0.37553250       0.62507750       0.50016500 </v>
   <v>       0.24973750       0.62571750       0.37459500 </v>
   <v>       0.37600500       0.50007500       0.37466000 </v>
   <v>       0.25039000       0.50088000       0.24854000 </v>
   <v>       0.37534750       0.74987750       0.37305500 </v>
   <v>       0.49970000       0.50076500       0.24985000 </v>
   <v>       0.25027250       0.50022250       0.00012500 </v>
   <v>       0.62466750       0.74912250       0.37463500 </v>
   <v>       0.37446000       0.62498500       0.00162000 </v>
   <v>       0.49907250       0.87499750       0.12491500 </v>
   <v>       0.49965250       0.74988250       0.00137500 </v>
   <v>       0.37397750       0.75084750       0.87598500 </v>
   <v>       0.62457250       0.87420750       0.24977500 </v>
   <v>       0.87544250       0.37495750       0.50137500 </v>
   <v>       0.00023500       0.12425500       0.87476000 </v>
   <v>       0.25095250       0.37407750       0.12474500 </v>
   <v>       0.12553250       0.37507750       0.00016500 </v>
   <v>       0.99973750       0.37571750       0.87459500 </v>
   <v>       0.12600500       0.25007500       0.87466000 </v>
   <v>       0.00039000       0.25088000       0.74854000 </v>
   <v>       0.12534750       0.49987750       0.87305500 </v>
   <v>       0.24970000       0.25076500       0.74985000 </v>
   <v>       0.00027250       0.25022250       0.50012500 </v>
   <v>       0.37466750       0.49912250       0.87463500 </v>
   <v>       0.12446000       0.37498500       0.50162000 </v>
   <v>       0.24907250       0.62499750       0.62491500 </v>
   <v>       0.24965250       0.49988250       0.50137500 </v>
   <v>       0.12397750       0.50084750       0.37598500 </v>
   <v>       0.37457250       0.62420750       0.74977500 </v>
   <v>       0.37544250       0.87495750       0.50137500 </v>
   <v>       0.50023500       0.62425500       0.87476000 </v>
   <v>       0.75095250       0.87407750       0.12474500 </v>
   <v>       0.62553250       0.87507750       0.00016500 </v>
   <v>       0.49973750       0.87571750       0.87459500 </v>
   <v>       0.62600250       0.75007250       0.87465500 </v>
   <v>       0.50039000       0.75088000       0.74854000 </v>
   <v>       0.62534750       0.99987750       0.87305500 </v>
   <v>       0.74970000       0.75076500       0.74985000 </v>
   <v>       0.50027250       0.75022250       0.50012500 </v>
   <v>       0.87466750       0.99912250       0.87463500 </v>
   <v>       0.62446000       0.87498500       0.50162000 </v>
   <v>       0.74907250       0.12499750       0.62491500 </v>
   <v>       0.74965250       0.99988250       0.50137500 </v>
   <v>       0.62397750       0.00084750       0.37598500 </v>
   <v>       0.87457250       0.12420750       0.74977500 </v>
   <v>       0.62544250       0.62495750       0.00137500 </v>
   <v>       0.75023500       0.37425500       0.37476000 </v>
   <v>       0.00095250       0.62407750       0.62474500 </v>
   <v>       0.87553250       0.62507750       0.50016500 </v>
   <v>       0.74973750       0.62571750       0.37459500 </v>
   <v>       0.87600500       0.50007500       0.37466000 </v>
   <v>       0.75039000       0.50088000       0.24854000 </v>
   <v>       0.87534750       0.74987750       0.37305500 </v>
   <v>       0.99970000       0.50076500       0.24985000 </v>
   <v>       0.75027250       0.50022250       0.00012500 </v>
   <v>       0.12466750       0.74912250       0.37463500 </v>
   <v>       0.87445750       0.62498750       0.00161500 </v>
   <v>       0.99907250       0.87499750       0.12491500 </v>
   <v>       0.99965250       0.74988250       0.00137500 </v>
   <v>       0.87398000       0.75085000       0.87599000 </v>
   <v>       0.12457250       0.87420750       0.24977500 </v>
   <v>       0.87544250       0.87495750       0.50137500 </v>
   <v>       0.00023500       0.62425500       0.87476000 </v>
   <v>       0.25095000       0.87407500       0.12474000 </v>
   <v>       0.12553250       0.87507750       0.00016500 </v>
   <v>       0.99973750       0.87571750       0.87459500 </v>
   <v>       0.12600250       0.75007250       0.87465500 </v>
   <v>       0.00039000       0.75088000       0.74854000 </v>
   <v>       0.12534750       0.99987750       0.87305500 </v>
   <v>       0.24970000       0.75076500       0.74985000 </v>
   <v>       0.00027250       0.75022250       0.50012500 </v>
   <v>       0.37466750       0.99912250       0.87463500 </v>
   <v>       0.12446000       0.87498500       0.50162000 </v>
   <v>       0.24907250       0.12499750       0.62491500 </v>
   <v>       0.24965250       0.99988250       0.50137500 </v>
   <v>       0.12397750       0.00084750       0.37598500 </v>
   <v>       0.37457250       0.12420750       0.74977500 </v>
   <v>       0.25026250       0.24934750       0.24886500 </v>
   <v>       0.37540000       0.99901500       0.62581000 </v>
   <v>       0.25026250       0.24988250       0.99990500 </v>
   <v>       0.37536500       0.37434000       0.25012000 </v>
   <v>       0.12452500       0.00102500       0.12470000 </v>
   <v>       0.62450750       0.12506750       0.49982500 </v>
   <v>       0.50015250       0.12515750       0.37466500 </v>
   <v>       0.37555250       0.12560250       0.24861500 </v>
   <v>       0.24996250       0.12589750       0.12593500 </v>
   <v>       0.37545500       0.00032500       0.12460000 </v>
   <v>       0.49970750       0.24909250       0.24996500 </v>
   <v>       0.37461750       0.87555250       0.74886500 </v>
   <v>       0.37463500       0.24969000       0.12600000 </v>
   <v>       0.50001500       0.12515000       0.12596000 </v>
   <v>       0.49971750       0.00013750       0.00129500 </v>
   <v>       0.24985750       0.12477250       0.87470500 </v>
   <v>       0.50026250       0.49934750       0.74886500 </v>
   <v>       0.62540000       0.24901500       0.12581000 </v>
   <v>       0.50026250       0.49988250       0.49990500 </v>
   <v>       0.62536500       0.62434000       0.75012000 </v>
   <v>       0.37452500       0.25102500       0.62470000 </v>
   <v>       0.87450750       0.37506750       0.99982500 </v>
   <v>       0.75015250       0.37515750       0.87466500 </v>
   <v>       0.62555250       0.37560250       0.74861500 </v>
   <v>       0.49996250       0.37589750       0.62593500 </v>
   <v>       0.62545500       0.25032500       0.62460000 </v>
   <v>       0.74970750       0.49909250       0.74996500 </v>
   <v>       0.62461750       0.12555250       0.24886500 </v>
   <v>       0.62463250       0.49969250       0.62599500 </v>
   <v>       0.75001500       0.37515000       0.62596000 </v>
   <v>       0.74971750       0.25013750       0.50129500 </v>
   <v>       0.49985750       0.37477250       0.37470500 </v>
   <v>       0.74765750       0.24934750       0.24886500 </v>
   <v>       0.87540000       0.99901500       0.62581000 </v>
   <v>       0.75026250       0.24988250       0.99990500 </v>
   <v>       0.87536500       0.37434000       0.25012000 </v>
   <v>       0.62452500       0.00102500       0.12470000 </v>
   <v>       0.12450750       0.12506750       0.49982500 </v>
   <v>       0.00015250       0.12515750       0.37466500 </v>
   <v>       0.87555250       0.12560250       0.24861500 </v>
   <v>       0.74996250       0.12589750       0.12593500 </v>
   <v>       0.87545500       0.00032500       0.12460000 </v>
   <v>       0.99970750       0.24909250       0.24996500 </v>
   <v>       0.87461750       0.87555250       0.74886500 </v>
   <v>       0.87463250       0.24969250       0.12599500 </v>
   <v>       0.00001500       0.12515000       0.12596000 </v>
   <v>       0.99971750       0.00013750       0.00129500 </v>
   <v>       0.74985750       0.12477250       0.87470500 </v>
   <v>       0.25026250       0.74934750       0.24886500 </v>
   <v>       0.37540000       0.49901500       0.62581000 </v>
   <v>       0.25026250       0.74988250       0.99990500 </v>
   <v>       0.37536500       0.87434000       0.25012000 </v>
   <v>       0.12452500       0.50102500       0.12470000 </v>
   <v>       0.62450750       0.62506750       0.49982500 </v>
   <v>       0.50015250       0.62515750       0.37466500 </v>
   <v>       0.37555250       0.62560250       0.24861500 </v>
   <v>       0.24996250       0.62589750       0.12593500 </v>
   <v>       0.37545500       0.50032500       0.12460000 </v>
   <v>       0.49970750       0.74909250       0.24996500 </v>
   <v>       0.37461750       0.37555250       0.74886500 </v>
   <v>       0.37463500       0.74969000       0.12600000 </v>
   <v>       0.50001500       0.62515000       0.12596000 </v>
   <v>       0.49971750       0.50013750       0.00129500 </v>
   <v>       0.24985750       0.62477250       0.87470500 </v>
   <v>       0.00026250       0.49934750       0.74886500 </v>
   <v>       0.12540000       0.24901500       0.12581000 </v>
   <v>       0.00026250       0.49988250       0.49990500 </v>
   <v>       0.12536500       0.62434000       0.75012000 </v>
   <v>       0.87452500       0.25102500       0.62470000 </v>
   <v>       0.37450750       0.37506750       0.99982500 </v>
   <v>       0.25015250       0.37515750       0.87466500 </v>
   <v>       0.12555250       0.37560250       0.74861500 </v>
   <v>       0.99996250       0.37589750       0.62593500 </v>
   <v>       0.12545500       0.25032500       0.62460000 </v>
   <v>       0.24970750       0.49909250       0.74996500 </v>
   <v>       0.12461750       0.12555250       0.24886500 </v>
   <v>       0.12463250       0.49969250       0.62599500 </v>
   <v>       0.25001500       0.37515000       0.62596000 </v>
   <v>       0.24971750       0.25013750       0.50129500 </v>
   <v>       0.99985750       0.37477250       0.37470500 </v>
   <v>       0.50026250       0.99934750       0.74886500 </v>
   <v>       0.62540000       0.74901500       0.12581000 </v>
   <v>       0.50026250       0.99988250       0.49990500 </v>
   <v>       0.62536500       0.12434000       0.75012000 </v>
   <v>       0.37452500       0.75102500       0.62470000 </v>
   <v>       0.87450750       0.87506750       0.99982500 </v>
   <v>       0.75015250       0.87515750       0.87466500 </v>
   <v>       0.62555250       0.87560250       0.74861500 </v>
   <v>       0.49996250       0.87589750       0.62593500 </v>
   <v>       0.62545500       0.75032500       0.62460000 </v>
   <v>       0.74970750       0.99909250       0.74996500 </v>
   <v>       0.62461750       0.62555250       0.24886500 </v>
   <v>       0.62463250       0.99969250       0.62599500 </v>
   <v>       0.75001500       0.87515000       0.62596000 </v>
   <v>       0.74971750       0.75013750       0.50129500 </v>
   <v>       0.49985750       0.87477250       0.37470500 </v>
   <v>       0.75026250       0.74934750       0.24886500 </v>
   <v>       0.87540000       0.49901500       0.62581000 </v>
   <v>       0.75026250       0.74988250       0.99990500 </v>
   <v>       0.87536500       0.87434000       0.25012000 </v>
   <v>       0.62452500       0.50102500       0.12470000 </v>
   <v>       0.12450750       0.62506750       0.49982500 </v>
   <v>       0.00015250       0.62515750       0.37466500 </v>
   <v>       0.87555250       0.62560250       0.24861500 </v>
   <v>       0.74996250       0.62589750       0.12593500 </v>
   <v>       0.87545500       0.50032500       0.12460000 </v>
   <v>       0.99970750       0.74909250       0.24996500 </v>
   <v>       0.87461750       0.37555250       0.74886500 </v>
   <v>       0.87463250       0.74969250       0.12599500 </v>
   <v>       0.00001500       0.62515000       0.12596000 </v>
   <v>       0.99971750       0.50013750       0.00129500 </v>
   <v>       0.74985750       0.62477250       0.87470500 </v>
   <v>       0.00026250       0.99934750       0.74886500 </v>
   <v>       0.12540000       0.74901500       0.12581000 </v>
   <v>       0.00026250       0.99988250       0.49990500 </v>
   <v>       0.12536500       0.12434000       0.75012000 </v>
   <v>       0.87452500       0.75102500       0.62470000 </v>
   <v>       0.37450750       0.87506750       0.99982500 </v>
   <v>       0.25015250       0.87515750       0.87466500 </v>
   <v>       0.12555250       0.87560250       0.74861500 </v>
   <v>       0.99996250       0.87589750       0.62593500 </v>
   <v>       0.12545500       0.75032500       0.62460000 </v>
   <v>       0.24970750       0.99909250       0.74996500 </v>
   <v>       0.12461750       0.62555250       0.24886500 </v>
   <v>       0.12463500       0.99969000       0.62600000 </v>
   <v>       0.25001250       0.87514750       0.62596500 </v>
   <v>       0.24971750       0.75013750       0.50129500 </v>
   <v>       0.99985750       0.87477250       0.37470500 </v>
  </varray>
 </structure>
</modeling>
