 256 256   0   0
  0.1419206E+02  0.1537080E-08  0.1537218E-08  0.1537636E-08  0.5000000E-15
  1.000000000000000E-004
  CAR 
 Ir_Ru                                   
     12.68334744     -1.29485172  301      9.24208025      1.00000000
     -1.295  0.0000E+00  0.0000E+00
     -1.248  0.0000E+00  0.0000E+00
     -1.202  0.0000E+00  0.0000E+00
     -1.155  0.0000E+00  0.0000E+00
     -1.108 -0.2740E-28 -0.1277E-29
     -1.062 -0.4085E-25 -0.1905E-26
     -1.015 -0.3929E-22 -0.1833E-23
     -0.969 -0.2439E-19 -0.1138E-20
     -0.922 -0.9768E-17 -0.4563E-18
     -0.876 -0.2449E-14 -0.1146E-15
     -0.829 -0.4062E-12 -0.1904E-13
     -0.782 -0.4338E-10 -0.2040E-11
     -0.736 -0.2986E-08 -0.1412E-09
     -0.689 -0.1325E-06 -0.6315E-08
     -0.643 -0.3798E-05 -0.1833E-06
     -0.596 -0.7049E-04 -0.3467E-05
     -0.549 -0.8496E-03 -0.4306E-04
     -0.503 -0.6654E-02 -0.3531E-03
     -0.456 -0.3345E-01 -0.1912E-02
     -0.410 -0.1018E+00 -0.6656E-02
     -0.363 -0.1379E+00 -0.1308E-01
     -0.316  0.2219E+00 -0.2743E-02
     -0.270  0.1504E+01  0.6734E-01
     -0.223  0.3533E+01  0.2319E+00
     -0.177  0.5067E+01  0.4681E+00
     -0.130  0.5729E+01  0.7350E+00
     -0.083  0.7316E+01  0.1076E+01
     -0.037  0.1019E+02  0.1550E+01
      0.010  0.1102E+02  0.2064E+01
      0.056  0.9157E+01  0.2491E+01
      0.103  0.9367E+01  0.2927E+01
      0.150  0.1313E+02  0.3539E+01
      0.196  0.1590E+02  0.4280E+01
      0.243  0.1604E+02  0.5028E+01
      0.289  0.1672E+02  0.5806E+01
      0.336  0.1848E+02  0.6668E+01
      0.383  0.1834E+02  0.7522E+01
      0.429  0.1740E+02  0.8333E+01
      0.476  0.1974E+02  0.9253E+01
      0.522  0.2334E+02  0.1034E+02
      0.569  0.2405E+02  0.1146E+02
      0.616  0.2230E+02  0.1250E+02
      0.662  0.1879E+02  0.1338E+02
      0.709  0.1414E+02  0.1403E+02
      0.755  0.1117E+02  0.1455E+02
      0.802  0.1072E+02  0.1505E+02
      0.848  0.1116E+02  0.1557E+02
      0.895  0.1219E+02  0.1614E+02
      0.942  0.1468E+02  0.1683E+02
      0.988  0.1836E+02  0.1768E+02
      1.035  0.2288E+02  0.1875E+02
      1.081  0.2806E+02  0.2006E+02
      1.128  0.3123E+02  0.2151E+02
      1.175  0.2974E+02  0.2290E+02
      1.221  0.2591E+02  0.2410E+02
      1.268  0.2307E+02  0.2518E+02
      1.314  0.2096E+02  0.2616E+02
      1.361  0.2000E+02  0.2709E+02
      1.408  0.2159E+02  0.2809E+02
      1.454  0.2405E+02  0.2921E+02
      1.501  0.2564E+02  0.3041E+02
      1.547  0.2890E+02  0.3176E+02
      1.594  0.3500E+02  0.3339E+02
      1.641  0.3868E+02  0.3519E+02
      1.687  0.3781E+02  0.3695E+02
      1.734  0.3916E+02  0.3877E+02
      1.780  0.4540E+02  0.4089E+02
      1.827  0.4931E+02  0.4319E+02
      1.874  0.4782E+02  0.4542E+02
      1.920  0.4727E+02  0.4762E+02
      1.967  0.5090E+02  0.4999E+02
      2.013  0.5415E+02  0.5251E+02
      2.060  0.5544E+02  0.5510E+02
      2.107  0.6114E+02  0.5794E+02
      2.153  0.7428E+02  0.6141E+02
      2.200  0.8924E+02  0.6556E+02
      2.246  0.1030E+03  0.7036E+02
      2.293  0.1177E+03  0.7585E+02
      2.339  0.1309E+03  0.8195E+02
      2.386  0.1382E+03  0.8839E+02
      2.433  0.1431E+03  0.9506E+02
      2.479  0.1521E+03  0.1021E+03
      2.526  0.1609E+03  0.1096E+03
      2.572  0.1617E+03  0.1172E+03
      2.619  0.1612E+03  0.1247E+03
      2.666  0.1687E+03  0.1326E+03
      2.712  0.1783E+03  0.1409E+03
      2.759  0.1847E+03  0.1495E+03
      2.805  0.1976E+03  0.1587E+03
      2.852  0.2226E+03  0.1690E+03
      2.899  0.2475E+03  0.1806E+03
      2.945  0.2564E+03  0.1925E+03
      2.992  0.2499E+03  0.2042E+03
      3.038  0.2468E+03  0.2157E+03
      3.085  0.2619E+03  0.2279E+03
      3.132  0.2863E+03  0.2412E+03
      3.178  0.3011E+03  0.2552E+03
      3.225  0.3038E+03  0.2694E+03
      3.271  0.3050E+03  0.2836E+03
      3.318  0.3084E+03  0.2980E+03
      3.365  0.3111E+03  0.3125E+03
      3.411  0.3143E+03  0.3271E+03
      3.458  0.3215E+03  0.3421E+03
      3.504  0.3332E+03  0.3576E+03
      3.551  0.3440E+03  0.3737E+03
      3.598  0.3470E+03  0.3898E+03
      3.644  0.3450E+03  0.4059E+03
      3.691  0.3487E+03  0.4221E+03
      3.737  0.3576E+03  0.4388E+03
      3.784  0.3594E+03  0.4555E+03
      3.830  0.3524E+03  0.4720E+03
      3.877  0.3478E+03  0.4882E+03
      3.924  0.3495E+03  0.5045E+03
      3.970  0.3506E+03  0.5208E+03
      4.017  0.3417E+03  0.5367E+03
      4.063  0.3232E+03  0.5518E+03
      4.110  0.3069E+03  0.5661E+03
      4.157  0.2975E+03  0.5799E+03
      4.203  0.2874E+03  0.5933E+03
      4.250  0.2715E+03  0.6060E+03
      4.296  0.2539E+03  0.6178E+03
      4.343  0.2428E+03  0.6291E+03
      4.390  0.2450E+03  0.6405E+03
      4.436  0.2574E+03  0.6525E+03
      4.483  0.2618E+03  0.6647E+03
      4.529  0.2510E+03  0.6764E+03
      4.576  0.2477E+03  0.6880E+03
      4.623  0.2669E+03  0.7004E+03
      4.669  0.2917E+03  0.7140E+03
      4.716  0.3068E+03  0.7283E+03
      4.762  0.3137E+03  0.7429E+03
      4.809  0.3136E+03  0.7575E+03
      4.856  0.3050E+03  0.7717E+03
      4.902  0.2903E+03  0.7853E+03
      4.949  0.2786E+03  0.7982E+03
      4.995  0.2810E+03  0.8113E+03
      5.042  0.2949E+03  0.8251E+03
      5.089  0.3077E+03  0.8394E+03
      5.135  0.3093E+03  0.8538E+03
      5.182  0.2979E+03  0.8677E+03
      5.228  0.2857E+03  0.8810E+03
      5.275  0.2844E+03  0.8943E+03
      5.321  0.2903E+03  0.9078E+03
      5.368  0.2972E+03  0.9216E+03
      5.415  0.3017E+03  0.9357E+03
      5.461  0.2988E+03  0.9496E+03
      5.508  0.2889E+03  0.9631E+03
      5.554  0.2866E+03  0.9764E+03
      5.601  0.3023E+03  0.9905E+03
      5.648  0.3214E+03  0.1005E+04
      5.694  0.3254E+03  0.1021E+04
      5.741  0.3203E+03  0.1036E+04
      5.787  0.3198E+03  0.1050E+04
      5.834  0.3260E+03  0.1066E+04
      5.881  0.3365E+03  0.1081E+04
      5.927  0.3499E+03  0.1098E+04
      5.974  0.3651E+03  0.1115E+04
      6.020  0.3787E+03  0.1132E+04
      6.067  0.3854E+03  0.1150E+04
      6.114  0.3874E+03  0.1168E+04
      6.160  0.3916E+03  0.1187E+04
      6.207  0.3985E+03  0.1205E+04
      6.253  0.4093E+03  0.1224E+04
      6.300  0.4268E+03  0.1244E+04
      6.347  0.4461E+03  0.1265E+04
      6.393  0.4573E+03  0.1286E+04
      6.440  0.4573E+03  0.1307E+04
      6.486  0.4532E+03  0.1329E+04
      6.533  0.4501E+03  0.1350E+04
      6.580  0.4457E+03  0.1370E+04
      6.626  0.4392E+03  0.1391E+04
      6.673  0.4319E+03  0.1411E+04
      6.719  0.4250E+03  0.1431E+04
      6.766  0.4173E+03  0.1450E+04
      6.813  0.4021E+03  0.1469E+04
      6.859  0.3774E+03  0.1486E+04
      6.906  0.3547E+03  0.1503E+04
      6.952  0.3443E+03  0.1519E+04
      6.999  0.3393E+03  0.1535E+04
      7.045  0.3279E+03  0.1550E+04
      7.092  0.3149E+03  0.1565E+04
      7.139  0.3134E+03  0.1579E+04
      7.185  0.3193E+03  0.1594E+04
      7.232  0.3138E+03  0.1609E+04
      7.278  0.2883E+03  0.1622E+04
      7.325  0.2566E+03  0.1634E+04
      7.372  0.2403E+03  0.1645E+04
      7.418  0.2483E+03  0.1657E+04
      7.465  0.2706E+03  0.1670E+04
      7.511  0.2845E+03  0.1683E+04
      7.558  0.2768E+03  0.1696E+04
      7.605  0.2588E+03  0.1708E+04
      7.651  0.2483E+03  0.1719E+04
      7.698  0.2567E+03  0.1731E+04
      7.744  0.2823E+03  0.1745E+04
      7.791  0.3051E+03  0.1759E+04
      7.838  0.3120E+03  0.1773E+04
      7.884  0.3089E+03  0.1788E+04
      7.931  0.3032E+03  0.1802E+04
      7.977  0.2963E+03  0.1816E+04
      8.024  0.2912E+03  0.1829E+04
      8.071  0.2956E+03  0.1843E+04
      8.117  0.3088E+03  0.1857E+04
      8.164  0.3169E+03  0.1872E+04
      8.210  0.3176E+03  0.1887E+04
      8.257  0.3292E+03  0.1902E+04
      8.304  0.3530E+03  0.1919E+04
      8.350  0.3624E+03  0.1936E+04
      8.397  0.3408E+03  0.1951E+04
      8.443  0.3012E+03  0.1966E+04
      8.490  0.2677E+03  0.1978E+04
      8.536  0.2557E+03  0.1990E+04
      8.583  0.2702E+03  0.2003E+04
      8.630  0.2949E+03  0.2016E+04
      8.676  0.3004E+03  0.2030E+04
      8.723  0.2845E+03  0.2044E+04
      8.769  0.2678E+03  0.2056E+04
      8.816  0.2572E+03  0.2068E+04
      8.863  0.2494E+03  0.2080E+04
      8.909  0.2452E+03  0.2091E+04
      8.956  0.2452E+03  0.2102E+04
      9.002  0.2530E+03  0.2114E+04
      9.049  0.2729E+03  0.2127E+04
      9.096  0.2842E+03  0.2140E+04
      9.142  0.2669E+03  0.2153E+04
      9.189  0.2413E+03  0.2164E+04
      9.235  0.2285E+03  0.2175E+04
      9.282  0.2202E+03  0.2185E+04
      9.329  0.2139E+03  0.2195E+04
      9.375  0.2214E+03  0.2205E+04
      9.422  0.2418E+03  0.2216E+04
      9.468  0.2618E+03  0.2229E+04
      9.515  0.2734E+03  0.2241E+04
      9.562  0.2772E+03  0.2254E+04
      9.608  0.2763E+03  0.2267E+04
      9.655  0.2712E+03  0.2280E+04
      9.701  0.2614E+03  0.2292E+04
      9.748  0.2445E+03  0.2303E+04
      9.795  0.2247E+03  0.2314E+04
      9.841  0.2192E+03  0.2324E+04
      9.888  0.2356E+03  0.2335E+04
      9.934  0.2631E+03  0.2347E+04
      9.981  0.2941E+03  0.2361E+04
     10.027  0.3264E+03  0.2376E+04
     10.074  0.3488E+03  0.2392E+04
     10.121  0.3469E+03  0.2408E+04
     10.167  0.3247E+03  0.2424E+04
     10.214  0.3102E+03  0.2438E+04
     10.260  0.3278E+03  0.2453E+04
     10.307  0.3846E+03  0.2471E+04
     10.354  0.4638E+03  0.2493E+04
     10.400  0.5178E+03  0.2517E+04
     10.447  0.5105E+03  0.2541E+04
     10.493  0.4530E+03  0.2562E+04
     10.540  0.3766E+03  0.2579E+04
     10.587  0.3043E+03  0.2594E+04
     10.633  0.2495E+03  0.2605E+04
     10.680  0.2132E+03  0.2615E+04
     10.726  0.1820E+03  0.2624E+04
     10.773  0.1437E+03  0.2630E+04
     10.820  0.9915E+02  0.2635E+04
     10.866  0.5792E+02  0.2638E+04
     10.913  0.2807E+02  0.2639E+04
     10.959  0.1080E+02  0.2639E+04
     11.006  0.3171E+01  0.2640E+04
     11.053  0.1384E+01  0.2640E+04
     11.099  0.1709E+01  0.2640E+04
     11.146  0.1573E+01  0.2640E+04
     11.192  0.6866E+00  0.2640E+04
     11.239  0.2043E-01  0.2640E+04
     11.286 -0.1116E+00  0.2640E+04
     11.332 -0.5100E-01  0.2640E+04
     11.379 -0.1131E-01  0.2640E+04
     11.425 -0.3457E-02  0.2640E+04
     11.472 -0.1298E-01  0.2640E+04
     11.518 -0.4210E-01  0.2640E+04
     11.565 -0.3658E-01  0.2640E+04
     11.612  0.1962E+00  0.2640E+04
     11.658  0.7115E+00  0.2640E+04
     11.705  0.1026E+01  0.2640E+04
     11.751  0.7271E+00  0.2640E+04
     11.798  0.2084E+00  0.2640E+04
     11.845 -0.3412E-01  0.2640E+04
     11.891 -0.4305E-01  0.2640E+04
     11.938 -0.1347E-01  0.2640E+04
     11.984 -0.2193E-02  0.2640E+04
     12.031 -0.2095E-03  0.2640E+04
     12.078 -0.1225E-04  0.2640E+04
     12.124 -0.4478E-06  0.2640E+04
     12.171 -0.1034E-07  0.2640E+04
     12.217 -0.1521E-09  0.2640E+04
     12.264 -0.1430E-11  0.2640E+04
     12.311 -0.8638E-14  0.2640E+04
     12.357  0.0000E+00  0.2640E+04
     12.404  0.0000E+00  0.2640E+04
     12.450  0.0000E+00  0.2640E+04
     12.497  0.0000E+00  0.2640E+04
     12.544  0.0000E+00  0.2640E+04
     12.590  0.0000E+00  0.2640E+04
     12.637  0.0000E+00  0.2640E+04
     12.683  0.0000E+00  0.2640E+04
