  32  32   0   0
  0.1403876E+02  0.4689658E-09  0.5415170E-09  0.1856766E-08  0.5000000E-15
  1.000000000000000E-004
  CAR 
 Ir_Ru                                   
     14.27004823     -0.99534117  301      8.89232978      1.00000000
     -0.995  0.0000E+00  0.0000E+00
     -0.944  0.0000E+00  0.0000E+00
     -0.894  0.0000E+00  0.0000E+00
     -0.843  0.0000E+00  0.0000E+00
     -0.792  0.0000E+00  0.0000E+00
     -0.741  0.0000E+00  0.0000E+00
     -0.690  0.0000E+00  0.0000E+00
     -0.639  0.0000E+00  0.0000E+00
     -0.588  0.0000E+00  0.0000E+00
     -0.537  0.0000E+00  0.0000E+00
     -0.486  0.0000E+00  0.0000E+00
     -0.436  0.0000E+00  0.0000E+00
     -0.385  0.0000E+00  0.0000E+00
     -0.334  0.0000E+00  0.0000E+00
     -0.283  0.0000E+00  0.0000E+00
     -0.232  0.0000E+00  0.0000E+00
     -0.181  0.0000E+00  0.0000E+00
     -0.130  0.0000E+00  0.0000E+00
     -0.079  0.0000E+00  0.0000E+00
     -0.029  0.0000E+00  0.0000E+00
      0.022  0.7221E-01  0.4259E-03
      0.073  0.7028E+00  0.2012E-01
      0.124  0.8819E+00  0.6700E-01
      0.175  0.7379E+00  0.1059E+00
      0.226  0.7850E+00  0.1446E+00
      0.277  0.8307E+00  0.1858E+00
      0.328  0.8747E+00  0.2291E+00
      0.379  0.9085E+00  0.2746E+00
      0.429  0.1461E+01  0.3330E+00
      0.480  0.1786E+01  0.4199E+00
      0.531  0.1638E+01  0.5060E+00
      0.582  0.1691E+01  0.5905E+00
      0.633  0.1767E+01  0.6786E+00
      0.684  0.1843E+01  0.7704E+00
      0.735  0.1838E+01  0.8646E+00
      0.786  0.1827E+01  0.9575E+00
      0.837  0.1856E+01  0.1051E+01
      0.887  0.1893E+01  0.1147E+01
      0.938  0.1933E+01  0.1244E+01
      0.989  0.1985E+01  0.1344E+01
      1.040  0.2042E+01  0.1446E+01
      1.091  0.2097E+01  0.1551E+01
      1.142  0.2143E+01  0.1659E+01
      1.193  0.2244E+01  0.1770E+01
      1.244  0.2616E+01  0.1893E+01
      1.294  0.3244E+01  0.2041E+01
      1.345  0.3625E+01  0.2216E+01
      1.396  0.3671E+01  0.2404E+01
      1.447  0.4408E+01  0.2603E+01
      1.498  0.3869E+01  0.2817E+01
      1.549  0.3420E+01  0.3000E+01
      1.600  0.3453E+01  0.3175E+01
      1.651  0.3401E+01  0.3349E+01
      1.702  0.3379E+01  0.3522E+01
      1.752  0.3523E+01  0.3696E+01
      1.803  0.3619E+01  0.3877E+01
      1.854  0.3562E+01  0.4060E+01
      1.905  0.5541E+01  0.4302E+01
      1.956  0.5609E+01  0.4582E+01
      2.007  0.7720E+01  0.4876E+01
      2.058  0.5679E+01  0.5197E+01
      2.109  0.6406E+01  0.5501E+01
      2.160  0.9085E+01  0.5912E+01
      2.210  0.7897E+01  0.6358E+01
      2.261  0.7104E+01  0.6731E+01
      2.312  0.9872E+01  0.7152E+01
      2.363  0.1376E+02  0.7695E+01
      2.414  0.1338E+02  0.8411E+01
      2.465  0.1677E+02  0.9151E+01
      2.516  0.1748E+02  0.1004E+02
      2.567  0.1652E+02  0.1089E+02
      2.617  0.1942E+02  0.1177E+02
      2.668  0.1894E+02  0.1279E+02
      2.719  0.2231E+02  0.1378E+02
      2.770  0.2280E+02  0.1489E+02
      2.821  0.2675E+02  0.1617E+02
      2.872  0.2559E+02  0.1749E+02
      2.923  0.2817E+02  0.1885E+02
      2.974  0.3311E+02  0.2040E+02
      3.025  0.3345E+02  0.2212E+02
      3.075  0.3570E+02  0.2383E+02
      3.126  0.3399E+02  0.2561E+02
      3.177  0.3942E+02  0.2745E+02
      3.228  0.4057E+02  0.2951E+02
      3.279  0.4224E+02  0.3170E+02
      3.330  0.4552E+02  0.3395E+02
      3.381  0.4713E+02  0.3630E+02
      3.432  0.4854E+02  0.3870E+02
      3.483  0.4894E+02  0.4119E+02
      3.533  0.4943E+02  0.4368E+02
      3.584  0.4859E+02  0.4614E+02
      3.635  0.4893E+02  0.4871E+02
      3.686  0.4640E+02  0.5120E+02
      3.737  0.4699E+02  0.5358E+02
      3.788  0.4857E+02  0.5603E+02
      3.839  0.4669E+02  0.5845E+02
      3.890  0.4611E+02  0.6081E+02
      3.940  0.4462E+02  0.6309E+02
      3.991  0.4129E+02  0.6526E+02
      4.042  0.4030E+02  0.6735E+02
      4.093  0.3863E+02  0.6940E+02
      4.144  0.4039E+02  0.7140E+02
      4.195  0.3732E+02  0.7337E+02
      4.246  0.3716E+02  0.7525E+02
      4.297  0.3397E+02  0.7708E+02
      4.348  0.3369E+02  0.7883E+02
      4.398  0.3269E+02  0.8051E+02
      4.449  0.3088E+02  0.8214E+02
      4.500  0.3161E+02  0.8374E+02
      4.551  0.3468E+02  0.8545E+02
      4.602  0.3625E+02  0.8720E+02
      4.653  0.3793E+02  0.8906E+02
      4.704  0.3847E+02  0.9094E+02
      4.755  0.3876E+02  0.9294E+02
      4.806  0.3914E+02  0.9493E+02
      4.856  0.3827E+02  0.9689E+02
      4.907  0.3699E+02  0.9886E+02
      4.958  0.3947E+02  0.1008E+03
      5.009  0.3812E+02  0.1027E+03
      5.060  0.3665E+02  0.1046E+03
      5.111  0.3761E+02  0.1065E+03
      5.162  0.3603E+02  0.1083E+03
      5.213  0.3476E+02  0.1102E+03
      5.263  0.3280E+02  0.1119E+03
      5.314  0.3473E+02  0.1136E+03
      5.365  0.3528E+02  0.1154E+03
      5.416  0.3825E+02  0.1173E+03
      5.467  0.3876E+02  0.1193E+03
      5.518  0.3898E+02  0.1212E+03
      5.569  0.4115E+02  0.1232E+03
      5.620  0.3939E+02  0.1252E+03
      5.671  0.3829E+02  0.1272E+03
      5.721  0.4364E+02  0.1293E+03
      5.772  0.4256E+02  0.1315E+03
      5.823  0.4154E+02  0.1336E+03
      5.874  0.4257E+02  0.1358E+03
      5.925  0.3997E+02  0.1379E+03
      5.976  0.4420E+02  0.1401E+03
      6.027  0.4708E+02  0.1425E+03
      6.078  0.4979E+02  0.1449E+03
      6.129  0.4922E+02  0.1474E+03
      6.179  0.4925E+02  0.1500E+03
      6.230  0.5504E+02  0.1526E+03
      6.281  0.5583E+02  0.1554E+03
      6.332  0.5570E+02  0.1582E+03
      6.383  0.5987E+02  0.1611E+03
      6.434  0.6256E+02  0.1642E+03
      6.485  0.6227E+02  0.1674E+03
      6.536  0.6305E+02  0.1707E+03
      6.586  0.6334E+02  0.1738E+03
      6.637  0.5778E+02  0.1769E+03
      6.688  0.5183E+02  0.1798E+03
      6.739  0.5206E+02  0.1825E+03
      6.790  0.4719E+02  0.1850E+03
      6.841  0.4368E+02  0.1873E+03
      6.892  0.4110E+02  0.1895E+03
      6.943  0.3805E+02  0.1915E+03
      6.994  0.3723E+02  0.1935E+03
      7.044  0.3666E+02  0.1954E+03
      7.095  0.4074E+02  0.1973E+03
      7.146  0.3820E+02  0.1994E+03
      7.197  0.3836E+02  0.2013E+03
      7.248  0.3632E+02  0.2033E+03
      7.299  0.3622E+02  0.2051E+03
      7.350  0.3536E+02  0.2069E+03
      7.401  0.3122E+02  0.2085E+03
      7.452  0.3122E+02  0.2101E+03
      7.502  0.3118E+02  0.2117E+03
      7.553  0.3498E+02  0.2134E+03
      7.604  0.3388E+02  0.2152E+03
      7.655  0.3699E+02  0.2170E+03
      7.706  0.3559E+02  0.2189E+03
      7.757  0.3945E+02  0.2207E+03
      7.808  0.3881E+02  0.2227E+03
      7.859  0.3751E+02  0.2247E+03
      7.909  0.4019E+02  0.2267E+03
      7.960  0.4034E+02  0.2287E+03
      8.011  0.3832E+02  0.2308E+03
      8.062  0.4012E+02  0.2328E+03
      8.113  0.4145E+02  0.2349E+03
      8.164  0.4032E+02  0.2370E+03
      8.215  0.4375E+02  0.2392E+03
      8.266  0.4258E+02  0.2415E+03
      8.317  0.3886E+02  0.2435E+03
      8.367  0.3757E+02  0.2455E+03
      8.418  0.3610E+02  0.2473E+03
      8.469  0.3523E+02  0.2492E+03
      8.520  0.3828E+02  0.2511E+03
      8.571  0.3831E+02  0.2530E+03
      8.622  0.3606E+02  0.2549E+03
      8.673  0.3752E+02  0.2567E+03
      8.724  0.3377E+02  0.2585E+03
      8.775  0.3246E+02  0.2602E+03
      8.825  0.3190E+02  0.2619E+03
      8.876  0.3266E+02  0.2635E+03
      8.927  0.3245E+02  0.2651E+03
      8.978  0.3244E+02  0.2668E+03
      9.029  0.3286E+02  0.2684E+03
      9.080  0.3076E+02  0.2700E+03
      9.131  0.3163E+02  0.2716E+03
      9.182  0.3150E+02  0.2732E+03
      9.232  0.3088E+02  0.2748E+03
      9.283  0.3390E+02  0.2764E+03
      9.334  0.3290E+02  0.2781E+03
      9.385  0.3207E+02  0.2798E+03
      9.436  0.3354E+02  0.2814E+03
      9.487  0.3100E+02  0.2831E+03
      9.538  0.3132E+02  0.2847E+03
      9.589  0.3157E+02  0.2863E+03
      9.640  0.3313E+02  0.2880E+03
      9.690  0.3358E+02  0.2897E+03
      9.741  0.3490E+02  0.2914E+03
      9.792  0.3532E+02  0.2932E+03
      9.843  0.3937E+02  0.2951E+03
      9.894  0.3839E+02  0.2971E+03
      9.945  0.3979E+02  0.2992E+03
      9.996  0.3992E+02  0.3012E+03
     10.047  0.4304E+02  0.3033E+03
     10.098  0.4493E+02  0.3055E+03
     10.148  0.4768E+02  0.3079E+03
     10.199  0.4326E+02  0.3102E+03
     10.250  0.4113E+02  0.3124E+03
     10.301  0.3858E+02  0.3143E+03
     10.352  0.2957E+02  0.3161E+03
     10.403  0.2216E+02  0.3174E+03
     10.454  0.1359E+02  0.3183E+03
     10.505  0.7619E+01  0.3188E+03
     10.555  0.3205E+01  0.3191E+03
     10.606  0.1034E+01  0.3192E+03
     10.657  0.9150E+00  0.3192E+03
     10.708  0.8365E+00  0.3193E+03
     10.759  0.7913E+00  0.3193E+03
     10.810  0.7560E+00  0.3194E+03
     10.861  0.7216E+00  0.3194E+03
     10.912  0.6881E+00  0.3194E+03
     10.963  0.6555E+00  0.3195E+03
     11.013  0.6239E+00  0.3195E+03
     11.064  0.5932E+00  0.3195E+03
     11.115  0.5634E+00  0.3196E+03
     11.166  0.5346E+00  0.3196E+03
     11.217  0.5067E+00  0.3196E+03
     11.268  0.4797E+00  0.3196E+03
     11.319  0.4536E+00  0.3197E+03
     11.370  0.4285E+00  0.3197E+03
     11.421  0.4044E+00  0.3197E+03
     11.471  0.3811E+00  0.3197E+03
     11.522  0.3588E+00  0.3197E+03
     11.573  0.3379E+00  0.3198E+03
     11.624  0.3184E+00  0.3198E+03
     11.675  0.3002E+00  0.3198E+03
     11.726  0.2828E+00  0.3198E+03
     11.777  0.2662E+00  0.3198E+03
     11.828  0.2506E+00  0.3198E+03
     11.878  0.2357E+00  0.3198E+03
     11.929  0.2217E+00  0.3199E+03
     11.980  0.2085E+00  0.3199E+03
     12.031  0.1960E+00  0.3199E+03
     12.082  0.1844E+00  0.3199E+03
     12.133  0.1737E+00  0.3199E+03
     12.184  0.1640E+00  0.3199E+03
     12.235  0.1549E+00  0.3199E+03
     12.286  0.1466E+00  0.3199E+03
     12.336  0.1388E+00  0.3199E+03
     12.387  0.1317E+00  0.3199E+03
     12.438  0.1264E+00  0.3199E+03
     12.489  0.1222E+00  0.3199E+03
     12.540  0.1191E+00  0.3200E+03
     12.591  0.1162E+00  0.3200E+03
     12.642  0.1126E+00  0.3200E+03
     12.693  0.1089E+00  0.3200E+03
     12.744  0.1061E+00  0.3200E+03
     12.794  0.1049E+00  0.3200E+03
     12.845  0.9789E-01  0.3200E+03
     12.896  0.7705E-01  0.3200E+03
     12.947  0.5449E-01  0.3200E+03
     12.998  0.3533E-01  0.3200E+03
     13.049  0.1994E-01  0.3200E+03
     13.100  0.8926E-02  0.3200E+03
     13.151  0.2554E-02  0.3200E+03
     13.201  0.5668E-03  0.3200E+03
     13.252  0.3773E-04  0.3200E+03
     13.303  0.0000E+00  0.3200E+03
     13.354  0.0000E+00  0.3200E+03
     13.405  0.0000E+00  0.3200E+03
     13.456  0.0000E+00  0.3200E+03
     13.507  0.0000E+00  0.3200E+03
     13.558  0.0000E+00  0.3200E+03
     13.609  0.0000E+00  0.3200E+03
     13.659  0.0000E+00  0.3200E+03
     13.710  0.0000E+00  0.3200E+03
     13.761  0.0000E+00  0.3200E+03
     13.812  0.0000E+00  0.3200E+03
     13.863  0.0000E+00  0.3200E+03
     13.914  0.0000E+00  0.3200E+03
     13.965  0.0000E+00  0.3200E+03
     14.016  0.0000E+00  0.3200E+03
     14.067  0.0000E+00  0.3200E+03
     14.117  0.0000E+00  0.3200E+03
     14.168  0.0000E+00  0.3200E+03
     14.219  0.0000E+00  0.3200E+03
     14.270  0.0000E+00  0.3200E+03
