       N       E                     dE             d eps       ncg     rms          rms(c)
RMM:   1     0.136791023909E+05    0.13679E+05   -0.47218E+05 25080   0.725E+02
RMM:   2     0.131336559270E+04   -0.12366E+05   -0.13120E+05 25080   0.260E+02
RMM:   3    -0.104569259676E+04   -0.23591E+04   -0.22855E+04 25080   0.111E+02
RMM:   4    -0.184599567571E+04   -0.80030E+03   -0.57408E+03 25080   0.768E+01
RMM:   5    -0.212910478745E+04   -0.28311E+03   -0.24896E+03 25080   0.451E+01
RMM:   6    -0.227482542701E+04   -0.14572E+03   -0.12952E+03 25080   0.349E+01
RMM:   7    -0.235268966188E+04   -0.77864E+02   -0.73854E+02 25080   0.236E+01
RMM:   8    -0.240018720186E+04   -0.47498E+02   -0.44556E+02 25080   0.195E+01
RMM:   9    -0.247908223634E+04   -0.78895E+02   -0.77975E+02 71873   0.137E+01
RMM:  10    -0.248863790666E+04   -0.95557E+01   -0.11978E+02 79652   0.283E+00
RMM:  11    -0.249087945771E+04   -0.22416E+01   -0.17849E+01 77268   0.686E-01
RMM:  12    -0.249118597559E+04   -0.30652E+00   -0.19847E+00 79535   0.198E-01    0.782E+01
RMM:  13    -0.241366156270E+04    0.77524E+02   -0.68497E+02 57183   0.246E+01    0.583E+01
RMM:  14    -0.236777315591E+04    0.45888E+02   -0.34128E+02 51440   0.174E+01    0.416E+01
RMM:  15    -0.233563846204E+04    0.32135E+02   -0.11838E+02 53313   0.101E+01    0.255E+01
RMM:  16    -0.232139253470E+04    0.14246E+02   -0.25847E+01 56069   0.434E+00    0.472E+00
RMM:  17    -0.232163886804E+04   -0.24633E+00   -0.65366E+00 74337   0.126E+00    0.471E+00
RMM:  18    -0.232114325481E+04    0.49561E+00   -0.11871E+00 64170   0.734E-01    0.335E+00
RMM:  19    -0.232075815006E+04    0.38510E+00   -0.70116E-01 59245   0.808E-01    0.171E+00
RMM:  20    -0.232070994552E+04    0.48205E-01   -0.25382E-01 65418   0.333E-01    0.164E+00
RMM:  21    -0.232066023744E+04    0.49708E-01   -0.12307E-01 61843   0.258E-01    0.120E+00
RMM:  22    -0.232063874356E+04    0.21494E-01   -0.52080E-02 62220   0.159E-01    0.815E-01
RMM:  23    -0.232062954679E+04    0.91968E-02   -0.15495E-02 65529   0.788E-02    0.475E-01
RMM:  24    -0.232062657007E+04    0.29767E-02   -0.95457E-03 62475   0.710E-02    0.266E-01
RMM:  25    -0.232062686766E+04   -0.29759E-03   -0.10842E-02 66645   0.702E-02    0.233E-01
RMM:  26    -0.232062732134E+04   -0.45368E-03   -0.42522E-03 71055   0.385E-02    0.251E-01
RMM:  27    -0.232062668052E+04    0.64082E-03   -0.60057E-04 61591   0.169E-02    0.188E-01
RMM:  28    -0.232062607764E+04    0.60287E-03   -0.70334E-04 61002   0.204E-02    0.968E-02
RMM:  29    -0.232062589296E+04    0.18468E-03   -0.73357E-04 67443   0.187E-02    0.307E-02
RMM:  30    -0.232062588016E+04    0.12801E-04   -0.15752E-04 73884   0.649E-03
   1 F= -.23206259E+04 E0= -.23206257E+04  d E =-.449829E-03
