 256 256   0   0
  0.1418917E+02  0.1588033E-08  0.1692661E-08  0.1693229E-08  0.5000000E-15
  1.000000000000000E-004
  CAR 
 Ir_Ru                                   
     14.28798167     -1.29169063  301      9.45693653      1.00000000
     -1.292  0.0000E+00  0.0000E+00
     -1.240  0.0000E+00  0.0000E+00
     -1.188  0.0000E+00  0.0000E+00
     -1.136 -0.2850E-30 -0.1480E-31
     -1.084 -0.1312E-26 -0.6817E-28
     -1.032 -0.3510E-23 -0.1823E-24
     -0.980 -0.5446E-20 -0.2830E-21
     -0.928 -0.4898E-17 -0.2547E-18
     -0.876 -0.2493E-14 -0.1297E-15
     -0.824 -0.7425E-12 -0.3869E-13
     -0.772 -0.1282E-09 -0.6698E-11
     -0.720 -0.1273E-07 -0.6676E-09
     -0.669 -0.7231E-06 -0.3822E-07
     -0.617 -0.2338E-04 -0.1253E-05
     -0.565 -0.4273E-03 -0.2344E-04
     -0.513 -0.4369E-02 -0.2503E-03
     -0.461 -0.2473E-01 -0.1535E-02
     -0.409 -0.7596E-01 -0.5479E-02
     -0.357 -0.1012E+00 -0.1073E-01
     -0.305  0.2165E+00  0.5081E-03
     -0.253  0.1675E+01  0.8748E-01
     -0.201  0.4445E+01  0.3183E+00
     -0.149  0.6368E+01  0.6490E+00
     -0.097  0.6420E+01  0.9824E+00
     -0.045  0.6988E+01  0.1345E+01
      0.007  0.8901E+01  0.1808E+01
      0.059  0.1123E+02  0.2391E+01
      0.110  0.1365E+02  0.3100E+01
      0.162  0.1432E+02  0.3843E+01
      0.214  0.1163E+02  0.4447E+01
      0.266  0.1009E+02  0.4971E+01
      0.318  0.1442E+02  0.5720E+01
      0.370  0.2045E+02  0.6782E+01
      0.422  0.2253E+02  0.7952E+01
      0.474  0.2273E+02  0.9133E+01
      0.526  0.2352E+02  0.1035E+02
      0.578  0.2246E+02  0.1152E+02
      0.630  0.2043E+02  0.1258E+02
      0.682  0.2104E+02  0.1367E+02
      0.734  0.2026E+02  0.1473E+02
      0.786  0.1437E+02  0.1547E+02
      0.838  0.8759E+01  0.1593E+02
      0.889  0.8076E+01  0.1635E+02
      0.941  0.1189E+02  0.1696E+02
      0.993  0.1921E+02  0.1796E+02
      1.045  0.2811E+02  0.1942E+02
      1.097  0.3340E+02  0.2116E+02
      1.149  0.3298E+02  0.2287E+02
      1.201  0.2864E+02  0.2436E+02
      1.253  0.2265E+02  0.2553E+02
      1.305  0.1945E+02  0.2654E+02
      1.357  0.2184E+02  0.2768E+02
      1.409  0.2735E+02  0.2910E+02
      1.461  0.3039E+02  0.3067E+02
      1.513  0.2980E+02  0.3222E+02
      1.565  0.2936E+02  0.3375E+02
      1.617  0.3046E+02  0.3533E+02
      1.668  0.3114E+02  0.3695E+02
      1.720  0.3214E+02  0.3861E+02
      1.772  0.3518E+02  0.4044E+02
      1.824  0.3927E+02  0.4248E+02
      1.876  0.4582E+02  0.4486E+02
      1.928  0.5503E+02  0.4772E+02
      1.980  0.5935E+02  0.5080E+02
      2.032  0.5444E+02  0.5363E+02
      2.084  0.5057E+02  0.5625E+02
      2.136  0.6250E+02  0.5950E+02
      2.188  0.8807E+02  0.6407E+02
      2.240  0.1095E+03  0.6976E+02
      2.292  0.1200E+03  0.7599E+02
      2.344  0.1260E+03  0.8254E+02
      2.395  0.1318E+03  0.8938E+02
      2.447  0.1380E+03  0.9655E+02
      2.499  0.1480E+03  0.1042E+03
      2.551  0.1654E+03  0.1128E+03
      2.603  0.1836E+03  0.1224E+03
      2.655  0.1953E+03  0.1325E+03
      2.707  0.2075E+03  0.1433E+03
      2.759  0.2245E+03  0.1549E+03
      2.811  0.2306E+03  0.1669E+03
      2.863  0.2242E+03  0.1786E+03
      2.915  0.2283E+03  0.1904E+03
      2.967  0.2462E+03  0.2032E+03
      3.019  0.2584E+03  0.2166E+03
      3.071  0.2601E+03  0.2301E+03
      3.123  0.2606E+03  0.2437E+03
      3.174  0.2643E+03  0.2574E+03
      3.226  0.2738E+03  0.2716E+03
      3.278  0.2893E+03  0.2866E+03
      3.330  0.3089E+03  0.3027E+03
      3.382  0.3254E+03  0.3196E+03
      3.434  0.3310E+03  0.3368E+03
      3.486  0.3276E+03  0.3538E+03
      3.538  0.3212E+03  0.3705E+03
      3.590  0.3182E+03  0.3870E+03
      3.642  0.3163E+03  0.4034E+03
      3.694  0.3106E+03  0.4195E+03
      3.746  0.3048E+03  0.4354E+03
      3.798  0.3008E+03  0.4510E+03
      3.850  0.2965E+03  0.4664E+03
      3.902  0.2931E+03  0.4816E+03
      3.953  0.2878E+03  0.4966E+03
      4.005  0.2749E+03  0.5108E+03
      4.057  0.2662E+03  0.5247E+03
      4.109  0.2769E+03  0.5390E+03
      4.161  0.2954E+03  0.5544E+03
      4.213  0.3030E+03  0.5701E+03
      4.265  0.3055E+03  0.5860E+03
      4.317  0.3128E+03  0.6022E+03
      4.369  0.3191E+03  0.6188E+03
      4.421  0.3214E+03  0.6355E+03
      4.473  0.3238E+03  0.6523E+03
      4.525  0.3206E+03  0.6689E+03
      4.577  0.3085E+03  0.6850E+03
      4.629  0.2964E+03  0.7004E+03
      4.681  0.2936E+03  0.7156E+03
      4.732  0.2988E+03  0.7311E+03
      4.784  0.3067E+03  0.7471E+03
      4.836  0.3191E+03  0.7636E+03
      4.888  0.3324E+03  0.7809E+03
      4.940  0.3382E+03  0.7985E+03
      4.992  0.3463E+03  0.8164E+03
      5.044  0.3595E+03  0.8351E+03
      5.096  0.3661E+03  0.8541E+03
      5.148  0.3639E+03  0.8730E+03
      5.200  0.3536E+03  0.8914E+03
      5.252  0.3318E+03  0.9086E+03
      5.304  0.2985E+03  0.9241E+03
      5.356  0.2569E+03  0.9375E+03
      5.408  0.2139E+03  0.9486E+03
      5.460  0.1817E+03  0.9580E+03
      5.511  0.1728E+03  0.9670E+03
      5.563  0.1923E+03  0.9770E+03
      5.615  0.2322E+03  0.9890E+03
      5.667  0.2813E+03  0.1004E+04
      5.719  0.3310E+03  0.1021E+04
      5.771  0.3716E+03  0.1040E+04
      5.823  0.3975E+03  0.1061E+04
      5.875  0.4118E+03  0.1082E+04
      5.927  0.4202E+03  0.1104E+04
      5.979  0.4263E+03  0.1126E+04
      6.031  0.4276E+03  0.1148E+04
      6.083  0.4139E+03  0.1170E+04
      6.135  0.3892E+03  0.1190E+04
      6.187  0.3703E+03  0.1209E+04
      6.238  0.3603E+03  0.1228E+04
      6.290  0.3549E+03  0.1246E+04
      6.342  0.3572E+03  0.1265E+04
      6.394  0.3711E+03  0.1284E+04
      6.446  0.3826E+03  0.1304E+04
      6.498  0.3844E+03  0.1324E+04
      6.550  0.3933E+03  0.1344E+04
      6.602  0.4121E+03  0.1366E+04
      6.654  0.4251E+03  0.1388E+04
      6.706  0.4282E+03  0.1410E+04
      6.758  0.4242E+03  0.1432E+04
      6.810  0.4109E+03  0.1454E+04
      6.862  0.3894E+03  0.1474E+04
      6.914  0.3721E+03  0.1493E+04
      6.966  0.3662E+03  0.1512E+04
      7.017  0.3635E+03  0.1531E+04
      7.069  0.3700E+03  0.1550E+04
      7.121  0.3949E+03  0.1571E+04
      7.173  0.4166E+03  0.1592E+04
      7.225  0.4225E+03  0.1614E+04
      7.277  0.4220E+03  0.1636E+04
      7.329  0.4109E+03  0.1658E+04
      7.381  0.3839E+03  0.1677E+04
      7.433  0.3557E+03  0.1696E+04
      7.485  0.3388E+03  0.1714E+04
      7.537  0.3321E+03  0.1731E+04
      7.589  0.3277E+03  0.1748E+04
      7.641  0.3144E+03  0.1764E+04
      7.693  0.2927E+03  0.1779E+04
      7.745  0.2758E+03  0.1794E+04
      7.796  0.2680E+03  0.1808E+04
      7.848  0.2630E+03  0.1821E+04
      7.900  0.2564E+03  0.1835E+04
      7.952  0.2471E+03  0.1847E+04
      8.004  0.2426E+03  0.1860E+04
      8.056  0.2431E+03  0.1873E+04
      8.108  0.2382E+03  0.1885E+04
      8.160  0.2305E+03  0.1897E+04
      8.212  0.2293E+03  0.1909E+04
      8.264  0.2342E+03  0.1921E+04
      8.316  0.2382E+03  0.1933E+04
      8.368  0.2391E+03  0.1946E+04
      8.420  0.2360E+03  0.1958E+04
      8.472  0.2271E+03  0.1970E+04
      8.524  0.2172E+03  0.1981E+04
      8.575  0.2115E+03  0.1992E+04
      8.627  0.2062E+03  0.2003E+04
      8.679  0.1986E+03  0.2013E+04
      8.731  0.1901E+03  0.2023E+04
      8.783  0.1822E+03  0.2032E+04
      8.835  0.1798E+03  0.2042E+04
      8.887  0.1912E+03  0.2052E+04
      8.939  0.2175E+03  0.2063E+04
      8.991  0.2371E+03  0.2075E+04
      9.043  0.2348E+03  0.2088E+04
      9.095  0.2209E+03  0.2099E+04
      9.147  0.2034E+03  0.2110E+04
      9.199  0.1845E+03  0.2119E+04
      9.251  0.1800E+03  0.2128E+04
      9.302  0.2024E+03  0.2139E+04
      9.354  0.2323E+03  0.2151E+04
      9.406  0.2435E+03  0.2164E+04
      9.458  0.2430E+03  0.2176E+04
      9.510  0.2453E+03  0.2189E+04
      9.562  0.2440E+03  0.2202E+04
      9.614  0.2487E+03  0.2215E+04
      9.666  0.2816E+03  0.2229E+04
      9.718  0.3229E+03  0.2246E+04
      9.770  0.3351E+03  0.2263E+04
      9.822  0.3242E+03  0.2280E+04
      9.874  0.3159E+03  0.2297E+04
      9.926  0.3158E+03  0.2313E+04
      9.978  0.3240E+03  0.2330E+04
     10.030  0.3486E+03  0.2348E+04
     10.081  0.3867E+03  0.2368E+04
     10.133  0.4170E+03  0.2390E+04
     10.185  0.4298E+03  0.2412E+04
     10.237  0.4377E+03  0.2435E+04
     10.289  0.4515E+03  0.2458E+04
     10.341  0.4708E+03  0.2483E+04
     10.393  0.4890E+03  0.2508E+04
     10.445  0.4977E+03  0.2534E+04
     10.497  0.4853E+03  0.2559E+04
     10.549  0.4422E+03  0.2582E+04
     10.601  0.3790E+03  0.2602E+04
     10.653  0.3075E+03  0.2618E+04
     10.705  0.2197E+03  0.2629E+04
     10.757  0.1192E+03  0.2635E+04
     10.809  0.3831E+02  0.2637E+04
     10.860  0.8337E+00  0.2637E+04
     10.912 -0.4892E+01  0.2637E+04
     10.964 -0.2134E+01  0.2637E+04
     11.016 -0.4782E+00  0.2637E+04
     11.068 -0.6826E-01  0.2637E+04
     11.120 -0.6513E-02  0.2637E+04
     11.172 -0.4029E-03  0.2637E+04
     11.224 -0.1538E-04  0.2637E+04
     11.276 -0.3502E-06  0.2637E+04
     11.328 -0.4673E-08  0.2637E+04
     11.380 -0.3712E-10  0.2637E+04
     11.432 -0.1640E-09  0.2637E+04
     11.484 -0.1840E-07  0.2637E+04
     11.536 -0.1180E-05  0.2637E+04
     11.588 -0.4278E-04  0.2637E+04
     11.639 -0.8627E-03  0.2637E+04
     11.691 -0.9356E-02  0.2637E+04
     11.743 -0.5016E-01  0.2637E+04
     11.795 -0.9312E-01  0.2637E+04
     11.847  0.2009E+00  0.2637E+04
     11.899  0.1134E+01  0.2637E+04
     11.951  0.1887E+01  0.2637E+04
     12.003  0.1659E+01  0.2637E+04
     12.055  0.1106E+01  0.2637E+04
     12.107  0.8204E+00  0.2637E+04
     12.159  0.8337E+00  0.2637E+04
     12.211  0.1363E+01  0.2637E+04
     12.263  0.2886E+01  0.2638E+04
     12.315  0.4413E+01  0.2638E+04
     12.366  0.4080E+01  0.2638E+04
     12.418  0.2574E+01  0.2638E+04
     12.470  0.1798E+01  0.2638E+04
     12.522  0.1833E+01  0.2638E+04
     12.574  0.2133E+01  0.2638E+04
     12.626  0.2657E+01  0.2639E+04
     12.678  0.3556E+01  0.2639E+04
     12.730  0.4193E+01  0.2639E+04
     12.782  0.3498E+01  0.2639E+04
     12.834  0.2371E+01  0.2639E+04
     12.886  0.2242E+01  0.2639E+04
     12.938  0.2333E+01  0.2640E+04
     12.990  0.1786E+01  0.2640E+04
     13.042  0.1184E+01  0.2640E+04
     13.094  0.8455E+00  0.2640E+04
     13.145  0.7434E+00  0.2640E+04
     13.197  0.9216E+00  0.2640E+04
     13.249  0.1077E+01  0.2640E+04
     13.301  0.1039E+01  0.2640E+04
     13.353  0.6669E+00  0.2640E+04
     13.405  0.1687E+00  0.2640E+04
     13.457 -0.4072E-01  0.2640E+04
     13.509 -0.3301E-01  0.2640E+04
     13.561 -0.7387E-02  0.2640E+04
     13.613 -0.7911E-03  0.2640E+04
     13.665 -0.4505E-04  0.2640E+04
     13.717 -0.1419E-05  0.2640E+04
     13.769 -0.2521E-07  0.2640E+04
     13.821 -0.2552E-09  0.2640E+04
     13.873 -0.1481E-11  0.2640E+04
     13.924 -0.5226E-14  0.2640E+04
     13.976  0.0000E+00  0.2640E+04
     14.028  0.0000E+00  0.2640E+04
     14.080  0.0000E+00  0.2640E+04
     14.132  0.0000E+00  0.2640E+04
     14.184  0.0000E+00  0.2640E+04
     14.236  0.0000E+00  0.2640E+04
     14.288  0.0000E+00  0.2640E+04
