 256 256   0   0
  0.1419206E+02  0.1537080E-08  0.1537218E-08  0.1537636E-08  0.5000000E-15
  1.000000000000000E-004
  CAR 
 Ir_Ru                                   
     12.68709175     -1.29522219  301      9.24211209      1.00000000
     -1.295  0.0000E+00  0.0000E+00
     -1.249  0.0000E+00  0.0000E+00
     -1.202  0.0000E+00  0.0000E+00
     -1.155  0.0000E+00  0.0000E+00
     -1.109 -0.2763E-28 -0.1288E-29
     -1.062 -0.4127E-25 -0.1925E-26
     -1.016 -0.3974E-22 -0.1854E-23
     -0.969 -0.2470E-19 -0.1153E-20
     -0.922 -0.9899E-17 -0.4625E-18
     -0.876 -0.2485E-14 -0.1163E-15
     -0.829 -0.4120E-12 -0.1932E-13
     -0.783 -0.4400E-10 -0.2070E-11
     -0.736 -0.3028E-08 -0.1432E-09
     -0.689 -0.1343E-06 -0.6402E-08
     -0.643 -0.3846E-05 -0.1857E-06
     -0.596 -0.7133E-04 -0.3510E-05
     -0.549 -0.8587E-03 -0.4353E-04
     -0.503 -0.6716E-02 -0.3565E-03
     -0.456 -0.3370E-01 -0.1927E-02
     -0.410 -0.1023E+00 -0.6696E-02
     -0.363 -0.1375E+00 -0.1310E-01
     -0.316  0.2266E+00 -0.2545E-02
     -0.270  0.1516E+01  0.6811E-01
     -0.223  0.3547E+01  0.2334E+00
     -0.177  0.5075E+01  0.4700E+00
     -0.130  0.5737E+01  0.7373E+00
     -0.083  0.7340E+01  0.1079E+01
     -0.037  0.1021E+02  0.1555E+01
      0.010  0.1102E+02  0.2069E+01
      0.056  0.9144E+01  0.2495E+01
      0.103  0.9399E+01  0.2933E+01
      0.150  0.1318E+02  0.3547E+01
      0.196  0.1592E+02  0.4289E+01
      0.243  0.1605E+02  0.5037E+01
      0.289  0.1675E+02  0.5818E+01
      0.336  0.1850E+02  0.6680E+01
      0.383  0.1833E+02  0.7535E+01
      0.429  0.1744E+02  0.8347E+01
      0.476  0.1983E+02  0.9272E+01
      0.522  0.2338E+02  0.1036E+02
      0.569  0.2405E+02  0.1148E+02
      0.616  0.2226E+02  0.1252E+02
      0.662  0.1869E+02  0.1339E+02
      0.709  0.1405E+02  0.1405E+02
      0.756  0.1113E+02  0.1457E+02
      0.802  0.1071E+02  0.1506E+02
      0.849  0.1114E+02  0.1558E+02
      0.895  0.1218E+02  0.1615E+02
      0.942  0.1468E+02  0.1684E+02
      0.989  0.1837E+02  0.1769E+02
      1.035  0.2292E+02  0.1876E+02
      1.082  0.2812E+02  0.2007E+02
      1.128  0.3126E+02  0.2153E+02
      1.175  0.2972E+02  0.2291E+02
      1.222  0.2589E+02  0.2412E+02
      1.268  0.2305E+02  0.2519E+02
      1.315  0.2094E+02  0.2617E+02
      1.361  0.1998E+02  0.2710E+02
      1.408  0.2157E+02  0.2811E+02
      1.455  0.2405E+02  0.2923E+02
      1.501  0.2569E+02  0.3042E+02
      1.548  0.2903E+02  0.3178E+02
      1.594  0.3513E+02  0.3341E+02
      1.641  0.3870E+02  0.3522E+02
      1.688  0.3780E+02  0.3698E+02
      1.734  0.3925E+02  0.3881E+02
      1.781  0.4554E+02  0.4093E+02
      1.827  0.4937E+02  0.4323E+02
      1.874  0.4784E+02  0.4546E+02
      1.921  0.4732E+02  0.4767E+02
      1.967  0.5094E+02  0.5004E+02
      2.014  0.5413E+02  0.5257E+02
      2.061  0.5547E+02  0.5515E+02
      2.107  0.6138E+02  0.5801E+02
      2.154  0.7459E+02  0.6149E+02
      2.200  0.8941E+02  0.6566E+02
      2.247  0.1032E+03  0.7046E+02
      2.294  0.1179E+03  0.7596E+02
      2.340  0.1311E+03  0.8207E+02
      2.387  0.1384E+03  0.8852E+02
      2.433  0.1434E+03  0.9520E+02
      2.480  0.1525E+03  0.1023E+03
      2.527  0.1610E+03  0.1098E+03
      2.573  0.1616E+03  0.1173E+03
      2.620  0.1614E+03  0.1249E+03
      2.666  0.1690E+03  0.1327E+03
      2.713  0.1785E+03  0.1411E+03
      2.760  0.1849E+03  0.1497E+03
      2.806  0.1982E+03  0.1589E+03
      2.853  0.2234E+03  0.1693E+03
      2.899  0.2478E+03  0.1809E+03
      2.946  0.2562E+03  0.1928E+03
      2.993  0.2497E+03  0.2045E+03
      3.039  0.2470E+03  0.2160E+03
      3.086  0.2624E+03  0.2282E+03
      3.133  0.2866E+03  0.2416E+03
      3.179  0.3009E+03  0.2556E+03
      3.226  0.3033E+03  0.2697E+03
      3.272  0.3046E+03  0.2839E+03
      3.319  0.3082E+03  0.2983E+03
      3.366  0.3111E+03  0.3128E+03
      3.412  0.3146E+03  0.3274E+03
      3.459  0.3219E+03  0.3425E+03
      3.505  0.3335E+03  0.3580E+03
      3.552  0.3441E+03  0.3740E+03
      3.599  0.3469E+03  0.3902E+03
      3.645  0.3449E+03  0.4063E+03
      3.692  0.3488E+03  0.4225E+03
      3.738  0.3576E+03  0.4392E+03
      3.785  0.3591E+03  0.4559E+03
      3.832  0.3520E+03  0.4723E+03
      3.878  0.3477E+03  0.4885E+03
      3.925  0.3497E+03  0.5048E+03
      3.971  0.3506E+03  0.5212E+03
      4.018  0.3413E+03  0.5371E+03
      4.065  0.3228E+03  0.5521E+03
      4.111  0.3067E+03  0.5664E+03
      4.158  0.2975E+03  0.5803E+03
      4.204  0.2872E+03  0.5937E+03
      4.251  0.2710E+03  0.6063E+03
      4.298  0.2535E+03  0.6181E+03
      4.344  0.2426E+03  0.6294E+03
      4.391  0.2453E+03  0.6409E+03
      4.438  0.2579E+03  0.6529E+03
      4.484  0.2617E+03  0.6651E+03
      4.531  0.2506E+03  0.6768E+03
      4.577  0.2477E+03  0.6883E+03
      4.624  0.2674E+03  0.7008E+03
      4.671  0.2922E+03  0.7144E+03
      4.717  0.3069E+03  0.7287E+03
      4.764  0.3137E+03  0.7433E+03
      4.810  0.3134E+03  0.7579E+03
      4.857  0.3047E+03  0.7721E+03
      4.904  0.2899E+03  0.7856E+03
      4.950  0.2785E+03  0.7986E+03
      4.997  0.2813E+03  0.8117E+03
      5.043  0.2954E+03  0.8255E+03
      5.090  0.3079E+03  0.8399E+03
      5.137  0.3091E+03  0.8543E+03
      5.183  0.2976E+03  0.8681E+03
      5.230  0.2856E+03  0.8814E+03
      5.276  0.2846E+03  0.8947E+03
      5.323  0.2905E+03  0.9082E+03
      5.370  0.2974E+03  0.9221E+03
      5.416  0.3018E+03  0.9362E+03
      5.463  0.2985E+03  0.9501E+03
      5.510  0.2887E+03  0.9635E+03
      5.556  0.2869E+03  0.9769E+03
      5.603  0.3031E+03  0.9910E+03
      5.649  0.3217E+03  0.1006E+04
      5.696  0.3252E+03  0.1021E+04
      5.743  0.3202E+03  0.1036E+04
      5.789  0.3200E+03  0.1051E+04
      5.836  0.3264E+03  0.1066E+04
      5.882  0.3369E+03  0.1082E+04
      5.929  0.3504E+03  0.1098E+04
      5.976  0.3657E+03  0.1115E+04
      6.022  0.3792E+03  0.1133E+04
      6.069  0.3856E+03  0.1151E+04
      6.115  0.3876E+03  0.1169E+04
      6.162  0.3917E+03  0.1187E+04
      6.209  0.3987E+03  0.1206E+04
      6.255  0.4098E+03  0.1225E+04
      6.302  0.4276E+03  0.1245E+04
      6.348  0.4467E+03  0.1266E+04
      6.395  0.4572E+03  0.1287E+04
      6.442  0.4570E+03  0.1308E+04
      6.488  0.4531E+03  0.1329E+04
      6.535  0.4500E+03  0.1350E+04
      6.581  0.4455E+03  0.1371E+04
      6.628  0.4389E+03  0.1392E+04
      6.675  0.4316E+03  0.1412E+04
      6.721  0.4247E+03  0.1432E+04
      6.768  0.4168E+03  0.1451E+04
      6.815  0.4011E+03  0.1470E+04
      6.861  0.3761E+03  0.1487E+04
      6.908  0.3539E+03  0.1504E+04
      6.954  0.3440E+03  0.1520E+04
      7.001  0.3390E+03  0.1536E+04
      7.048  0.3274E+03  0.1551E+04
      7.094  0.3147E+03  0.1565E+04
      7.141  0.3137E+03  0.1580E+04
      7.187  0.3195E+03  0.1595E+04
      7.234  0.3131E+03  0.1610E+04
      7.281  0.2868E+03  0.1623E+04
      7.327  0.2553E+03  0.1635E+04
      7.374  0.2401E+03  0.1646E+04
      7.420  0.2491E+03  0.1658E+04
      7.467  0.2717E+03  0.1670E+04
      7.514  0.2846E+03  0.1684E+04
      7.560  0.2761E+03  0.1696E+04
      7.607  0.2581E+03  0.1708E+04
      7.653  0.2482E+03  0.1720E+04
      7.700  0.2577E+03  0.1732E+04
      7.747  0.2836E+03  0.1745E+04
      7.793  0.3059E+03  0.1759E+04
      7.840  0.3120E+03  0.1774E+04
      7.886  0.3087E+03  0.1788E+04
      7.933  0.3029E+03  0.1803E+04
      7.980  0.2959E+03  0.1816E+04
      8.026  0.2910E+03  0.1830E+04
      8.073  0.2960E+03  0.1844E+04
      8.120  0.3095E+03  0.1858E+04
      8.166  0.3171E+03  0.1873E+04
      8.213  0.3178E+03  0.1888E+04
      8.259  0.3302E+03  0.1903E+04
      8.306  0.3542E+03  0.1920E+04
      8.353  0.3622E+03  0.1936E+04
      8.399  0.3390E+03  0.1952E+04
      8.446  0.2990E+03  0.1966E+04
      8.492  0.2663E+03  0.1979E+04
      8.539  0.2558E+03  0.1991E+04
      8.586  0.2716E+03  0.2003E+04
      8.632  0.2960E+03  0.2017E+04
      8.679  0.3000E+03  0.2031E+04
      8.725  0.2836E+03  0.2044E+04
      8.772  0.2672E+03  0.2057E+04
      8.819  0.2566E+03  0.2069E+04
      8.865  0.2488E+03  0.2080E+04
      8.912  0.2450E+03  0.2092E+04
      8.958  0.2454E+03  0.2103E+04
      9.005  0.2539E+03  0.2115E+04
      9.052  0.2740E+03  0.2128E+04
      9.098  0.2839E+03  0.2141E+04
      9.145  0.2653E+03  0.2153E+04
      9.192  0.2402E+03  0.2164E+04
      9.238  0.2280E+03  0.2175E+04
      9.285  0.2196E+03  0.2185E+04
      9.331  0.2138E+03  0.2195E+04
      9.378  0.2223E+03  0.2206E+04
      9.425  0.2431E+03  0.2217E+04
      9.471  0.2628E+03  0.2229E+04
      9.518  0.2738E+03  0.2242E+04
      9.564  0.2773E+03  0.2255E+04
      9.611  0.2761E+03  0.2268E+04
      9.658  0.2707E+03  0.2280E+04
      9.704  0.2606E+03  0.2293E+04
      9.751  0.2433E+03  0.2304E+04
      9.797  0.2238E+03  0.2314E+04
      9.844  0.2197E+03  0.2325E+04
      9.891  0.2373E+03  0.2336E+04
      9.937  0.2650E+03  0.2348E+04
      9.984  0.2961E+03  0.2362E+04
     10.030  0.3283E+03  0.2377E+04
     10.077  0.3496E+03  0.2393E+04
     10.124  0.3459E+03  0.2410E+04
     10.170  0.3232E+03  0.2425E+04
     10.217  0.3102E+03  0.2439E+04
     10.263  0.3304E+03  0.2454E+04
     10.310  0.3895E+03  0.2473E+04
     10.357  0.4688E+03  0.2494E+04
     10.403  0.5194E+03  0.2519E+04
     10.450  0.5079E+03  0.2542E+04
     10.497  0.4481E+03  0.2563E+04
     10.543  0.3714E+03  0.2580E+04
     10.590  0.3000E+03  0.2594E+04
     10.636  0.2468E+03  0.2606E+04
     10.683  0.2112E+03  0.2616E+04
     10.730  0.1795E+03  0.2624E+04
     10.776  0.1406E+03  0.2631E+04
     10.823  0.9618E+02  0.2635E+04
     10.869  0.5571E+02  0.2638E+04
     10.916  0.2667E+02  0.2639E+04
     10.963  0.9867E+01  0.2640E+04
     11.009  0.2614E+01  0.2640E+04
     11.056  0.1232E+01  0.2640E+04
     11.102  0.1758E+01  0.2640E+04
     11.149  0.1594E+01  0.2640E+04
     11.196  0.6558E+00  0.2640E+04
     11.242 -0.6855E-03  0.2640E+04
     11.289 -0.1126E+00  0.2640E+04
     11.335 -0.4808E-01  0.2640E+04
     11.382 -0.1021E-01  0.2640E+04
     11.429 -0.3421E-02  0.2640E+04
     11.475 -0.1364E-01  0.2640E+04
     11.522 -0.4310E-01  0.2640E+04
     11.569 -0.3344E-01  0.2640E+04
     11.615  0.2104E+00  0.2640E+04
     11.662  0.7286E+00  0.2640E+04
     11.708  0.1025E+01  0.2640E+04
     11.755  0.7089E+00  0.2640E+04
     11.802  0.1950E+00  0.2640E+04
     11.848 -0.3656E-01  0.2640E+04
     11.895 -0.4190E-01  0.2640E+04
     11.941 -0.1280E-01  0.2640E+04
     11.988 -0.2050E-02  0.2640E+04
     12.035 -0.1930E-03  0.2640E+04
     12.081 -0.1114E-04  0.2640E+04
     12.128 -0.4023E-06  0.2640E+04
     12.174 -0.9185E-08  0.2640E+04
     12.221 -0.1335E-09  0.2640E+04
     12.268 -0.1241E-11  0.2640E+04
     12.314 -0.7742E-14  0.2640E+04
     12.361  0.0000E+00  0.2640E+04
     12.407  0.0000E+00  0.2640E+04
     12.454  0.0000E+00  0.2640E+04
     12.501  0.0000E+00  0.2640E+04
     12.547  0.0000E+00  0.2640E+04
     12.594  0.0000E+00  0.2640E+04
     12.640  0.0000E+00  0.2640E+04
     12.687  0.0000E+00  0.2640E+04
