 256 256   0   0
  0.1418917E+02  0.1588033E-08  0.1692661E-08  0.1693229E-08  0.5000000E-15
  1.000000000000000E-004
  CAR 
 Ir_Ru                                   
     14.27099431     -1.29212266  301      9.45693334      1.00000000
     -1.292  0.0000E+00  0.0000E+00
     -1.240  0.0000E+00  0.0000E+00
     -1.188  0.0000E+00  0.0000E+00
     -1.136 -0.2775E-30 -0.1440E-31
     -1.085 -0.1269E-26 -0.6585E-28
     -1.033 -0.3374E-23 -0.1751E-24
     -0.981 -0.5211E-20 -0.2705E-21
     -0.929 -0.4671E-17 -0.2426E-18
     -0.877 -0.2369E-14 -0.1231E-15
     -0.825 -0.7057E-12 -0.3673E-13
     -0.773 -0.1219E-09 -0.6359E-11
     -0.721 -0.1211E-07 -0.6347E-09
     -0.670 -0.6899E-06 -0.3642E-07
     -0.618 -0.2240E-04 -0.1198E-05
     -0.566 -0.4113E-03 -0.2254E-04
     -0.514 -0.4233E-02 -0.2421E-03
     -0.462 -0.2415E-01 -0.1495E-02
     -0.410 -0.7492E-01 -0.5382E-02
     -0.358 -0.1022E+00 -0.1069E-01
     -0.306  0.2023E+00 -0.1884E-03
     -0.255  0.1628E+01  0.8428E-01
     -0.203  0.4384E+01  0.3117E+00
     -0.151  0.6350E+01  0.6411E+00
     -0.099  0.6424E+01  0.9744E+00
     -0.047  0.6956E+01  0.1335E+01
      0.005  0.8848E+01  0.1794E+01
      0.057  0.1117E+02  0.2374E+01
      0.109  0.1360E+02  0.3079E+01
      0.160  0.1435E+02  0.3823E+01
      0.212  0.1173E+02  0.4432E+01
      0.264  0.1007E+02  0.4954E+01
      0.316  0.1423E+02  0.5692E+01
      0.368  0.2032E+02  0.6746E+01
      0.420  0.2253E+02  0.7915E+01
      0.472  0.2272E+02  0.9093E+01
      0.524  0.2352E+02  0.1031E+02
      0.575  0.2255E+02  0.1148E+02
      0.627  0.2047E+02  0.1254E+02
      0.679  0.2102E+02  0.1363E+02
      0.731  0.2041E+02  0.1469E+02
      0.783  0.1462E+02  0.1545E+02
      0.835  0.8868E+01  0.1591E+02
      0.887  0.7977E+01  0.1633E+02
      0.939  0.1161E+02  0.1693E+02
      0.990  0.1877E+02  0.1790E+02
      1.042  0.2774E+02  0.1934E+02
      1.094  0.3335E+02  0.2107E+02
      1.146  0.3314E+02  0.2279E+02
      1.198  0.2892E+02  0.2429E+02
      1.250  0.2294E+02  0.2548E+02
      1.302  0.1950E+02  0.2649E+02
      1.354  0.2158E+02  0.2761E+02
      1.405  0.2705E+02  0.2901E+02
      1.457  0.3033E+02  0.3059E+02
      1.509  0.2988E+02  0.3214E+02
      1.561  0.2932E+02  0.3366E+02
      1.613  0.3034E+02  0.3523E+02
      1.665  0.3108E+02  0.3685E+02
      1.717  0.3198E+02  0.3850E+02
      1.769  0.3492E+02  0.4032E+02
      1.821  0.3900E+02  0.4234E+02
      1.872  0.4535E+02  0.4469E+02
      1.924  0.5450E+02  0.4752E+02
      1.976  0.5931E+02  0.5060E+02
      2.028  0.5486E+02  0.5344E+02
      2.080  0.5047E+02  0.5606E+02
      2.132  0.6118E+02  0.5923E+02
      2.184  0.8639E+02  0.6372E+02
      2.236  0.1085E+03  0.6934E+02
      2.287  0.1196E+03  0.7555E+02
      2.339  0.1256E+03  0.8206E+02
      2.391  0.1312E+03  0.8887E+02
      2.443  0.1371E+03  0.9598E+02
      2.495  0.1466E+03  0.1036E+03
      2.547  0.1638E+03  0.1121E+03
      2.599  0.1826E+03  0.1216E+03
      2.651  0.1947E+03  0.1317E+03
      2.702  0.2064E+03  0.1424E+03
      2.754  0.2233E+03  0.1539E+03
      2.806  0.2309E+03  0.1659E+03
      2.858  0.2248E+03  0.1776E+03
      2.910  0.2273E+03  0.1894E+03
      2.962  0.2446E+03  0.2021E+03
      3.014  0.2577E+03  0.2154E+03
      3.066  0.2599E+03  0.2289E+03
      3.117  0.2603E+03  0.2424E+03
      3.169  0.2637E+03  0.2561E+03
      3.221  0.2726E+03  0.2702E+03
      3.273  0.2875E+03  0.2852E+03
      3.325  0.3067E+03  0.3011E+03
      3.377  0.3240E+03  0.3179E+03
      3.429  0.3309E+03  0.3350E+03
      3.481  0.3280E+03  0.3521E+03
      3.532  0.3215E+03  0.3687E+03
      3.584  0.3182E+03  0.3852E+03
      3.636  0.3166E+03  0.4017E+03
      3.688  0.3111E+03  0.4178E+03
      3.740  0.3052E+03  0.4336E+03
      3.792  0.3012E+03  0.4493E+03
      3.844  0.2969E+03  0.4647E+03
      3.896  0.2933E+03  0.4799E+03
      3.947  0.2888E+03  0.4949E+03
      3.999  0.2767E+03  0.5092E+03
      4.051  0.2666E+03  0.5230E+03
      4.103  0.2751E+03  0.5373E+03
      4.155  0.2936E+03  0.5525E+03
      4.207  0.3025E+03  0.5682E+03
      4.259  0.3048E+03  0.5840E+03
      4.311  0.3117E+03  0.6002E+03
      4.362  0.3185E+03  0.6167E+03
      4.414  0.3211E+03  0.6334E+03
      4.466  0.3236E+03  0.6502E+03
      4.518  0.3215E+03  0.6669E+03
      4.570  0.3102E+03  0.6830E+03
      4.622  0.2976E+03  0.6984E+03
      4.674  0.2934E+03  0.7136E+03
      4.726  0.2980E+03  0.7291E+03
      4.777  0.3056E+03  0.7449E+03
      4.829  0.3173E+03  0.7614E+03
      4.881  0.3310E+03  0.7786E+03
      4.933  0.3376E+03  0.7961E+03
      4.985  0.3447E+03  0.8140E+03
      5.037  0.3577E+03  0.8325E+03
      5.089  0.3654E+03  0.8515E+03
      5.141  0.3642E+03  0.8704E+03
      5.193  0.3555E+03  0.8888E+03
      5.244  0.3357E+03  0.9062E+03
      5.296  0.3039E+03  0.9220E+03
      5.348  0.2632E+03  0.9356E+03
      5.400  0.2199E+03  0.9470E+03
      5.452  0.1855E+03  0.9567E+03
      5.504  0.1726E+03  0.9656E+03
      5.556  0.1881E+03  0.9754E+03
      5.608  0.2256E+03  0.9871E+03
      5.659  0.2737E+03  0.1001E+04
      5.711  0.3238E+03  0.1018E+04
      5.763  0.3664E+03  0.1037E+04
      5.815  0.3946E+03  0.1058E+04
      5.867  0.4102E+03  0.1079E+04
      5.919  0.4191E+03  0.1101E+04
      5.971  0.4255E+03  0.1123E+04
      6.023  0.4282E+03  0.1145E+04
      6.074  0.4170E+03  0.1167E+04
      6.126  0.3929E+03  0.1187E+04
      6.178  0.3724E+03  0.1206E+04
      6.230  0.3615E+03  0.1225E+04
      6.282  0.3556E+03  0.1243E+04
      6.334  0.3561E+03  0.1262E+04
      6.386  0.3684E+03  0.1281E+04
      6.438  0.3816E+03  0.1301E+04
      6.489  0.3843E+03  0.1321E+04
      6.541  0.3910E+03  0.1341E+04
      6.593  0.4089E+03  0.1362E+04
      6.645  0.4234E+03  0.1384E+04
      6.697  0.4281E+03  0.1406E+04
      6.749  0.4256E+03  0.1428E+04
      6.801  0.4141E+03  0.1450E+04
      6.853  0.3932E+03  0.1470E+04
      6.904  0.3741E+03  0.1490E+04
      6.956  0.3666E+03  0.1509E+04
      7.008  0.3637E+03  0.1528E+04
      7.060  0.3673E+03  0.1547E+04
      7.112  0.3899E+03  0.1567E+04
      7.164  0.4141E+03  0.1588E+04
      7.216  0.4221E+03  0.1610E+04
      7.268  0.4224E+03  0.1632E+04
      7.319  0.4142E+03  0.1654E+04
      7.371  0.3896E+03  0.1674E+04
      7.423  0.3602E+03  0.1693E+04
      7.475  0.3409E+03  0.1710E+04
      7.527  0.3329E+03  0.1728E+04
      7.579  0.3292E+03  0.1745E+04
      7.631  0.3181E+03  0.1761E+04
      7.683  0.2969E+03  0.1777E+04
      7.734  0.2781E+03  0.1791E+04
      7.786  0.2689E+03  0.1805E+04
      7.838  0.2639E+03  0.1819E+04
      7.890  0.2579E+03  0.1832E+04
      7.942  0.2489E+03  0.1845E+04
      7.994  0.2429E+03  0.1857E+04
      8.046  0.2432E+03  0.1870E+04
      8.098  0.2396E+03  0.1883E+04
      8.150  0.2316E+03  0.1895E+04
      8.201  0.2289E+03  0.1906E+04
      8.253  0.2331E+03  0.1919E+04
      8.305  0.2376E+03  0.1931E+04
      8.357  0.2391E+03  0.1943E+04
      8.409  0.2372E+03  0.1956E+04
      8.461  0.2294E+03  0.1967E+04
      8.513  0.2190E+03  0.1979E+04
      8.565  0.2123E+03  0.1990E+04
      8.616  0.2075E+03  0.2001E+04
      8.668  0.2003E+03  0.2011E+04
      8.720  0.1919E+03  0.2021E+04
      8.772  0.1836E+03  0.2030E+04
      8.824  0.1794E+03  0.2040E+04
      8.876  0.1872E+03  0.2049E+04
      8.928  0.2113E+03  0.2060E+04
      8.980  0.2347E+03  0.2073E+04
      9.031  0.2369E+03  0.2085E+04
      9.083  0.2245E+03  0.2097E+04
      9.135  0.2076E+03  0.2107E+04
      9.187  0.1881E+03  0.2117E+04
      9.239  0.1787E+03  0.2126E+04
      9.291  0.1956E+03  0.2137E+04
      9.343  0.2267E+03  0.2148E+04
      9.395  0.2426E+03  0.2161E+04
      9.446  0.2428E+03  0.2173E+04
      9.498  0.2448E+03  0.2186E+04
      9.550  0.2448E+03  0.2199E+04
      9.602  0.2457E+03  0.2212E+04
      9.654  0.2717E+03  0.2226E+04
      9.706  0.3151E+03  0.2242E+04
      9.758  0.3354E+03  0.2259E+04
      9.810  0.3272E+03  0.2276E+04
      9.861  0.3170E+03  0.2293E+04
      9.913  0.3152E+03  0.2309E+04
      9.965  0.3209E+03  0.2326E+04
     10.017  0.3411E+03  0.2344E+04
     10.069  0.3774E+03  0.2363E+04
     10.121  0.4113E+03  0.2384E+04
     10.173  0.4278E+03  0.2407E+04
     10.225  0.4356E+03  0.2429E+04
     10.276  0.4476E+03  0.2452E+04
     10.328  0.4655E+03  0.2477E+04
     10.380  0.4835E+03  0.2502E+04
     10.432  0.4940E+03  0.2527E+04
     10.484  0.4874E+03  0.2553E+04
     10.536  0.4523E+03  0.2576E+04
     10.588  0.3944E+03  0.2597E+04
     10.640  0.3280E+03  0.2614E+04
     10.691  0.2480E+03  0.2626E+04
     10.743  0.1495E+03  0.2634E+04
     10.795  0.5858E+02  0.2637E+04
     10.847  0.7257E+01  0.2638E+04
     10.899 -0.5341E+01  0.2637E+04
     10.951 -0.3108E+01  0.2637E+04
     11.003 -0.7725E+00  0.2637E+04
     11.055 -0.1121E+00  0.2637E+04
     11.106 -0.1066E-01  0.2637E+04
     11.158 -0.6949E-03  0.2637E+04
     11.210 -0.3032E-04  0.2637E+04
     11.262 -0.8388E-06  0.2637E+04
     11.314 -0.1405E-07  0.2637E+04
     11.366 -0.1391E-09  0.2637E+04
     11.418 -0.8963E-12  0.2637E+04
     11.470 -0.2242E-10  0.2637E+04
     11.522 -0.3077E-08  0.2637E+04
     11.573 -0.2429E-06  0.2637E+04
     11.625 -0.1096E-04  0.2637E+04
     11.677 -0.2793E-03  0.2637E+04
     11.729 -0.3938E-02  0.2637E+04
     11.781 -0.2926E-01  0.2637E+04
     11.833 -0.9864E-01  0.2637E+04
     11.885 -0.2764E-01  0.2637E+04
     11.937  0.7339E+00  0.2637E+04
     11.988  0.2038E+01  0.2637E+04
     12.040  0.2353E+01  0.2637E+04
     12.092  0.1253E+01  0.2637E+04
     12.144  0.4198E+00  0.2637E+04
     12.196  0.9183E+00  0.2638E+04
     12.248  0.2286E+01  0.2638E+04
     12.300  0.3550E+01  0.2638E+04
     12.352  0.3639E+01  0.2638E+04
     12.403  0.2794E+01  0.2638E+04
     12.455  0.2242E+01  0.2638E+04
     12.507  0.2048E+01  0.2638E+04
     12.559  0.2210E+01  0.2638E+04
     12.611  0.2743E+01  0.2639E+04
     12.663  0.3160E+01  0.2639E+04
     12.715  0.3536E+01  0.2639E+04
     12.767  0.3546E+01  0.2639E+04
     12.818  0.3044E+01  0.2639E+04
     12.870  0.2667E+01  0.2639E+04
     12.922  0.2292E+01  0.2640E+04
     12.974  0.1649E+01  0.2640E+04
     13.026  0.1155E+01  0.2640E+04
     13.078  0.8847E+00  0.2640E+04
     13.130  0.7452E+00  0.2640E+04
     13.182  0.9258E+00  0.2640E+04
     13.233  0.1163E+01  0.2640E+04
     13.285  0.1109E+01  0.2640E+04
     13.337  0.6689E+00  0.2640E+04
     13.389  0.1553E+00  0.2640E+04
     13.441 -0.4435E-01  0.2640E+04
     13.493 -0.3283E-01  0.2640E+04
     13.545 -0.7199E-02  0.2640E+04
     13.597 -0.7632E-03  0.2640E+04
     13.648 -0.4318E-04  0.2640E+04
     13.700 -0.1355E-05  0.2640E+04
     13.752 -0.2399E-07  0.2640E+04
     13.804 -0.2425E-09  0.2640E+04
     13.856 -0.1408E-11  0.2640E+04
     13.908 -0.4756E-14  0.2640E+04
     13.960  0.0000E+00  0.2640E+04
     14.012  0.0000E+00  0.2640E+04
     14.063  0.0000E+00  0.2640E+04
     14.115  0.0000E+00  0.2640E+04
     14.167  0.0000E+00  0.2640E+04
     14.219  0.0000E+00  0.2640E+04
     14.271  0.0000E+00  0.2640E+04
