 256 256   0   0
  0.1418917E+02  0.1588033E-08  0.1692661E-08  0.1693229E-08  0.5000000E-15
  1.000000000000000E-004
  CAR 
 Ir_Ru                                   
     14.25485802     -1.29179158  301      9.45685835      1.00000000
     -1.292  0.0000E+00  0.0000E+00
     -1.240  0.0000E+00  0.0000E+00
     -1.188  0.0000E+00  0.0000E+00
     -1.136 -0.2702E-30 -0.1400E-31
     -1.085 -0.1227E-26 -0.6361E-28
     -1.033 -0.3244E-23 -0.1682E-24
     -0.981 -0.4987E-20 -0.2586E-21
     -0.929 -0.4455E-17 -0.2311E-18
     -0.877 -0.2251E-14 -0.1169E-15
     -0.825 -0.6709E-12 -0.3488E-13
     -0.774 -0.1159E-09 -0.6039E-11
     -0.722 -0.1153E-07 -0.6035E-09
     -0.670 -0.6583E-06 -0.3472E-07
     -0.618 -0.2145E-04 -0.1146E-05
     -0.566 -0.3959E-03 -0.2167E-04
     -0.514 -0.4101E-02 -0.2342E-03
     -0.463 -0.2358E-01 -0.1456E-02
     -0.411 -0.7385E-01 -0.5283E-02
     -0.359 -0.1031E+00 -0.1063E-01
     -0.307  0.1887E+00 -0.8489E-03
     -0.255  0.1582E+01  0.8113E-01
     -0.204  0.4321E+01  0.3051E+00
     -0.152  0.6331E+01  0.6331E+00
     -0.100  0.6427E+01  0.9662E+00
     -0.048  0.6921E+01  0.1325E+01
      0.004  0.8787E+01  0.1780E+01
      0.056  0.1110E+02  0.2355E+01
      0.107  0.1354E+02  0.3057E+01
      0.159  0.1438E+02  0.3802E+01
      0.211  0.1182E+02  0.4415E+01
      0.263  0.1003E+02  0.4934E+01
      0.315  0.1401E+02  0.5661E+01
      0.367  0.2016E+02  0.6705E+01
      0.418  0.2250E+02  0.7871E+01
      0.470  0.2268E+02  0.9047E+01
      0.522  0.2348E+02  0.1026E+02
      0.574  0.2263E+02  0.1144E+02
      0.626  0.2051E+02  0.1250E+02
      0.677  0.2094E+02  0.1358E+02
      0.729  0.2053E+02  0.1465E+02
      0.781  0.1495E+02  0.1542E+02
      0.833  0.9065E+01  0.1589E+02
      0.885  0.7936E+01  0.1630E+02
      0.937  0.1140E+02  0.1689E+02
      0.988  0.1841E+02  0.1785E+02
      1.040  0.2735E+02  0.1927E+02
      1.092  0.3318E+02  0.2099E+02
      1.144  0.3324E+02  0.2271E+02
      1.196  0.2919E+02  0.2422E+02
      1.247  0.2319E+02  0.2542E+02
      1.299  0.1952E+02  0.2643E+02
      1.351  0.2136E+02  0.2754E+02
      1.403  0.2679E+02  0.2893E+02
      1.455  0.3026E+02  0.3050E+02
      1.507  0.2991E+02  0.3205E+02
      1.558  0.2930E+02  0.3357E+02
      1.610  0.3032E+02  0.3514E+02
      1.662  0.3110E+02  0.3675E+02
      1.714  0.3189E+02  0.3840E+02
      1.766  0.3470E+02  0.4020E+02
      1.818  0.3867E+02  0.4220E+02
      1.869  0.4475E+02  0.4452E+02
      1.921  0.5387E+02  0.4732E+02
      1.973  0.5932E+02  0.5039E+02
      2.025  0.5541E+02  0.5326E+02
      2.077  0.5044E+02  0.5588E+02
      2.128  0.5977E+02  0.5897E+02
      2.180  0.8437E+02  0.6334E+02
      2.232  0.1072E+03  0.6890E+02
      2.284  0.1190E+03  0.7506E+02
      2.336  0.1252E+03  0.8155E+02
      2.388  0.1309E+03  0.8834E+02
      2.439  0.1369E+03  0.9543E+02
      2.491  0.1459E+03  0.1030E+03
      2.543  0.1623E+03  0.1114E+03
      2.595  0.1812E+03  0.1208E+03
      2.647  0.1939E+03  0.1308E+03
      2.699  0.2052E+03  0.1415E+03
      2.750  0.2221E+03  0.1530E+03
      2.802  0.2309E+03  0.1650E+03
      2.854  0.2252E+03  0.1766E+03
      2.906  0.2262E+03  0.1883E+03
      2.958  0.2429E+03  0.2009E+03
      3.009  0.2571E+03  0.2143E+03
      3.061  0.2601E+03  0.2277E+03
      3.113  0.2604E+03  0.2412E+03
      3.165  0.2633E+03  0.2549E+03
      3.217  0.2714E+03  0.2689E+03
      3.269  0.2859E+03  0.2838E+03
      3.320  0.3051E+03  0.2996E+03
      3.372  0.3229E+03  0.3163E+03
      3.424  0.3308E+03  0.3334E+03
      3.476  0.3287E+03  0.3505E+03
      3.528  0.3223E+03  0.3672E+03
      3.579  0.3184E+03  0.3837E+03
      3.631  0.3169E+03  0.4001E+03
      3.683  0.3118E+03  0.4163E+03
      3.735  0.3057E+03  0.4321E+03
      3.787  0.3016E+03  0.4477E+03
      3.839  0.2974E+03  0.4631E+03
      3.890  0.2937E+03  0.4784E+03
      3.942  0.2895E+03  0.4934E+03
      3.994  0.2780E+03  0.5078E+03
      4.046  0.2668E+03  0.5216E+03
      4.098  0.2732E+03  0.5358E+03
      4.150  0.2919E+03  0.5509E+03
      4.201  0.3024E+03  0.5666E+03
      4.253  0.3048E+03  0.5824E+03
      4.305  0.3110E+03  0.5985E+03
      4.357  0.3181E+03  0.6150E+03
      4.409  0.3210E+03  0.6316E+03
      4.460  0.3234E+03  0.6483E+03
      4.512  0.3221E+03  0.6650E+03
      4.564  0.3118E+03  0.6812E+03
      4.616  0.2988E+03  0.6967E+03
      4.668  0.2934E+03  0.7119E+03
      4.720  0.2971E+03  0.7273E+03
      4.771  0.3045E+03  0.7431E+03
      4.823  0.3156E+03  0.7594E+03
      4.875  0.3296E+03  0.7765E+03
      4.927  0.3370E+03  0.7940E+03
      4.979  0.3434E+03  0.8118E+03
      5.031  0.3563E+03  0.8302E+03
      5.082  0.3652E+03  0.8491E+03
      5.134  0.3650E+03  0.8681E+03
      5.186  0.3573E+03  0.8866E+03
      5.238  0.3389E+03  0.9041E+03
      5.290  0.3084E+03  0.9201E+03
      5.341  0.2685E+03  0.9340E+03
      5.393  0.2250E+03  0.9457E+03
      5.445  0.1888E+03  0.9555E+03
      5.497  0.1726E+03  0.9644E+03
      5.549  0.1845E+03  0.9740E+03
      5.601  0.2198E+03  0.9854E+03
      5.652  0.2670E+03  0.9992E+03
      5.704  0.3173E+03  0.1016E+04
      5.756  0.3613E+03  0.1034E+04
      5.808  0.3913E+03  0.1055E+04
      5.860  0.4083E+03  0.1076E+04
      5.911  0.4178E+03  0.1097E+04
      5.963  0.4246E+03  0.1119E+04
      6.015  0.4284E+03  0.1142E+04
      6.067  0.4198E+03  0.1163E+04
      6.119  0.3966E+03  0.1184E+04
      6.171  0.3747E+03  0.1203E+04
      6.222  0.3626E+03  0.1222E+04
      6.274  0.3562E+03  0.1241E+04
      6.326  0.3553E+03  0.1259E+04
      6.378  0.3661E+03  0.1278E+04
      6.430  0.3803E+03  0.1298E+04
      6.482  0.3841E+03  0.1318E+04
      6.533  0.3890E+03  0.1338E+04
      6.585  0.4060E+03  0.1359E+04
      6.637  0.4219E+03  0.1381E+04
      6.689  0.4280E+03  0.1403E+04
      6.741  0.4267E+03  0.1425E+04
      6.792  0.4168E+03  0.1447E+04
      6.844  0.3968E+03  0.1467E+04
      6.896  0.3763E+03  0.1487E+04
      6.948  0.3674E+03  0.1506E+04
      7.000  0.3642E+03  0.1525E+04
      7.052  0.3654E+03  0.1544E+04
      7.103  0.3850E+03  0.1563E+04
      7.155  0.4110E+03  0.1585E+04
      7.207  0.4216E+03  0.1607E+04
      7.259  0.4226E+03  0.1629E+04
      7.311  0.4168E+03  0.1650E+04
      7.363  0.3948E+03  0.1671E+04
      7.414  0.3648E+03  0.1690E+04
      7.466  0.3432E+03  0.1707E+04
      7.518  0.3335E+03  0.1725E+04
      7.570  0.3299E+03  0.1742E+04
      7.622  0.3208E+03  0.1758E+04
      7.673  0.3008E+03  0.1774E+04
      7.725  0.2808E+03  0.1788E+04
      7.777  0.2702E+03  0.1802E+04
      7.829  0.2648E+03  0.1816E+04
      7.881  0.2592E+03  0.1830E+04
      7.933  0.2506E+03  0.1843E+04
      7.984  0.2434E+03  0.1855E+04
      8.036  0.2431E+03  0.1868E+04
      8.088  0.2409E+03  0.1880E+04
      8.140  0.2330E+03  0.1892E+04
      8.192  0.2288E+03  0.1904E+04
      8.243  0.2320E+03  0.1916E+04
      8.295  0.2370E+03  0.1929E+04
      8.347  0.2390E+03  0.1941E+04
      8.399  0.2380E+03  0.1953E+04
      8.451  0.2313E+03  0.1965E+04
      8.503  0.2208E+03  0.1977E+04
      8.554  0.2133E+03  0.1988E+04
      8.606  0.2085E+03  0.1999E+04
      8.658  0.2018E+03  0.2009E+04
      8.710  0.1936E+03  0.2019E+04
      8.762  0.1851E+03  0.2029E+04
      8.814  0.1797E+03  0.2038E+04
      8.865  0.1843E+03  0.2047E+04
      8.917  0.2057E+03  0.2058E+04
      8.969  0.2313E+03  0.2070E+04
      9.021  0.2380E+03  0.2082E+04
      9.073  0.2274E+03  0.2094E+04
      9.124  0.2113E+03  0.2105E+04
      9.176  0.1920E+03  0.2115E+04
      9.228  0.1788E+03  0.2124E+04
      9.280  0.1899E+03  0.2134E+04
      9.332  0.2206E+03  0.2146E+04
      9.384  0.2413E+03  0.2158E+04
      9.435  0.2432E+03  0.2171E+04
      9.487  0.2442E+03  0.2183E+04
      9.539  0.2451E+03  0.2196E+04
      9.591  0.2439E+03  0.2209E+04
      9.643  0.2635E+03  0.2222E+04
      9.695  0.3064E+03  0.2238E+04
      9.746  0.3341E+03  0.2256E+04
      9.798  0.3301E+03  0.2273E+04
      9.850  0.3185E+03  0.2289E+04
      9.902  0.3150E+03  0.2306E+04
      9.954  0.3187E+03  0.2322E+04
     10.005  0.3349E+03  0.2339E+04
     10.057  0.3686E+03  0.2359E+04
     10.109  0.4050E+03  0.2380E+04
     10.161  0.4254E+03  0.2402E+04
     10.213  0.4337E+03  0.2424E+04
     10.265  0.4442E+03  0.2447E+04
     10.316  0.4610E+03  0.2471E+04
     10.368  0.4798E+03  0.2496E+04
     10.420  0.4927E+03  0.2521E+04
     10.472  0.4911E+03  0.2547E+04
     10.524  0.4631E+03  0.2571E+04
     10.575  0.4090E+03  0.2592E+04
     10.627  0.3441E+03  0.2610E+04
     10.679  0.2684E+03  0.2624E+04
     10.731  0.1736E+03  0.2633E+04
     10.783  0.7804E+02  0.2637E+04
     10.835  0.1595E+02  0.2638E+04
     10.886 -0.4297E+01  0.2637E+04
     10.938 -0.3883E+01  0.2637E+04
     10.990 -0.1168E+01  0.2637E+04
     11.042 -0.1993E+00  0.2637E+04
     11.094 -0.2218E-01  0.2637E+04
     11.146 -0.1695E-02  0.2637E+04
     11.197 -0.8716E-04  0.2637E+04
     11.249 -0.2853E-05  0.2637E+04
     11.301 -0.5680E-07  0.2637E+04
     11.353 -0.6701E-09  0.2637E+04
     11.405 -0.4651E-11  0.2637E+04
     11.456 -0.5993E-11  0.2637E+04
     11.508 -0.9063E-09  0.2637E+04
     11.560 -0.7963E-07  0.2637E+04
     11.612 -0.4038E-05  0.2637E+04
     11.664 -0.1173E-03  0.2637E+04
     11.716 -0.1927E-02  0.2637E+04
     11.767 -0.1729E-01  0.2637E+04
     11.819 -0.7693E-01  0.2637E+04
     11.871 -0.1016E+00  0.2637E+04
     11.923  0.4028E+00  0.2637E+04
     11.975  0.1731E+01  0.2637E+04
     12.027  0.2547E+01  0.2637E+04
     12.078  0.1654E+01  0.2637E+04
     12.130  0.5651E+00  0.2637E+04
     12.182  0.7546E+00  0.2637E+04
     12.234  0.1467E+01  0.2638E+04
     12.286  0.2135E+01  0.2638E+04
     12.337  0.3262E+01  0.2638E+04
     12.389  0.4207E+01  0.2638E+04
     12.441  0.3672E+01  0.2638E+04
     12.493  0.2145E+01  0.2638E+04
     12.545  0.1480E+01  0.2638E+04
     12.597  0.2155E+01  0.2639E+04
     12.648  0.3131E+01  0.2639E+04
     12.700  0.3769E+01  0.2639E+04
     12.752  0.3643E+01  0.2639E+04
     12.804  0.2862E+01  0.2639E+04
     12.856  0.2440E+01  0.2639E+04
     12.907  0.2527E+01  0.2640E+04
     12.959  0.2149E+01  0.2640E+04
     13.011  0.1422E+01  0.2640E+04
     13.063  0.9424E+00  0.2640E+04
     13.115  0.6631E+00  0.2640E+04
     13.167  0.8319E+00  0.2640E+04
     13.218  0.1305E+01  0.2640E+04
     13.270  0.1317E+01  0.2640E+04
     13.322  0.7244E+00  0.2640E+04
     13.374  0.1373E+00  0.2640E+04
     13.426 -0.5436E-01  0.2640E+04
     13.478 -0.3403E-01  0.2640E+04
     13.529 -0.7149E-02  0.2640E+04
     13.581 -0.7428E-03  0.2640E+04
     13.633 -0.4157E-04  0.2640E+04
     13.685 -0.1295E-05  0.2640E+04
     13.737 -0.2286E-07  0.2640E+04
     13.788 -0.2307E-09  0.2640E+04
     13.840 -0.1338E-11  0.2640E+04
     13.892 -0.4761E-14  0.2640E+04
     13.944  0.0000E+00  0.2640E+04
     13.996  0.0000E+00  0.2640E+04
     14.048  0.0000E+00  0.2640E+04
     14.099  0.0000E+00  0.2640E+04
     14.151  0.0000E+00  0.2640E+04
     14.203  0.0000E+00  0.2640E+04
     14.255  0.0000E+00  0.2640E+04
