 256 256   0   0
  0.1418917E+02  0.1588033E-08  0.1692661E-08  0.1693229E-08  0.5000000E-15
  1.000000000000000E-004
  CAR 
 Ir_Ru                                   
     14.26169666     -1.29161714  301      9.45687926      1.00000000
     -1.292  0.0000E+00  0.0000E+00
     -1.240  0.0000E+00  0.0000E+00
     -1.188  0.0000E+00  0.0000E+00
     -1.136 -0.2732E-30 -0.1416E-31
     -1.084 -0.1244E-26 -0.6451E-28
     -1.032 -0.3296E-23 -0.1710E-24
     -0.981 -0.5077E-20 -0.2634E-21
     -0.929 -0.4541E-17 -0.2357E-18
     -0.877 -0.2298E-14 -0.1194E-15
     -0.825 -0.6848E-12 -0.3562E-13
     -0.773 -0.1183E-09 -0.6166E-11
     -0.721 -0.1176E-07 -0.6159E-09
     -0.669 -0.6709E-06 -0.3540E-07
     -0.618 -0.2183E-04 -0.1167E-05
     -0.566 -0.4021E-03 -0.2201E-04
     -0.514 -0.4154E-02 -0.2374E-03
     -0.462 -0.2381E-01 -0.1472E-02
     -0.410 -0.7426E-01 -0.5322E-02
     -0.358 -0.1027E+00 -0.1065E-01
     -0.307  0.1941E+00 -0.5828E-03
     -0.255  0.1600E+01  0.8236E-01
     -0.203  0.4346E+01  0.3077E+00
     -0.151  0.6338E+01  0.6363E+00
     -0.099  0.6425E+01  0.9694E+00
     -0.047  0.6932E+01  0.1329E+01
      0.004  0.8807E+01  0.1785E+01
      0.056  0.1112E+02  0.2362E+01
      0.108  0.1356E+02  0.3065E+01
      0.160  0.1437E+02  0.3810E+01
      0.212  0.1179E+02  0.4421E+01
      0.264  0.1003E+02  0.4941E+01
      0.316  0.1407E+02  0.5670E+01
      0.367  0.2020E+02  0.6717E+01
      0.419  0.2250E+02  0.7884E+01
      0.471  0.2266E+02  0.9059E+01
      0.523  0.2348E+02  0.1028E+02
      0.575  0.2260E+02  0.1145E+02
      0.627  0.2046E+02  0.1251E+02
      0.678  0.2091E+02  0.1359E+02
      0.730  0.2050E+02  0.1465E+02
      0.782  0.1490E+02  0.1543E+02
      0.834  0.9054E+01  0.1590E+02
      0.886  0.7999E+01  0.1631E+02
      0.938  0.1152E+02  0.1691E+02
      0.990  0.1859E+02  0.1787E+02
      1.041  0.2754E+02  0.1930E+02
      1.093  0.3328E+02  0.2103E+02
      1.145  0.3319E+02  0.2275E+02
      1.197  0.2904E+02  0.2425E+02
      1.249  0.2309E+02  0.2545E+02
      1.301  0.1954E+02  0.2646E+02
      1.352  0.2147E+02  0.2758E+02
      1.404  0.2693E+02  0.2897E+02
      1.456  0.3035E+02  0.3054E+02
      1.508  0.2994E+02  0.3210E+02
      1.560  0.2932E+02  0.3362E+02
      1.612  0.3031E+02  0.3519E+02
      1.664  0.3105E+02  0.3680E+02
      1.715  0.3189E+02  0.3845E+02
      1.767  0.3478E+02  0.4025E+02
      1.819  0.3880E+02  0.4227E+02
      1.871  0.4499E+02  0.4460E+02
      1.923  0.5414E+02  0.4741E+02
      1.975  0.5933E+02  0.5048E+02
      2.026  0.5516E+02  0.5334E+02
      2.078  0.5041E+02  0.5595E+02
      2.130  0.6028E+02  0.5908E+02
      2.182  0.8510E+02  0.6349E+02
      2.234  0.1076E+03  0.6907E+02
      2.286  0.1192E+03  0.7525E+02
      2.337  0.1255E+03  0.8176E+02
      2.389  0.1312E+03  0.8856E+02
      2.441  0.1372E+03  0.9568E+02
      2.493  0.1464E+03  0.1033E+03
      2.545  0.1630E+03  0.1117E+03
      2.597  0.1817E+03  0.1211E+03
      2.649  0.1942E+03  0.1312E+03
      2.700  0.2058E+03  0.1419E+03
      2.752  0.2226E+03  0.1534E+03
      2.804  0.2309E+03  0.1654E+03
      2.856  0.2250E+03  0.1771E+03
      2.908  0.2267E+03  0.1888E+03
      2.960  0.2437E+03  0.2014E+03
      3.011  0.2574E+03  0.2148E+03
      3.063  0.2601E+03  0.2283E+03
      3.115  0.2604E+03  0.2418E+03
      3.167  0.2634E+03  0.2554E+03
      3.219  0.2719E+03  0.2695E+03
      3.271  0.2867E+03  0.2844E+03
      3.323  0.3061E+03  0.3003E+03
      3.374  0.3237E+03  0.3170E+03
      3.426  0.3309E+03  0.3342E+03
      3.478  0.3284E+03  0.3512E+03
      3.530  0.3220E+03  0.3679E+03
      3.582  0.3184E+03  0.3844E+03
      3.634  0.3168E+03  0.4008E+03
      3.685  0.3114E+03  0.4170E+03
      3.737  0.3054E+03  0.4328E+03
      3.789  0.3014E+03  0.4484E+03
      3.841  0.2971E+03  0.4639E+03
      3.893  0.2935E+03  0.4791E+03
      3.945  0.2894E+03  0.4941E+03
      3.997  0.2776E+03  0.5085E+03
      4.048  0.2668E+03  0.5223E+03
      4.100  0.2740E+03  0.5365E+03
      4.152  0.2926E+03  0.5517E+03
      4.204  0.3024E+03  0.5673E+03
      4.256  0.3048E+03  0.5831E+03
      4.308  0.3112E+03  0.5993E+03
      4.359  0.3182E+03  0.6158E+03
      4.411  0.3212E+03  0.6324E+03
      4.463  0.3236E+03  0.6492E+03
      4.515  0.3217E+03  0.6659E+03
      4.567  0.3108E+03  0.6820E+03
      4.619  0.2981E+03  0.6975E+03
      4.670  0.2934E+03  0.7127E+03
      4.722  0.2975E+03  0.7281E+03
      4.774  0.3049E+03  0.7439E+03
      4.826  0.3163E+03  0.7603E+03
      4.878  0.3302E+03  0.7774E+03
      4.930  0.3373E+03  0.7949E+03
      4.982  0.3440E+03  0.8127E+03
      5.033  0.3569E+03  0.8313E+03
      5.085  0.3653E+03  0.8502E+03
      5.137  0.3648E+03  0.8691E+03
      5.189  0.3566E+03  0.8876E+03
      5.241  0.3376E+03  0.9051E+03
      5.293  0.3064E+03  0.9210E+03
      5.344  0.2662E+03  0.9348E+03
      5.396  0.2227E+03  0.9463E+03
      5.448  0.1872E+03  0.9560E+03
      5.500  0.1724E+03  0.9650E+03
      5.552  0.1859E+03  0.9746E+03
      5.604  0.2224E+03  0.9861E+03
      5.656  0.2700E+03  0.1000E+04
      5.707  0.3203E+03  0.1017E+04
      5.759  0.3636E+03  0.1036E+04
      5.811  0.3928E+03  0.1056E+04
      5.863  0.4091E+03  0.1077E+04
      5.915  0.4184E+03  0.1099E+04
      5.967  0.4251E+03  0.1121E+04
      6.018  0.4283E+03  0.1143E+04
      6.070  0.4185E+03  0.1165E+04
      6.122  0.3950E+03  0.1185E+04
      6.174  0.3738E+03  0.1205E+04
      6.226  0.3622E+03  0.1223E+04
      6.278  0.3559E+03  0.1242E+04
      6.330  0.3557E+03  0.1260E+04
      6.381  0.3672E+03  0.1279E+04
      6.433  0.3809E+03  0.1299E+04
      6.485  0.3840E+03  0.1319E+04
      6.537  0.3897E+03  0.1339E+04
      6.589  0.4074E+03  0.1360E+04
      6.641  0.4229E+03  0.1382E+04
      6.692  0.4283E+03  0.1404E+04
      6.744  0.4261E+03  0.1427E+04
      6.796  0.4154E+03  0.1448E+04
      6.848  0.3950E+03  0.1469E+04
      6.900  0.3753E+03  0.1488E+04
      6.952  0.3671E+03  0.1507E+04
      7.003  0.3641E+03  0.1526E+04
      7.055  0.3662E+03  0.1545E+04
      7.107  0.3870E+03  0.1565E+04
      7.159  0.4124E+03  0.1586E+04
      7.211  0.4219E+03  0.1608E+04
      7.263  0.4226E+03  0.1630E+04
      7.315  0.4157E+03  0.1652E+04
      7.366  0.3925E+03  0.1672E+04
      7.418  0.3627E+03  0.1691E+04
      7.470  0.3421E+03  0.1709E+04
      7.522  0.3332E+03  0.1726E+04
      7.574  0.3296E+03  0.1743E+04
      7.626  0.3196E+03  0.1760E+04
      7.677  0.2991E+03  0.1775E+04
      7.729  0.2797E+03  0.1790E+04
      7.781  0.2697E+03  0.1804E+04
      7.833  0.2645E+03  0.1817E+04
      7.885  0.2587E+03  0.1831E+04
      7.937  0.2498E+03  0.1844E+04
      7.989  0.2431E+03  0.1856E+04
      8.040  0.2432E+03  0.1869E+04
      8.092  0.2404E+03  0.1881E+04
      8.144  0.2325E+03  0.1893E+04
      8.196  0.2288E+03  0.1905E+04
      8.248  0.2324E+03  0.1917E+04
      8.300  0.2371E+03  0.1930E+04
      8.351  0.2390E+03  0.1942E+04
      8.403  0.2378E+03  0.1954E+04
      8.455  0.2305E+03  0.1966E+04
      8.507  0.2200E+03  0.1978E+04
      8.559  0.2128E+03  0.1989E+04
      8.611  0.2081E+03  0.1999E+04
      8.663  0.2011E+03  0.2010E+04
      8.714  0.1929E+03  0.2020E+04
      8.766  0.1845E+03  0.2029E+04
      8.818  0.1795E+03  0.2039E+04
      8.870  0.1854E+03  0.2048E+04
      8.922  0.2081E+03  0.2059E+04
      8.974  0.2329E+03  0.2071E+04
      9.025  0.2376E+03  0.2084E+04
      9.077  0.2261E+03  0.2095E+04
      9.129  0.2097E+03  0.2106E+04
      9.181  0.1903E+03  0.2116E+04
      9.233  0.1786E+03  0.2125E+04
      9.285  0.1923E+03  0.2135E+04
      9.336  0.2234E+03  0.2147E+04
      9.388  0.2421E+03  0.2159E+04
      9.440  0.2430E+03  0.2172E+04
      9.492  0.2443E+03  0.2185E+04
      9.544  0.2449E+03  0.2197E+04
      9.596  0.2446E+03  0.2210E+04
      9.648  0.2670E+03  0.2224E+04
      9.699  0.3104E+03  0.2240E+04
      9.751  0.3349E+03  0.2257E+04
      9.803  0.3287E+03  0.2274E+04
      9.855  0.3176E+03  0.2291E+04
      9.907  0.3150E+03  0.2307E+04
      9.959  0.3197E+03  0.2324E+04
     10.010  0.3375E+03  0.2341E+04
     10.062  0.3723E+03  0.2360E+04
     10.114  0.4078E+03  0.2382E+04
     10.166  0.4266E+03  0.2404E+04
     10.218  0.4345E+03  0.2426E+04
     10.270  0.4455E+03  0.2449E+04
     10.322  0.4629E+03  0.2473E+04
     10.373  0.4814E+03  0.2498E+04
     10.425  0.4933E+03  0.2524E+04
     10.477  0.4896E+03  0.2549E+04
     10.529  0.4586E+03  0.2573E+04
     10.581  0.4027E+03  0.2594E+04
     10.633  0.3371E+03  0.2611E+04
     10.684  0.2595E+03  0.2625E+04
     10.736  0.1628E+03  0.2633E+04
     10.788  0.6914E+02  0.2637E+04
     10.840  0.1247E+02  0.2638E+04
     10.892 -0.3895E+01  0.2637E+04
     10.944 -0.2590E+01  0.2637E+04
     10.996 -0.9979E-01  0.2637E+04
     11.047  0.3174E+00  0.2637E+04
     11.099  0.4158E-01  0.2637E+04
     11.151 -0.4858E-01  0.2637E+04
     11.203 -0.2079E-01  0.2637E+04
     11.255 -0.3484E-02  0.2637E+04
     11.307 -0.2948E-03  0.2637E+04
     11.358 -0.1353E-04  0.2637E+04
     11.410 -0.3471E-06  0.2637E+04
     11.462 -0.5104E-08  0.2637E+04
     11.514 -0.6191E-08  0.2637E+04
     11.566 -0.4305E-06  0.2637E+04
     11.618 -0.1732E-04  0.2637E+04
     11.669 -0.3965E-03  0.2637E+04
     11.721 -0.5064E-02  0.2637E+04
     11.773 -0.3433E-01  0.2637E+04
     11.825 -0.1043E+00  0.2637E+04
     11.877  0.3561E-02  0.2637E+04
     11.929  0.8529E+00  0.2637E+04
     11.981  0.2182E+01  0.2637E+04
     12.032  0.2347E+01  0.2637E+04
     12.084  0.1128E+01  0.2638E+04
     12.136  0.4602E+00  0.2638E+04
     12.188  0.1061E+01  0.2638E+04
     12.240  0.1754E+01  0.2638E+04
     12.292  0.1823E+01  0.2638E+04
     12.343  0.1925E+01  0.2638E+04
     12.395  0.2685E+01  0.2638E+04
     12.447  0.3219E+01  0.2638E+04
     12.499  0.2599E+01  0.2638E+04
     12.551  0.2000E+01  0.2638E+04
     12.603  0.2472E+01  0.2639E+04
     12.655  0.3426E+01  0.2639E+04
     12.706  0.4174E+01  0.2639E+04
     12.758  0.3786E+01  0.2639E+04
     12.810  0.2536E+01  0.2639E+04
     12.862  0.2075E+01  0.2639E+04
     12.914  0.2255E+01  0.2640E+04
     12.966  0.1938E+01  0.2640E+04
     13.017  0.1328E+01  0.2640E+04
     13.069  0.9303E+00  0.2640E+04
     13.121  0.7603E+00  0.2640E+04
     13.173  0.9336E+00  0.2640E+04
     13.225  0.1198E+01  0.2640E+04
     13.277  0.1141E+01  0.2640E+04
     13.328  0.6699E+00  0.2640E+04
     13.380  0.1484E+00  0.2640E+04
     13.432 -0.4626E-01  0.2640E+04
     13.484 -0.3271E-01  0.2640E+04
     13.536 -0.7091E-02  0.2640E+04
     13.588 -0.7472E-03  0.2640E+04
     13.640 -0.4211E-04  0.2640E+04
     13.691 -0.1318E-05  0.2640E+04
     13.743 -0.2330E-07  0.2640E+04
     13.795 -0.2354E-09  0.2640E+04
     13.847 -0.1366E-11  0.2640E+04
     13.899 -0.4759E-14  0.2640E+04
     13.951  0.0000E+00  0.2640E+04
     14.002  0.0000E+00  0.2640E+04
     14.054  0.0000E+00  0.2640E+04
     14.106  0.0000E+00  0.2640E+04
     14.158  0.0000E+00  0.2640E+04
     14.210  0.0000E+00  0.2640E+04
     14.262  0.0000E+00  0.2640E+04
