 256 256   0   0
  0.1418917E+02  0.1588033E-08  0.1692661E-08  0.1693229E-08  0.5000000E-15
  1.000000000000000E-004
  CAR 
 Ir_Ru                                   
     14.28305480     -1.29166563  301      9.45701054      1.00000000
     -1.292  0.0000E+00  0.0000E+00
     -1.240  0.0000E+00  0.0000E+00
     -1.188  0.0000E+00  0.0000E+00
     -1.136 -0.2827E-30 -0.1468E-31
     -1.084 -0.1299E-26 -0.6747E-28
     -1.032 -0.3469E-23 -0.1802E-24
     -0.980 -0.5374E-20 -0.2792E-21
     -0.928 -0.4829E-17 -0.2510E-18
     -0.876 -0.2455E-14 -0.1277E-15
     -0.824 -0.7313E-12 -0.3809E-13
     -0.773 -0.1263E-09 -0.6595E-11
     -0.721 -0.1254E-07 -0.6576E-09
     -0.669 -0.7130E-06 -0.3767E-07
     -0.617 -0.2308E-04 -0.1236E-05
     -0.565 -0.4224E-03 -0.2317E-04
     -0.513 -0.4328E-02 -0.2478E-03
     -0.461 -0.2456E-01 -0.1523E-02
     -0.409 -0.7564E-01 -0.5449E-02
     -0.357 -0.1015E+00 -0.1072E-01
     -0.305  0.2122E+00  0.2967E-03
     -0.253  0.1660E+01  0.8650E-01
     -0.201  0.4426E+01  0.3163E+00
     -0.150  0.6362E+01  0.6466E+00
     -0.098  0.6421E+01  0.9799E+00
     -0.046  0.6977E+01  0.1342E+01
      0.006  0.8884E+01  0.1803E+01
      0.058  0.1121E+02  0.2385E+01
      0.110  0.1363E+02  0.3093E+01
      0.162  0.1433E+02  0.3837E+01
      0.214  0.1166E+02  0.4442E+01
      0.266  0.1008E+02  0.4966E+01
      0.318  0.1435E+02  0.5711E+01
      0.370  0.2040E+02  0.6770E+01
      0.422  0.2252E+02  0.7939E+01
      0.473  0.2272E+02  0.9118E+01
      0.525  0.2352E+02  0.1034E+02
      0.577  0.2248E+02  0.1151E+02
      0.629  0.2040E+02  0.1257E+02
      0.681  0.2102E+02  0.1366E+02
      0.733  0.2034E+02  0.1471E+02
      0.785  0.1448E+02  0.1546E+02
      0.837  0.8802E+01  0.1592E+02
      0.889  0.8024E+01  0.1634E+02
      0.941  0.1176E+02  0.1695E+02
      0.993  0.1907E+02  0.1794E+02
      1.045  0.2805E+02  0.1939E+02
      1.096  0.3341E+02  0.2113E+02
      1.148  0.3297E+02  0.2284E+02
      1.200  0.2868E+02  0.2433E+02
      1.252  0.2276E+02  0.2551E+02
      1.304  0.1949E+02  0.2652E+02
      1.356  0.2178E+02  0.2765E+02
      1.408  0.2729E+02  0.2907E+02
      1.460  0.3036E+02  0.3065E+02
      1.512  0.2978E+02  0.3219E+02
      1.564  0.2939E+02  0.3372E+02
      1.616  0.3052E+02  0.3530E+02
      1.668  0.3114E+02  0.3692E+02
      1.719  0.3204E+02  0.3858E+02
      1.771  0.3511E+02  0.4041E+02
      1.823  0.3926E+02  0.4244E+02
      1.875  0.4572E+02  0.4482E+02
      1.927  0.5484E+02  0.4767E+02
      1.979  0.5929E+02  0.5074E+02
      2.031  0.5454E+02  0.5357E+02
      2.083  0.5053E+02  0.5620E+02
      2.135  0.6209E+02  0.5942E+02
      2.187  0.8750E+02  0.6396E+02
      2.239  0.1091E+03  0.6963E+02
      2.291  0.1199E+03  0.7585E+02
      2.342  0.1260E+03  0.8239E+02
      2.394  0.1317E+03  0.8923E+02
      2.446  0.1378E+03  0.9639E+02
      2.498  0.1476E+03  0.1041E+03
      2.550  0.1651E+03  0.1126E+03
      2.602  0.1835E+03  0.1221E+03
      2.654  0.1953E+03  0.1323E+03
      2.706  0.2072E+03  0.1430E+03
      2.758  0.2240E+03  0.1547E+03
      2.810  0.2305E+03  0.1666E+03
      2.862  0.2243E+03  0.1783E+03
      2.914  0.2281E+03  0.1901E+03
      2.965  0.2457E+03  0.2029E+03
      3.017  0.2580E+03  0.2163E+03
      3.069  0.2600E+03  0.2298E+03
      3.121  0.2607E+03  0.2433E+03
      3.173  0.2644E+03  0.2570E+03
      3.225  0.2737E+03  0.2712E+03
      3.277  0.2890E+03  0.2862E+03
      3.329  0.3083E+03  0.3022E+03
      3.381  0.3250E+03  0.3191E+03
      3.433  0.3309E+03  0.3363E+03
      3.485  0.3276E+03  0.3533E+03
      3.536  0.3211E+03  0.3700E+03
      3.588  0.3182E+03  0.3865E+03
      3.640  0.3165E+03  0.4029E+03
      3.692  0.3108E+03  0.4191E+03
      3.744  0.3049E+03  0.4349E+03
      3.796  0.3009E+03  0.4505E+03
      3.848  0.2966E+03  0.4659E+03
      3.900  0.2932E+03  0.4811E+03
      3.952  0.2882E+03  0.4961E+03
      4.004  0.2754E+03  0.5104E+03
      4.056  0.2663E+03  0.5242E+03
      4.108  0.2763E+03  0.5386E+03
      4.159  0.2947E+03  0.5539E+03
      4.211  0.3028E+03  0.5696E+03
      4.263  0.3053E+03  0.5854E+03
      4.315  0.3125E+03  0.6017E+03
      4.367  0.3190E+03  0.6182E+03
      4.419  0.3216E+03  0.6349E+03
      4.471  0.3239E+03  0.6517E+03
      4.523  0.3207E+03  0.6684E+03
      4.575  0.3088E+03  0.6844E+03
      4.627  0.2967E+03  0.6998E+03
      4.679  0.2936E+03  0.7151E+03
      4.731  0.2986E+03  0.7306E+03
      4.782  0.3065E+03  0.7465E+03
      4.834  0.3188E+03  0.7630E+03
      4.886  0.3320E+03  0.7803E+03
      4.938  0.3380E+03  0.7978E+03
      4.990  0.3459E+03  0.8158E+03
      5.042  0.3590E+03  0.8344E+03
      5.094  0.3658E+03  0.8534E+03
      5.146  0.3639E+03  0.8723E+03
      5.198  0.3542E+03  0.8907E+03
      5.250  0.3328E+03  0.9079E+03
      5.302  0.2998E+03  0.9235E+03
      5.354  0.2585E+03  0.9369E+03
      5.405  0.2156E+03  0.9481E+03
      5.457  0.1828E+03  0.9576E+03
      5.509  0.1729E+03  0.9666E+03
      5.561  0.1913E+03  0.9765E+03
      5.613  0.2305E+03  0.9885E+03
      5.665  0.2792E+03  0.1003E+04
      5.717  0.3290E+03  0.1020E+04
      5.769  0.3701E+03  0.1039E+04
      5.821  0.3966E+03  0.1060E+04
      5.873  0.4110E+03  0.1081E+04
      5.925  0.4195E+03  0.1103E+04
      5.977  0.4261E+03  0.1125E+04
      6.028  0.4279E+03  0.1147E+04
      6.080  0.4147E+03  0.1169E+04
      6.132  0.3901E+03  0.1189E+04
      6.184  0.3709E+03  0.1208E+04
      6.236  0.3607E+03  0.1227E+04
      6.288  0.3551E+03  0.1246E+04
      6.340  0.3569E+03  0.1264E+04
      6.392  0.3702E+03  0.1283E+04
      6.444  0.3823E+03  0.1303E+04
      6.496  0.3845E+03  0.1323E+04
      6.548  0.3930E+03  0.1343E+04
      6.600  0.4114E+03  0.1365E+04
      6.651  0.4246E+03  0.1387E+04
      6.703  0.4282E+03  0.1409E+04
      6.755  0.4248E+03  0.1431E+04
      6.807  0.4119E+03  0.1453E+04
      6.859  0.3903E+03  0.1473E+04
      6.911  0.3725E+03  0.1492E+04
      6.963  0.3663E+03  0.1511E+04
      7.015  0.3635E+03  0.1530E+04
      7.067  0.3691E+03  0.1549E+04
      7.119  0.3934E+03  0.1570E+04
      7.171  0.4160E+03  0.1591E+04
      7.223  0.4224E+03  0.1613E+04
      7.274  0.4221E+03  0.1635E+04
      7.326  0.4119E+03  0.1656E+04
      7.378  0.3856E+03  0.1676E+04
      7.430  0.3568E+03  0.1695E+04
      7.482  0.3392E+03  0.1713E+04
      7.534  0.3324E+03  0.1730E+04
      7.586  0.3283E+03  0.1747E+04
      7.638  0.3156E+03  0.1763E+04
      7.690  0.2938E+03  0.1779E+04
      7.742  0.2763E+03  0.1793E+04
      7.794  0.2682E+03  0.1807E+04
      7.846  0.2633E+03  0.1820E+04
      7.897  0.2569E+03  0.1834E+04
      7.949  0.2477E+03  0.1847E+04
      8.001  0.2427E+03  0.1859E+04
      8.053  0.2432E+03  0.1872E+04
      8.105  0.2386E+03  0.1884E+04
      8.157  0.2308E+03  0.1896E+04
      8.209  0.2292E+03  0.1908E+04
      8.261  0.2339E+03  0.1920E+04
      8.313  0.2379E+03  0.1933E+04
      8.365  0.2391E+03  0.1945E+04
      8.417  0.2365E+03  0.1957E+04
      8.468  0.2278E+03  0.1969E+04
      8.520  0.2177E+03  0.1980E+04
      8.572  0.2116E+03  0.1991E+04
      8.624  0.2065E+03  0.2002E+04
      8.676  0.1991E+03  0.2013E+04
      8.728  0.1906E+03  0.2022E+04
      8.780  0.1825E+03  0.2032E+04
      8.832  0.1796E+03  0.2041E+04
      8.884  0.1900E+03  0.2051E+04
      8.936  0.2157E+03  0.2062E+04
      8.988  0.2364E+03  0.2075E+04
      9.040  0.2355E+03  0.2087E+04
      9.091  0.2220E+03  0.2098E+04
      9.143  0.2046E+03  0.2109E+04
      9.195  0.1854E+03  0.2119E+04
      9.247  0.1795E+03  0.2128E+04
      9.299  0.2003E+03  0.2138E+04
      9.351  0.2307E+03  0.2150E+04
      9.403  0.2433E+03  0.2163E+04
      9.455  0.2429E+03  0.2175E+04
      9.507  0.2452E+03  0.2188E+04
      9.559  0.2441E+03  0.2201E+04
      9.611  0.2476E+03  0.2214E+04
      9.663  0.2787E+03  0.2228E+04
      9.714  0.3210E+03  0.2245E+04
      9.766  0.3355E+03  0.2262E+04
      9.818  0.3250E+03  0.2279E+04
      9.870  0.3161E+03  0.2296E+04
      9.922  0.3155E+03  0.2312E+04
      9.974  0.3230E+03  0.2329E+04
     10.026  0.3463E+03  0.2347E+04
     10.078  0.3839E+03  0.2367E+04
     10.130  0.4153E+03  0.2388E+04
     10.182  0.4293E+03  0.2410E+04
     10.234  0.4372E+03  0.2433E+04
     10.286  0.4505E+03  0.2457E+04
     10.337  0.4694E+03  0.2481E+04
     10.389  0.4879E+03  0.2506E+04
     10.441  0.4977E+03  0.2532E+04
     10.493  0.4875E+03  0.2557E+04
     10.545  0.4465E+03  0.2581E+04
     10.597  0.3843E+03  0.2601E+04
     10.649  0.3142E+03  0.2617E+04
     10.701  0.2283E+03  0.2629E+04
     10.753  0.1271E+03  0.2635E+04
     10.805  0.4208E+02  0.2637E+04
     10.857  0.9449E+00  0.2638E+04
     10.909 -0.5442E+01  0.2637E+04
     10.960 -0.1800E+01  0.2637E+04
     11.012  0.4169E+00  0.2637E+04
     11.064  0.5457E+00  0.2637E+04
     11.116  0.1171E+00  0.2637E+04
     11.168 -0.4405E-01  0.2637E+04
     11.220 -0.2588E-01  0.2637E+04
     11.272 -0.4977E-02  0.2637E+04
     11.324 -0.4693E-03  0.2637E+04
     11.376 -0.2374E-04  0.2637E+04
     11.428 -0.6678E-06  0.2637E+04
     11.480 -0.1066E-07  0.2637E+04
     11.532 -0.5961E-08  0.2637E+04
     11.583 -0.4332E-06  0.2637E+04
     11.635 -0.1816E-04  0.2637E+04
     11.687 -0.4257E-03  0.2637E+04
     11.739 -0.5431E-02  0.2637E+04
     11.791 -0.3537E-01  0.2637E+04
     11.843 -0.9425E-01  0.2637E+04
     11.895  0.6090E-01  0.2637E+04
     11.947  0.8577E+00  0.2637E+04
     11.999  0.1813E+01  0.2637E+04
     12.051  0.1860E+01  0.2637E+04
     12.103  0.1229E+01  0.2638E+04
     12.155  0.7038E+00  0.2638E+04
     12.206  0.7068E+00  0.2638E+04
     12.258  0.1552E+01  0.2638E+04
     12.310  0.3073E+01  0.2638E+04
     12.362  0.3786E+01  0.2638E+04
     12.414  0.3030E+01  0.2638E+04
     12.466  0.2156E+01  0.2638E+04
     12.518  0.1757E+01  0.2638E+04
     12.570  0.2069E+01  0.2638E+04
     12.622  0.2852E+01  0.2639E+04
     12.674  0.3549E+01  0.2639E+04
     12.726  0.4017E+01  0.2639E+04
     12.777  0.3386E+01  0.2639E+04
     12.829  0.2304E+01  0.2639E+04
     12.881  0.2259E+01  0.2639E+04
     12.933  0.2284E+01  0.2640E+04
     12.985  0.1615E+01  0.2640E+04
     13.037  0.1115E+01  0.2640E+04
     13.089  0.9579E+00  0.2640E+04
     13.141  0.8943E+00  0.2640E+04
     13.193  0.9647E+00  0.2640E+04
     13.245  0.1035E+01  0.2640E+04
     13.297  0.1005E+01  0.2640E+04
     13.349  0.6596E+00  0.2640E+04
     13.400  0.1689E+00  0.2640E+04
     13.452 -0.4016E-01  0.2640E+04
     13.504 -0.3272E-01  0.2640E+04
     13.556 -0.7314E-02  0.2640E+04
     13.608 -0.7821E-03  0.2640E+04
     13.660 -0.4447E-04  0.2640E+04
     13.712 -0.1399E-05  0.2640E+04
     13.764 -0.2484E-07  0.2640E+04
     13.816 -0.2513E-09  0.2640E+04
     13.868 -0.1458E-11  0.2640E+04
     13.920 -0.5227E-14  0.2640E+04
     13.972  0.0000E+00  0.2640E+04
     14.023  0.0000E+00  0.2640E+04
     14.075  0.0000E+00  0.2640E+04
     14.127  0.0000E+00  0.2640E+04
     14.179  0.0000E+00  0.2640E+04
     14.231  0.0000E+00  0.2640E+04
     14.283  0.0000E+00  0.2640E+04
