       N       E                     dE             d eps       ncg     rms          rms(c)
DAV:   1     0.112830109332E+05    0.11283E+05   -0.55466E+05 95400   0.810E+02
DAV:   2    -0.143891461370E+04   -0.12722E+05   -0.12145E+05 95800   0.337E+02
DAV:   3    -0.241084594073E+04   -0.97193E+03   -0.89392E+03135280   0.780E+01
DAV:   4    -0.248225933499E+04   -0.71413E+02   -0.68987E+02132000   0.209E+01
DAV:   5    -0.248511660065E+04   -0.28573E+01   -0.28012E+01140080   0.332E+00    0.779E+01
RMM:   6    -0.241638543026E+04    0.68731E+02   -0.68044E+02105881   0.245E+01    0.622E+01
RMM:   7    -0.237001313548E+04    0.46372E+02   -0.35217E+02 97761   0.172E+01    0.455E+01
RMM:   8    -0.233988068902E+04    0.30132E+02   -0.15697E+02 97685   0.114E+01    0.321E+01
RMM:   9    -0.231571682333E+04    0.24164E+02   -0.34478E+01 98796   0.531E+00    0.647E+00
RMM:  10    -0.231558240903E+04    0.13441E+00   -0.72581E+00137368   0.147E+00    0.408E+00
RMM:  11    -0.231535161713E+04    0.23079E+00   -0.13446E+00124121   0.701E-01    0.375E+00
RMM:  12    -0.231488642958E+04    0.46519E+00   -0.64039E-01109857   0.800E-01    0.193E+00
RMM:  13    -0.231477780531E+04    0.10862E+00   -0.24948E-01112661   0.435E-01    0.131E+00
RMM:  14    -0.231476540979E+04    0.12396E-01   -0.15534E-01114993   0.304E-01    0.153E+00
RMM:  15    -0.231472958914E+04    0.35821E-01   -0.53638E-02120501   0.143E-01    0.941E-01
RMM:  16    -0.231471577552E+04    0.13814E-01   -0.21645E-02112310   0.118E-01    0.424E-01
RMM:  17    -0.231471366346E+04    0.21121E-02   -0.13518E-02121842   0.798E-02    0.205E-01
RMM:  18    -0.231471437153E+04   -0.70807E-03   -0.78362E-03131568   0.542E-02    0.219E-01
RMM:  19    -0.231471421751E+04    0.15402E-03   -0.19749E-03135034   0.241E-02    0.204E-01
RMM:  20    -0.231471362836E+04    0.58915E-03   -0.53601E-04112752   0.180E-02    0.128E-01
RMM:  21    -0.231471328440E+04    0.34396E-03   -0.86627E-04120324   0.211E-02    0.406E-02
RMM:  22    -0.231471325232E+04    0.32074E-04   -0.26723E-04136719   0.955E-03
   1 F= -.23147133E+04 E0= -.23147209E+04  d E =0.230381E-01
