       N       E                     dE             d eps       ncg     rms          rms(c)
DAV:   1     0.112830216834E+05    0.11283E+05   -0.55466E+05 95400   0.810E+02
DAV:   2    -0.143891687280E+04   -0.12722E+05   -0.12145E+05 95800   0.337E+02
DAV:   3    -0.241092203909E+04   -0.97201E+03   -0.89403E+03135300   0.780E+01
DAV:   4    -0.248227091354E+04   -0.71349E+02   -0.68921E+02132100   0.209E+01
DAV:   5    -0.248511210960E+04   -0.28412E+01   -0.27856E+01140040   0.332E+00    0.779E+01
RMM:   6    -0.241640733619E+04    0.68705E+02   -0.68051E+02105884   0.245E+01    0.623E+01
RMM:   7    -0.236999376027E+04    0.46414E+02   -0.35221E+02 97787   0.172E+01    0.455E+01
RMM:   8    -0.233983609931E+04    0.30158E+02   -0.15701E+02 97690   0.114E+01    0.321E+01
RMM:   9    -0.231562498230E+04    0.24211E+02   -0.34481E+01 98745   0.532E+00    0.617E+00
RMM:  10    -0.231541584616E+04    0.20914E+00   -0.73777E+00136470   0.153E+00    0.346E+00
RMM:  11    -0.231526271054E+04    0.15314E+00   -0.13295E+00119991   0.818E-01    0.381E+00
RMM:  12    -0.231489881545E+04    0.36390E+00   -0.49082E-01117015   0.540E-01    0.211E+00
RMM:  13    -0.231477673975E+04    0.12208E+00   -0.25435E-01112007   0.435E-01    0.131E+00
RMM:  14    -0.231474471680E+04    0.32023E-01   -0.15106E-01111016   0.331E-01    0.129E+00
RMM:  15    -0.231472767145E+04    0.17045E-01   -0.45122E-02118807   0.140E-01    0.916E-01
RMM:  16    -0.231471456816E+04    0.13103E-01   -0.15994E-02116275   0.930E-02    0.474E-01
RMM:  17    -0.231471142199E+04    0.31462E-02   -0.13724E-02118658   0.850E-02    0.212E-01
RMM:  18    -0.231471230984E+04   -0.88785E-03   -0.94539E-03132135   0.606E-02    0.235E-01
RMM:  19    -0.231471216925E+04    0.14059E-03   -0.19334E-03137366   0.227E-02    0.224E-01
RMM:  20    -0.231471148348E+04    0.68577E-03   -0.55056E-04113036   0.180E-02    0.144E-01
RMM:  21    -0.231471105618E+04    0.42730E-03   -0.10635E-03120475   0.233E-02    0.436E-02
RMM:  22    -0.231471101953E+04    0.36649E-04   -0.33546E-04136938   0.108E-02
   1 F= -.23147110E+04 E0= -.23147187E+04  d E =0.231005E-01
