 256 256   0   0
  0.1418917E+02  0.1588033E-08  0.1692661E-08  0.1693229E-08  0.5000000E-15
  1.000000000000000E-004
  CAR 
 Ir_Ru                                   
     14.25768073     -1.29204121  301      9.45707505      1.00000000
     -1.292  0.0000E+00  0.0000E+00
     -1.240  0.0000E+00  0.0000E+00
     -1.188  0.0000E+00  0.0000E+00
     -1.137 -0.2716E-30 -0.1408E-31
     -1.085 -0.1235E-26 -0.6403E-28
     -1.033 -0.3268E-23 -0.1695E-24
     -0.981 -0.5028E-20 -0.2608E-21
     -0.929 -0.4495E-17 -0.2332E-18
     -0.877 -0.2272E-14 -0.1180E-15
     -0.826 -0.6772E-12 -0.3522E-13
     -0.774 -0.1170E-09 -0.6097E-11
     -0.722 -0.1164E-07 -0.6092E-09
     -0.670 -0.6641E-06 -0.3503E-07
     -0.618 -0.2162E-04 -0.1156E-05
     -0.566 -0.3988E-03 -0.2183E-04
     -0.515 -0.4125E-02 -0.2356E-03
     -0.463 -0.2369E-01 -0.1463E-02
     -0.411 -0.7406E-01 -0.5302E-02
     -0.359 -0.1030E+00 -0.1064E-01
     -0.307  0.1912E+00 -0.7284E-03
     -0.255  0.1591E+01  0.8171E-01
     -0.204  0.4333E+01  0.3063E+00
     -0.152  0.6334E+01  0.6347E+00
     -0.100  0.6427E+01  0.9678E+00
     -0.048  0.6927E+01  0.1327E+01
      0.004  0.8800E+01  0.1783E+01
      0.056  0.1111E+02  0.2359E+01
      0.107  0.1355E+02  0.3061E+01
      0.159  0.1437E+02  0.3806E+01
      0.211  0.1181E+02  0.4418E+01
      0.263  0.1004E+02  0.4938E+01
      0.315  0.1406E+02  0.5667E+01
      0.367  0.2019E+02  0.6714E+01
      0.418  0.2250E+02  0.7880E+01
      0.470  0.2268E+02  0.9055E+01
      0.522  0.2350E+02  0.1027E+02
      0.574  0.2261E+02  0.1145E+02
      0.626  0.2047E+02  0.1251E+02
      0.678  0.2094E+02  0.1359E+02
      0.729  0.2053E+02  0.1466E+02
      0.781  0.1491E+02  0.1543E+02
      0.833  0.9015E+01  0.1590E+02
      0.885  0.7916E+01  0.1631E+02
      0.937  0.1141E+02  0.1690E+02
      0.989  0.1846E+02  0.1785E+02
      1.040  0.2746E+02  0.1928E+02
      1.092  0.3328E+02  0.2100E+02
      1.144  0.3323E+02  0.2272E+02
      1.196  0.2910E+02  0.2423E+02
      1.248  0.2313E+02  0.2543E+02
      1.300  0.1954E+02  0.2644E+02
      1.351  0.2144E+02  0.2756E+02
      1.403  0.2689E+02  0.2895E+02
      1.455  0.3027E+02  0.3052E+02
      1.507  0.2988E+02  0.3207E+02
      1.559  0.2933E+02  0.3359E+02
      1.611  0.3037E+02  0.3516E+02
      1.662  0.3110E+02  0.3677E+02
      1.714  0.3184E+02  0.3842E+02
      1.766  0.3470E+02  0.4022E+02
      1.818  0.3881E+02  0.4223E+02
      1.870  0.4496E+02  0.4456E+02
      1.922  0.5399E+02  0.4736E+02
      1.973  0.5926E+02  0.5044E+02
      2.025  0.5526E+02  0.5330E+02
      2.077  0.5046E+02  0.5591E+02
      2.129  0.6009E+02  0.5903E+02
      2.181  0.8478E+02  0.6342E+02
      2.233  0.1074E+03  0.6899E+02
      2.284  0.1190E+03  0.7516E+02
      2.336  0.1253E+03  0.8165E+02
      2.388  0.1310E+03  0.8844E+02
      2.440  0.1368E+03  0.9553E+02
      2.492  0.1459E+03  0.1031E+03
      2.544  0.1625E+03  0.1115E+03
      2.595  0.1814E+03  0.1209E+03
      2.647  0.1939E+03  0.1310E+03
      2.699  0.2055E+03  0.1416E+03
      2.751  0.2225E+03  0.1532E+03
      2.803  0.2310E+03  0.1651E+03
      2.855  0.2251E+03  0.1768E+03
      2.906  0.2265E+03  0.1885E+03
      2.958  0.2433E+03  0.2011E+03
      3.010  0.2572E+03  0.2145E+03
      3.062  0.2599E+03  0.2279E+03
      3.114  0.2603E+03  0.2414E+03
      3.166  0.2633E+03  0.2551E+03
      3.217  0.2716E+03  0.2692E+03
      3.269  0.2862E+03  0.2840E+03
      3.321  0.3054E+03  0.2998E+03
      3.373  0.3230E+03  0.3166E+03
      3.425  0.3305E+03  0.3337E+03
      3.477  0.3283E+03  0.3507E+03
      3.528  0.3219E+03  0.3674E+03
      3.580  0.3182E+03  0.3839E+03
      3.632  0.3168E+03  0.4003E+03
      3.684  0.3118E+03  0.4165E+03
      3.736  0.3057E+03  0.4323E+03
      3.788  0.3014E+03  0.4479E+03
      3.839  0.2973E+03  0.4634E+03
      3.891  0.2936E+03  0.4786E+03
      3.943  0.2896E+03  0.4936E+03
      3.995  0.2781E+03  0.5080E+03
      4.047  0.2669E+03  0.5218E+03
      4.099  0.2736E+03  0.5360E+03
      4.150  0.2921E+03  0.5511E+03
      4.202  0.3023E+03  0.5668E+03
      4.254  0.3048E+03  0.5826E+03
      4.306  0.3111E+03  0.5987E+03
      4.358  0.3181E+03  0.6152E+03
      4.410  0.3209E+03  0.6319E+03
      4.461  0.3234E+03  0.6486E+03
      4.513  0.3222E+03  0.6653E+03
      4.565  0.3116E+03  0.6815E+03
      4.617  0.2985E+03  0.6969E+03
      4.669  0.2933E+03  0.7121E+03
      4.721  0.2972E+03  0.7276E+03
      4.772  0.3045E+03  0.7433E+03
      4.824  0.3157E+03  0.7597E+03
      4.876  0.3298E+03  0.7768E+03
      4.928  0.3370E+03  0.7943E+03
      4.980  0.3434E+03  0.8121E+03
      5.032  0.3562E+03  0.8305E+03
      5.083  0.3650E+03  0.8494E+03
      5.135  0.3647E+03  0.8683E+03
      5.187  0.3569E+03  0.8868E+03
      5.239  0.3383E+03  0.9044E+03
      5.291  0.3078E+03  0.9203E+03
      5.343  0.2680E+03  0.9342E+03
      5.394  0.2247E+03  0.9459E+03
      5.446  0.1887E+03  0.9556E+03
      5.498  0.1728E+03  0.9646E+03
      5.550  0.1850E+03  0.9742E+03
      5.602  0.2207E+03  0.9856E+03
      5.654  0.2680E+03  0.9995E+03
      5.705  0.3181E+03  0.1016E+04
      5.757  0.3618E+03  0.1035E+04
      5.809  0.3917E+03  0.1055E+04
      5.861  0.4085E+03  0.1076E+04
      5.913  0.4179E+03  0.1098E+04
      5.964  0.4248E+03  0.1120E+04
      6.016  0.4287E+03  0.1142E+04
      6.068  0.4196E+03  0.1164E+04
      6.120  0.3960E+03  0.1184E+04
      6.172  0.3744E+03  0.1204E+04
      6.224  0.3626E+03  0.1223E+04
      6.275  0.3562E+03  0.1241E+04
      6.327  0.3555E+03  0.1260E+04
      6.379  0.3666E+03  0.1279E+04
      6.431  0.3807E+03  0.1298E+04
      6.483  0.3841E+03  0.1318E+04
      6.535  0.3891E+03  0.1338E+04
      6.586  0.4063E+03  0.1359E+04
      6.638  0.4220E+03  0.1381E+04
      6.690  0.4278E+03  0.1403E+04
      6.742  0.4263E+03  0.1426E+04
      6.794  0.4163E+03  0.1447E+04
      6.846  0.3962E+03  0.1468E+04
      6.897  0.3760E+03  0.1487E+04
      6.949  0.3673E+03  0.1506E+04
      7.001  0.3643E+03  0.1525E+04
      7.053  0.3659E+03  0.1544E+04
      7.105  0.3858E+03  0.1564E+04
      7.157  0.4114E+03  0.1585E+04
      7.208  0.4217E+03  0.1607E+04
      7.260  0.4226E+03  0.1629E+04
      7.312  0.4164E+03  0.1651E+04
      7.364  0.3940E+03  0.1671E+04
      7.416  0.3640E+03  0.1690E+04
      7.468  0.3429E+03  0.1708E+04
      7.519  0.3335E+03  0.1725E+04
      7.571  0.3297E+03  0.1742E+04
      7.623  0.3203E+03  0.1759E+04
      7.675  0.3003E+03  0.1774E+04
      7.727  0.2805E+03  0.1789E+04
      7.779  0.2699E+03  0.1803E+04
      7.830  0.2646E+03  0.1817E+04
      7.882  0.2590E+03  0.1830E+04
      7.934  0.2503E+03  0.1843E+04
      7.986  0.2434E+03  0.1856E+04
      8.038  0.2432E+03  0.1868E+04
      8.090  0.2407E+03  0.1881E+04
      8.141  0.2327E+03  0.1893E+04
      8.193  0.2287E+03  0.1905E+04
      8.245  0.2321E+03  0.1917E+04
      8.297  0.2371E+03  0.1929E+04
      8.349  0.2391E+03  0.1941E+04
      8.401  0.2379E+03  0.1954E+04
      8.452  0.2311E+03  0.1966E+04
      8.504  0.2206E+03  0.1977E+04
      8.556  0.2132E+03  0.1988E+04
      8.608  0.2084E+03  0.1999E+04
      8.660  0.2015E+03  0.2009E+04
      8.712  0.1933E+03  0.2019E+04
      8.763  0.1848E+03  0.2029E+04
      8.815  0.1795E+03  0.2038E+04
      8.867  0.1847E+03  0.2048E+04
      8.919  0.2066E+03  0.2058E+04
      8.971  0.2319E+03  0.2070E+04
      9.023  0.2379E+03  0.2083E+04
      9.074  0.2269E+03  0.2095E+04
      9.126  0.2108E+03  0.2106E+04
      9.178  0.1914E+03  0.2115E+04
      9.230  0.1787E+03  0.2125E+04
      9.282  0.1908E+03  0.2135E+04
      9.334  0.2216E+03  0.2146E+04
      9.385  0.2415E+03  0.2159E+04
      9.437  0.2430E+03  0.2171E+04
      9.489  0.2442E+03  0.2184E+04
      9.541  0.2451E+03  0.2197E+04
      9.593  0.2443E+03  0.2209E+04
      9.645  0.2649E+03  0.2223E+04
      9.696  0.3079E+03  0.2239E+04
      9.748  0.3345E+03  0.2256E+04
      9.800  0.3296E+03  0.2273E+04
      9.852  0.3180E+03  0.2290E+04
      9.904  0.3149E+03  0.2306E+04
      9.956  0.3191E+03  0.2323E+04
     10.007  0.3359E+03  0.2340E+04
     10.059  0.3699E+03  0.2359E+04
     10.111  0.4061E+03  0.2380E+04
     10.163  0.4259E+03  0.2402E+04
     10.215  0.4340E+03  0.2425E+04
     10.267  0.4449E+03  0.2448E+04
     10.318  0.4623E+03  0.2472E+04
     10.370  0.4818E+03  0.2497E+04
     10.422  0.4958E+03  0.2523E+04
     10.474  0.4947E+03  0.2548E+04
     10.526  0.4654E+03  0.2572E+04
     10.578  0.4090E+03  0.2594E+04
     10.629  0.3419E+03  0.2611E+04
     10.681  0.2634E+03  0.2625E+04
     10.733  0.1658E+03  0.2634E+04
     10.785  0.7031E+02  0.2637E+04
     10.837  0.1157E+02  0.2638E+04
     10.889 -0.5285E+01  0.2637E+04
     10.940 -0.3651E+01  0.2637E+04
     10.992 -0.9710E+00  0.2637E+04
     11.044 -0.1478E+00  0.2637E+04
     11.096 -0.1478E-01  0.2637E+04
     11.148 -0.1035E-02  0.2637E+04
     11.200 -0.4963E-04  0.2637E+04
     11.251 -0.1522E-05  0.2637E+04
     11.303 -0.2831E-07  0.2637E+04
     11.355 -0.3106E-09  0.2637E+04
     11.407 -0.2003E-11  0.2637E+04
     11.459 -0.5037E-11  0.2637E+04
     11.511 -0.8044E-09  0.2637E+04
     11.562 -0.7407E-07  0.2637E+04
     11.614 -0.3902E-05  0.2637E+04
     11.666 -0.1163E-03  0.2637E+04
     11.718 -0.1926E-02  0.2637E+04
     11.770 -0.1700E-01  0.2637E+04
     11.822 -0.7167E-01  0.2637E+04
     11.873 -0.7653E-01  0.2637E+04
     11.925  0.3963E+00  0.2637E+04
     11.977  0.1474E+01  0.2637E+04
     12.029  0.2170E+01  0.2637E+04
     12.081  0.1929E+01  0.2638E+04
     12.133  0.1423E+01  0.2638E+04
     12.184  0.1065E+01  0.2638E+04
     12.236  0.1144E+01  0.2638E+04
     12.288  0.1941E+01  0.2638E+04
     12.340  0.2942E+01  0.2638E+04
     12.392  0.3367E+01  0.2638E+04
     12.444  0.2861E+01  0.2638E+04
     12.495  0.1757E+01  0.2638E+04
     12.547  0.1403E+01  0.2638E+04
     12.599  0.2234E+01  0.2639E+04
     12.651  0.3196E+01  0.2639E+04
     12.703  0.3780E+01  0.2639E+04
     12.755  0.3689E+01  0.2639E+04
     12.806  0.2985E+01  0.2639E+04
     12.858  0.2642E+01  0.2639E+04
     12.910  0.2474E+01  0.2640E+04
     12.962  0.1743E+01  0.2640E+04
     13.014  0.1123E+01  0.2640E+04
     13.066  0.9335E+00  0.2640E+04
     13.117  0.6564E+00  0.2640E+04
     13.169  0.6881E+00  0.2640E+04
     13.221  0.1321E+01  0.2640E+04
     13.273  0.1534E+01  0.2640E+04
     13.325  0.8568E+00  0.2640E+04
     13.377  0.1460E+00  0.2640E+04
     13.428 -0.6691E-01  0.2640E+04
     13.480 -0.3797E-01  0.2640E+04
     13.532 -0.7655E-02  0.2640E+04
     13.584 -0.7765E-03  0.2640E+04
     13.636 -0.4284E-04  0.2640E+04
     13.688 -0.1324E-05  0.2640E+04
     13.739 -0.2325E-07  0.2640E+04
     13.791 -0.2339E-09  0.2640E+04
     13.843 -0.1354E-11  0.2640E+04
     13.895 -0.4760E-14  0.2640E+04
     13.947  0.0000E+00  0.2640E+04
     13.999  0.0000E+00  0.2640E+04
     14.050  0.0000E+00  0.2640E+04
     14.102  0.0000E+00  0.2640E+04
     14.154  0.0000E+00  0.2640E+04
     14.206  0.0000E+00  0.2640E+04
     14.258  0.0000E+00  0.2640E+04
