 256 256   0   0
  0.1418917E+02  0.1588033E-08  0.1692661E-08  0.1693229E-08  0.5000000E-15
  1.000000000000000E-004
  CAR 
 Ir_Ru                                   
     14.28584526     -1.29189982  301      9.45686796      1.00000000
     -1.292  0.0000E+00  0.0000E+00
     -1.240  0.0000E+00  0.0000E+00
     -1.188  0.0000E+00  0.0000E+00
     -1.136 -0.2841E-30 -0.1475E-31
     -1.084 -0.1307E-26 -0.6790E-28
     -1.032 -0.3494E-23 -0.1815E-24
     -0.980 -0.5418E-20 -0.2815E-21
     -0.928 -0.4871E-17 -0.2532E-18
     -0.876 -0.2478E-14 -0.1289E-15
     -0.825 -0.7382E-12 -0.3846E-13
     -0.773 -0.1275E-09 -0.6657E-11
     -0.721 -0.1265E-07 -0.6637E-09
     -0.669 -0.7191E-06 -0.3800E-07
     -0.617 -0.2327E-04 -0.1246E-05
     -0.565 -0.4254E-03 -0.2334E-04
     -0.513 -0.4353E-02 -0.2494E-03
     -0.461 -0.2467E-01 -0.1530E-02
     -0.409 -0.7584E-01 -0.5468E-02
     -0.357 -0.1013E+00 -0.1073E-01
     -0.305  0.2148E+00  0.4251E-03
     -0.253  0.1669E+01  0.8711E-01
     -0.201  0.4438E+01  0.3176E+00
     -0.150  0.6366E+01  0.6481E+00
     -0.098  0.6421E+01  0.9815E+00
     -0.046  0.6985E+01  0.1344E+01
      0.006  0.8896E+01  0.1806E+01
      0.058  0.1122E+02  0.2389E+01
      0.110  0.1365E+02  0.3098E+01
      0.162  0.1432E+02  0.3841E+01
      0.214  0.1164E+02  0.4446E+01
      0.266  0.1009E+02  0.4970E+01
      0.318  0.1440E+02  0.5717E+01
      0.370  0.2044E+02  0.6778E+01
      0.422  0.2254E+02  0.7949E+01
      0.474  0.2275E+02  0.9130E+01
      0.526  0.2353E+02  0.1035E+02
      0.577  0.2246E+02  0.1152E+02
      0.629  0.2043E+02  0.1258E+02
      0.681  0.2105E+02  0.1367E+02
      0.733  0.2027E+02  0.1472E+02
      0.785  0.1438E+02  0.1547E+02
      0.837  0.8757E+01  0.1593E+02
      0.889  0.8054E+01  0.1634E+02
      0.941  0.1186E+02  0.1696E+02
      0.993  0.1919E+02  0.1796E+02
      1.045  0.2810E+02  0.1942E+02
      1.097  0.3337E+02  0.2115E+02
      1.149  0.3295E+02  0.2286E+02
      1.201  0.2865E+02  0.2435E+02
      1.252  0.2266E+02  0.2552E+02
      1.304  0.1944E+02  0.2653E+02
      1.356  0.2182E+02  0.2767E+02
      1.408  0.2733E+02  0.2909E+02
      1.460  0.3037E+02  0.3066E+02
      1.512  0.2978E+02  0.3221E+02
      1.564  0.2936E+02  0.3373E+02
      1.616  0.3047E+02  0.3532E+02
      1.668  0.3115E+02  0.3693E+02
      1.720  0.3211E+02  0.3860E+02
      1.772  0.3515E+02  0.4043E+02
      1.824  0.3926E+02  0.4246E+02
      1.876  0.4577E+02  0.4484E+02
      1.928  0.5495E+02  0.4769E+02
      1.979  0.5935E+02  0.5078E+02
      2.031  0.5453E+02  0.5361E+02
      2.083  0.5063E+02  0.5624E+02
      2.135  0.6241E+02  0.5948E+02
      2.187  0.8788E+02  0.6404E+02
      2.239  0.1093E+03  0.6971E+02
      2.291  0.1199E+03  0.7594E+02
      2.343  0.1260E+03  0.8248E+02
      2.395  0.1318E+03  0.8933E+02
      2.447  0.1379E+03  0.9649E+02
      2.499  0.1479E+03  0.1042E+03
      2.551  0.1653E+03  0.1128E+03
      2.603  0.1836E+03  0.1223E+03
      2.654  0.1953E+03  0.1324E+03
      2.706  0.2074E+03  0.1432E+03
      2.758  0.2244E+03  0.1548E+03
      2.810  0.2307E+03  0.1668E+03
      2.862  0.2243E+03  0.1785E+03
      2.914  0.2282E+03  0.1903E+03
      2.966  0.2459E+03  0.2031E+03
      3.018  0.2581E+03  0.2165E+03
      3.070  0.2599E+03  0.2300E+03
      3.122  0.2606E+03  0.2435E+03
      3.174  0.2643E+03  0.2572E+03
      3.226  0.2736E+03  0.2714E+03
      3.278  0.2890E+03  0.2865E+03
      3.329  0.3084E+03  0.3025E+03
      3.381  0.3250E+03  0.3193E+03
      3.433  0.3309E+03  0.3365E+03
      3.485  0.3276E+03  0.3535E+03
      3.537  0.3212E+03  0.3702E+03
      3.589  0.3182E+03  0.3867E+03
      3.641  0.3164E+03  0.4032E+03
      3.693  0.3108E+03  0.4193E+03
      3.745  0.3049E+03  0.4351E+03
      3.797  0.3009E+03  0.4508E+03
      3.849  0.2966E+03  0.4662E+03
      3.901  0.2931E+03  0.4814E+03
      3.953  0.2880E+03  0.4963E+03
      4.005  0.2753E+03  0.5106E+03
      4.056  0.2664E+03  0.5245E+03
      4.108  0.2766E+03  0.5388E+03
      4.160  0.2949E+03  0.5542E+03
      4.212  0.3028E+03  0.5699E+03
      4.264  0.3054E+03  0.5857E+03
      4.316  0.3126E+03  0.6020E+03
      4.368  0.3189E+03  0.6185E+03
      4.420  0.3213E+03  0.6352E+03
      4.472  0.3236E+03  0.6520E+03
      4.524  0.3205E+03  0.6687E+03
      4.576  0.3086E+03  0.6847E+03
      4.628  0.2966E+03  0.7001E+03
      4.680  0.2937E+03  0.7153E+03
      4.731  0.2988E+03  0.7308E+03
      4.783  0.3067E+03  0.7468E+03
      4.835  0.3190E+03  0.7633E+03
      4.887  0.3323E+03  0.7806E+03
      4.939  0.3381E+03  0.7981E+03
      4.991  0.3461E+03  0.8161E+03
      5.043  0.3593E+03  0.8348E+03
      5.095  0.3659E+03  0.8538E+03
      5.147  0.3637E+03  0.8727E+03
      5.199  0.3537E+03  0.8910E+03
      5.251  0.3322E+03  0.9083E+03
      5.303  0.2991E+03  0.9238E+03
      5.355  0.2576E+03  0.9372E+03
      5.407  0.2147E+03  0.9483E+03
      5.458  0.1823E+03  0.9578E+03
      5.510  0.1729E+03  0.9668E+03
      5.562  0.1920E+03  0.9768E+03
      5.614  0.2314E+03  0.9888E+03
      5.666  0.2802E+03  0.1003E+04
      5.718  0.3299E+03  0.1020E+04
      5.770  0.3710E+03  0.1040E+04
      5.822  0.3972E+03  0.1060E+04
      5.874  0.4116E+03  0.1082E+04
      5.926  0.4200E+03  0.1104E+04
      5.978  0.4263E+03  0.1126E+04
      6.030  0.4278E+03  0.1148E+04
      6.082  0.4145E+03  0.1169E+04
      6.133  0.3898E+03  0.1190E+04
      6.185  0.3705E+03  0.1209E+04
      6.237  0.3604E+03  0.1228E+04
      6.289  0.3549E+03  0.1246E+04
      6.341  0.3570E+03  0.1265E+04
      6.393  0.3705E+03  0.1284E+04
      6.445  0.3824E+03  0.1304E+04
      6.497  0.3845E+03  0.1324E+04
      6.549  0.3932E+03  0.1344E+04
      6.601  0.4117E+03  0.1365E+04
      6.653  0.4248E+03  0.1387E+04
      6.705  0.4282E+03  0.1410E+04
      6.757  0.4244E+03  0.1432E+04
      6.809  0.4112E+03  0.1453E+04
      6.860  0.3896E+03  0.1473E+04
      6.912  0.3723E+03  0.1493E+04
      6.964  0.3664E+03  0.1512E+04
      7.016  0.3637E+03  0.1531E+04
      7.068  0.3697E+03  0.1550E+04
      7.120  0.3942E+03  0.1570E+04
      7.172  0.4162E+03  0.1592E+04
      7.224  0.4223E+03  0.1614E+04
      7.276  0.4220E+03  0.1636E+04
      7.328  0.4115E+03  0.1657E+04
      7.380  0.3847E+03  0.1677E+04
      7.432  0.3561E+03  0.1696E+04
      7.484  0.3389E+03  0.1713E+04
      7.535  0.3323E+03  0.1730E+04
      7.587  0.3281E+03  0.1747E+04
      7.639  0.3149E+03  0.1764E+04
      7.691  0.2931E+03  0.1779E+04
      7.743  0.2759E+03  0.1793E+04
      7.795  0.2680E+03  0.1807E+04
      7.847  0.2632E+03  0.1821E+04
      7.899  0.2566E+03  0.1834E+04
      7.951  0.2473E+03  0.1847E+04
      8.003  0.2427E+03  0.1860E+04
      8.055  0.2432E+03  0.1872E+04
      8.107  0.2384E+03  0.1885E+04
      8.159  0.2306E+03  0.1897E+04
      8.211  0.2292E+03  0.1909E+04
      8.262  0.2341E+03  0.1921E+04
      8.314  0.2382E+03  0.1933E+04
      8.366  0.2391E+03  0.1945E+04
      8.418  0.2362E+03  0.1958E+04
      8.470  0.2274E+03  0.1970E+04
      8.522  0.2175E+03  0.1981E+04
      8.574  0.2117E+03  0.1992E+04
      8.626  0.2064E+03  0.2003E+04
      8.678  0.1987E+03  0.2013E+04
      8.730  0.1902E+03  0.2023E+04
      8.782  0.1823E+03  0.2032E+04
      8.834  0.1797E+03  0.2042E+04
      8.886  0.1906E+03  0.2051E+04
      8.937  0.2167E+03  0.2063E+04
      8.989  0.2369E+03  0.2075E+04
      9.041  0.2352E+03  0.2087E+04
      9.093  0.2214E+03  0.2099E+04
      9.145  0.2039E+03  0.2109E+04
      9.197  0.1848E+03  0.2119E+04
      9.249  0.1797E+03  0.2128E+04
      9.301  0.2015E+03  0.2139E+04
      9.353  0.2317E+03  0.2151E+04
      9.405  0.2434E+03  0.2163E+04
      9.457  0.2429E+03  0.2176E+04
      9.509  0.2452E+03  0.2189E+04
      9.561  0.2441E+03  0.2201E+04
      9.613  0.2483E+03  0.2214E+04
      9.664  0.2803E+03  0.2229E+04
      9.716  0.3220E+03  0.2246E+04
      9.768  0.3354E+03  0.2263E+04
      9.820  0.3246E+03  0.2280E+04
      9.872  0.3160E+03  0.2296E+04
      9.924  0.3157E+03  0.2313E+04
      9.976  0.3236E+03  0.2329E+04
     10.028  0.3476E+03  0.2347E+04
     10.080  0.3855E+03  0.2367E+04
     10.132  0.4163E+03  0.2389E+04
     10.184  0.4297E+03  0.2411E+04
     10.236  0.4377E+03  0.2434E+04
     10.288  0.4510E+03  0.2458E+04
     10.339  0.4696E+03  0.2482E+04
     10.391  0.4867E+03  0.2507E+04
     10.443  0.4945E+03  0.2533E+04
     10.495  0.4826E+03  0.2558E+04
     10.547  0.4414E+03  0.2581E+04
     10.599  0.3806E+03  0.2601E+04
     10.651  0.3121E+03  0.2617E+04
     10.703  0.2273E+03  0.2629E+04
     10.755  0.1271E+03  0.2635E+04
     10.807  0.4280E+02  0.2637E+04
     10.859  0.1530E+01  0.2638E+04
     10.911 -0.5408E+01  0.2637E+04
     10.963 -0.2376E+01  0.2637E+04
     11.015 -0.5044E+00  0.2637E+04
     11.066 -0.6584E-01  0.2637E+04
     11.118 -0.5947E-02  0.2637E+04
     11.170 -0.3808E-03  0.2637E+04
     11.222 -0.1625E-04  0.2637E+04
     11.274 -0.4296E-06  0.2637E+04
     11.326 -0.6746E-08  0.2637E+04
     11.378 -0.6176E-10  0.2637E+04
     11.430 -0.4171E-12  0.2637E+04
     11.482 -0.2148E-10  0.2637E+04
     11.534 -0.2950E-08  0.2637E+04
     11.586 -0.2339E-06  0.2637E+04
     11.638 -0.1065E-04  0.2637E+04
     11.690 -0.2754E-03  0.2637E+04
     11.741 -0.3968E-02  0.2637E+04
     11.793 -0.3036E-01  0.2637E+04
     11.845 -0.1066E+00  0.2637E+04
     11.897 -0.4179E-01  0.2637E+04
     11.949  0.7730E+00  0.2637E+04
     12.001  0.2183E+01  0.2637E+04
     12.053  0.2557E+01  0.2637E+04
     12.105  0.1653E+01  0.2637E+04
     12.157  0.8271E+00  0.2638E+04
     12.209  0.4900E+00  0.2638E+04
     12.261  0.1271E+01  0.2638E+04
     12.313  0.3110E+01  0.2638E+04
     12.365  0.3934E+01  0.2638E+04
     12.417  0.3265E+01  0.2638E+04
     12.468  0.2513E+01  0.2638E+04
     12.520  0.2221E+01  0.2638E+04
     12.572  0.2367E+01  0.2639E+04
     12.624  0.2644E+01  0.2639E+04
     12.676  0.3190E+01  0.2639E+04
     12.728  0.4002E+01  0.2639E+04
     12.780  0.3631E+01  0.2639E+04
     12.832  0.2533E+01  0.2639E+04
     12.884  0.2404E+01  0.2639E+04
     12.936  0.2363E+01  0.2640E+04
     12.988  0.1613E+01  0.2640E+04
     13.040  0.1025E+01  0.2640E+04
     13.092  0.8269E+00  0.2640E+04
     13.143  0.8175E+00  0.2640E+04
     13.195  0.9224E+00  0.2640E+04
     13.247  0.9665E+00  0.2640E+04
     13.299  0.9634E+00  0.2640E+04
     13.351  0.6594E+00  0.2640E+04
     13.403  0.1749E+00  0.2640E+04
     13.455 -0.3855E-01  0.2640E+04
     13.507 -0.3265E-01  0.2640E+04
     13.559 -0.7343E-02  0.2640E+04
     13.611 -0.7871E-03  0.2640E+04
     13.663 -0.4482E-04  0.2640E+04
     13.715 -0.1411E-05  0.2640E+04
     13.767 -0.2506E-07  0.2640E+04
     13.819 -0.2537E-09  0.2640E+04
     13.870 -0.1472E-11  0.2640E+04
     13.922 -0.5226E-14  0.2640E+04
     13.974  0.0000E+00  0.2640E+04
     14.026  0.0000E+00  0.2640E+04
     14.078  0.0000E+00  0.2640E+04
     14.130  0.0000E+00  0.2640E+04
     14.182  0.0000E+00  0.2640E+04
     14.234  0.0000E+00  0.2640E+04
     14.286  0.0000E+00  0.2640E+04
