 256 256   0   0
  0.1419206E+02  0.1537080E-08  0.1537218E-08  0.1537636E-08  0.5000000E-15
  1.000000000000000E-004
  CAR 
 Ir_Ru                                   
     12.68757591     -1.29498184  301      9.24209699      1.00000000
     -1.295  0.0000E+00  0.0000E+00
     -1.248  0.0000E+00  0.0000E+00
     -1.202  0.0000E+00  0.0000E+00
     -1.155  0.0000E+00  0.0000E+00
     -1.109 -0.2765E-28 -0.1289E-29
     -1.062 -0.4129E-25 -0.1926E-26
     -1.015 -0.3977E-22 -0.1855E-23
     -0.969 -0.2471E-19 -0.1154E-20
     -0.922 -0.9907E-17 -0.4629E-18
     -0.876 -0.2487E-14 -0.1164E-15
     -0.829 -0.4123E-12 -0.1934E-13
     -0.782 -0.4404E-10 -0.2072E-11
     -0.736 -0.3030E-08 -0.1433E-09
     -0.689 -0.1344E-06 -0.6407E-08
     -0.642 -0.3849E-05 -0.1858E-06
     -0.596 -0.7137E-04 -0.3512E-05
     -0.549 -0.8592E-03 -0.4356E-04
     -0.503 -0.6718E-02 -0.3567E-03
     -0.456 -0.3371E-01 -0.1928E-02
     -0.409 -0.1023E+00 -0.6697E-02
     -0.363 -0.1375E+00 -0.1310E-01
     -0.316  0.2268E+00 -0.2533E-02
     -0.270  0.1516E+01  0.6814E-01
     -0.223  0.3547E+01  0.2335E+00
     -0.176  0.5075E+01  0.4700E+00
     -0.130  0.5736E+01  0.7374E+00
     -0.083  0.7339E+01  0.1079E+01
     -0.037  0.1021E+02  0.1555E+01
      0.010  0.1102E+02  0.2069E+01
      0.057  0.9143E+01  0.2495E+01
      0.103  0.9397E+01  0.2933E+01
      0.150  0.1318E+02  0.3547E+01
      0.196  0.1592E+02  0.4289E+01
      0.243  0.1605E+02  0.5037E+01
      0.290  0.1674E+02  0.5817E+01
      0.336  0.1850E+02  0.6680E+01
      0.383  0.1833E+02  0.7534E+01
      0.430  0.1743E+02  0.8346E+01
      0.476  0.1982E+02  0.9270E+01
      0.523  0.2338E+02  0.1036E+02
      0.569  0.2405E+02  0.1148E+02
      0.616  0.2227E+02  0.1252E+02
      0.663  0.1870E+02  0.1339E+02
      0.709  0.1405E+02  0.1405E+02
      0.756  0.1112E+02  0.1456E+02
      0.802  0.1071E+02  0.1506E+02
      0.849  0.1114E+02  0.1558E+02
      0.896  0.1217E+02  0.1615E+02
      0.942  0.1465E+02  0.1683E+02
      0.989  0.1834E+02  0.1769E+02
      1.035  0.2289E+02  0.1875E+02
      1.082  0.2809E+02  0.2006E+02
      1.129  0.3125E+02  0.2152E+02
      1.175  0.2973E+02  0.2291E+02
      1.222  0.2590E+02  0.2411E+02
      1.268  0.2306E+02  0.2519E+02
      1.315  0.2095E+02  0.2616E+02
      1.362  0.2002E+02  0.2710E+02
      1.408  0.2162E+02  0.2810E+02
      1.455  0.2407E+02  0.2923E+02
      1.502  0.2567E+02  0.3042E+02
      1.548  0.2900E+02  0.3177E+02
      1.595  0.3514E+02  0.3341E+02
      1.641  0.3875E+02  0.3522E+02
      1.688  0.3786E+02  0.3698E+02
      1.735  0.3928E+02  0.3881E+02
      1.781  0.4553E+02  0.4094E+02
      1.828  0.4935E+02  0.4324E+02
      1.874  0.4783E+02  0.4547E+02
      1.921  0.4730E+02  0.4767E+02
      1.968  0.5090E+02  0.5004E+02
      2.014  0.5411E+02  0.5256E+02
      2.061  0.5551E+02  0.5515E+02
      2.107  0.6147E+02  0.5802E+02
      2.154  0.7468E+02  0.6150E+02
      2.201  0.8949E+02  0.6567E+02
      2.247  0.1032E+03  0.7048E+02
      2.294  0.1179E+03  0.7597E+02
      2.340  0.1311E+03  0.8208E+02
      2.387  0.1383E+03  0.8853E+02
      2.434  0.1433E+03  0.9521E+02
      2.480  0.1525E+03  0.1023E+03
      2.527  0.1610E+03  0.1098E+03
      2.574  0.1616E+03  0.1174E+03
      2.620  0.1613E+03  0.1249E+03
      2.667  0.1690E+03  0.1328E+03
      2.713  0.1785E+03  0.1411E+03
      2.760  0.1849E+03  0.1497E+03
      2.807  0.1981E+03  0.1589E+03
      2.853  0.2233E+03  0.1693E+03
      2.900  0.2478E+03  0.1809E+03
      2.946  0.2562E+03  0.1928E+03
      2.993  0.2495E+03  0.2045E+03
      3.040  0.2468E+03  0.2160E+03
      3.086  0.2625E+03  0.2282E+03
      3.133  0.2869E+03  0.2416E+03
      3.179  0.3014E+03  0.2556E+03
      3.226  0.3038E+03  0.2698E+03
      3.273  0.3051E+03  0.2840E+03
      3.319  0.3085E+03  0.2984E+03
      3.366  0.3111E+03  0.3129E+03
      3.412  0.3145E+03  0.3275E+03
      3.459  0.3218E+03  0.3425E+03
      3.506  0.3335E+03  0.3581E+03
      3.552  0.3442E+03  0.3741E+03
      3.599  0.3470E+03  0.3903E+03
      3.646  0.3449E+03  0.4064E+03
      3.692  0.3489E+03  0.4226E+03
      3.739  0.3579E+03  0.4393E+03
      3.785  0.3593E+03  0.4561E+03
      3.832  0.3522E+03  0.4725E+03
      3.879  0.3478E+03  0.4887E+03
      3.925  0.3498E+03  0.5050E+03
      3.972  0.3506E+03  0.5213E+03
      4.018  0.3412E+03  0.5372E+03
      4.065  0.3225E+03  0.5523E+03
      4.112  0.3065E+03  0.5665E+03
      4.158  0.2974E+03  0.5804E+03
      4.205  0.2871E+03  0.5938E+03
      4.251  0.2709E+03  0.6064E+03
      4.298  0.2534E+03  0.6182E+03
      4.345  0.2427E+03  0.6295E+03
      4.391  0.2454E+03  0.6410E+03
      4.438  0.2580E+03  0.6530E+03
      4.484  0.2616E+03  0.6652E+03
      4.531  0.2504E+03  0.6769E+03
      4.578  0.2478E+03  0.6884E+03
      4.624  0.2677E+03  0.7009E+03
      4.671  0.2924E+03  0.7145E+03
      4.718  0.3071E+03  0.7288E+03
      4.764  0.3138E+03  0.7435E+03
      4.811  0.3134E+03  0.7581E+03
      4.857  0.3047E+03  0.7723E+03
      4.904  0.2898E+03  0.7858E+03
      4.951  0.2783E+03  0.7987E+03
      4.997  0.2814E+03  0.8119E+03
      5.044  0.2955E+03  0.8256E+03
      5.090  0.3081E+03  0.8400E+03
      5.137  0.3091E+03  0.8544E+03
      5.184  0.2974E+03  0.8683E+03
      5.230  0.2855E+03  0.8816E+03
      5.277  0.2846E+03  0.8948E+03
      5.323  0.2906E+03  0.9084E+03
      5.370  0.2975E+03  0.9222E+03
      5.417  0.3018E+03  0.9363E+03
      5.463  0.2984E+03  0.9502E+03
      5.510  0.2885E+03  0.9637E+03
      5.556  0.2868E+03  0.9770E+03
      5.603  0.3031E+03  0.9911E+03
      5.650  0.3218E+03  0.1006E+04
      5.696  0.3253E+03  0.1021E+04
      5.743  0.3202E+03  0.1036E+04
      5.790  0.3201E+03  0.1051E+04
      5.836  0.3265E+03  0.1066E+04
      5.883  0.3370E+03  0.1082E+04
      5.929  0.3504E+03  0.1098E+04
      5.976  0.3657E+03  0.1115E+04
      6.023  0.3793E+03  0.1133E+04
      6.069  0.3856E+03  0.1151E+04
      6.116  0.3875E+03  0.1169E+04
      6.162  0.3917E+03  0.1187E+04
      6.209  0.3988E+03  0.1206E+04
      6.256  0.4100E+03  0.1225E+04
      6.302  0.4279E+03  0.1245E+04
      6.349  0.4471E+03  0.1266E+04
      6.395  0.4575E+03  0.1287E+04
      6.442  0.4570E+03  0.1309E+04
      6.489  0.4530E+03  0.1330E+04
      6.535  0.4499E+03  0.1351E+04
      6.582  0.4454E+03  0.1371E+04
      6.628  0.4389E+03  0.1392E+04
      6.675  0.4315E+03  0.1412E+04
      6.722  0.4246E+03  0.1432E+04
      6.768  0.4168E+03  0.1451E+04
      6.815  0.4010E+03  0.1470E+04
      6.862  0.3760E+03  0.1487E+04
      6.908  0.3538E+03  0.1504E+04
      6.955  0.3441E+03  0.1520E+04
      7.001  0.3390E+03  0.1536E+04
      7.048  0.3272E+03  0.1551E+04
      7.095  0.3145E+03  0.1566E+04
      7.141  0.3136E+03  0.1580E+04
      7.188  0.3194E+03  0.1595E+04
      7.234  0.3129E+03  0.1610E+04
      7.281  0.2865E+03  0.1623E+04
      7.328  0.2551E+03  0.1635E+04
      7.374  0.2401E+03  0.1646E+04
      7.421  0.2493E+03  0.1658E+04
      7.467  0.2719E+03  0.1670E+04
      7.514  0.2847E+03  0.1684E+04
      7.561  0.2760E+03  0.1697E+04
      7.607  0.2579E+03  0.1709E+04
      7.654  0.2482E+03  0.1720E+04
      7.700  0.2578E+03  0.1732E+04
      7.747  0.2838E+03  0.1745E+04
      7.794  0.3059E+03  0.1760E+04
      7.840  0.3120E+03  0.1774E+04
      7.887  0.3087E+03  0.1789E+04
      7.934  0.3029E+03  0.1803E+04
      7.980  0.2959E+03  0.1816E+04
      8.027  0.2910E+03  0.1830E+04
      8.073  0.2962E+03  0.1844E+04
      8.120  0.3097E+03  0.1858E+04
      8.167  0.3171E+03  0.1873E+04
      8.213  0.3178E+03  0.1888E+04
      8.260  0.3305E+03  0.1903E+04
      8.306  0.3544E+03  0.1920E+04
      8.353  0.3621E+03  0.1937E+04
      8.400  0.3385E+03  0.1952E+04
      8.446  0.2985E+03  0.1966E+04
      8.493  0.2661E+03  0.1979E+04
      8.539  0.2558E+03  0.1991E+04
      8.586  0.2719E+03  0.2003E+04
      8.633  0.2962E+03  0.2017E+04
      8.679  0.2998E+03  0.2031E+04
      8.726  0.2833E+03  0.2044E+04
      8.772  0.2671E+03  0.2057E+04
      8.819  0.2566E+03  0.2069E+04
      8.866  0.2488E+03  0.2080E+04
      8.912  0.2450E+03  0.2092E+04
      8.959  0.2454E+03  0.2103E+04
      9.006  0.2540E+03  0.2115E+04
      9.052  0.2741E+03  0.2128E+04
      9.099  0.2838E+03  0.2141E+04
      9.145  0.2650E+03  0.2153E+04
      9.192  0.2401E+03  0.2165E+04
      9.239  0.2279E+03  0.2175E+04
      9.285  0.2196E+03  0.2185E+04
      9.332  0.2139E+03  0.2195E+04
      9.378  0.2226E+03  0.2206E+04
      9.425  0.2433E+03  0.2217E+04
      9.472  0.2629E+03  0.2229E+04
      9.518  0.2738E+03  0.2242E+04
      9.565  0.2773E+03  0.2255E+04
      9.611  0.2761E+03  0.2268E+04
      9.658  0.2707E+03  0.2281E+04
      9.705  0.2605E+03  0.2293E+04
      9.751  0.2430E+03  0.2304E+04
      9.798  0.2237E+03  0.2314E+04
      9.844  0.2198E+03  0.2325E+04
      9.891  0.2375E+03  0.2336E+04
      9.938  0.2653E+03  0.2348E+04
      9.984  0.2964E+03  0.2362E+04
     10.031  0.3284E+03  0.2377E+04
     10.077  0.3495E+03  0.2394E+04
     10.124  0.3457E+03  0.2410E+04
     10.171  0.3230E+03  0.2425E+04
     10.217  0.3102E+03  0.2439E+04
     10.264  0.3307E+03  0.2455E+04
     10.311  0.3902E+03  0.2473E+04
     10.357  0.4694E+03  0.2495E+04
     10.404  0.5195E+03  0.2519E+04
     10.450  0.5075E+03  0.2543E+04
     10.497  0.4475E+03  0.2563E+04
     10.544  0.3707E+03  0.2581E+04
     10.590  0.2993E+03  0.2595E+04
     10.637  0.2462E+03  0.2606E+04
     10.683  0.2110E+03  0.2616E+04
     10.730  0.1794E+03  0.2624E+04
     10.777  0.1402E+03  0.2631E+04
     10.823  0.9550E+02  0.2635E+04
     10.870  0.5512E+02  0.2638E+04
     10.916  0.2636E+02  0.2639E+04
     10.963  0.9686E+01  0.2639E+04
     11.010  0.2466E+01  0.2640E+04
     11.056  0.1268E+01  0.2640E+04
     11.103  0.2003E+01  0.2640E+04
     11.149  0.1828E+01  0.2640E+04
     11.196  0.7400E+00  0.2640E+04
     11.243 -0.4701E-02  0.2640E+04
     11.289 -0.1257E+00  0.2640E+04
     11.336 -0.5258E-01  0.2640E+04
     11.383 -0.1098E-01  0.2640E+04
     11.429 -0.3674E-02  0.2640E+04
     11.476 -0.1441E-01  0.2640E+04
     11.522 -0.4406E-01  0.2640E+04
     11.569 -0.2969E-01  0.2640E+04
     11.616  0.2254E+00  0.2640E+04
     11.662  0.7452E+00  0.2640E+04
     11.709  0.1022E+01  0.2640E+04
     11.755  0.6906E+00  0.2640E+04
     11.802  0.1826E+00  0.2640E+04
     11.849 -0.3848E-01  0.2640E+04
     11.895 -0.4078E-01  0.2640E+04
     11.942 -0.1222E-01  0.2640E+04
     11.988 -0.1931E-02  0.2640E+04
     12.035 -0.1799E-03  0.2640E+04
     12.082 -0.1029E-04  0.2640E+04
     12.128 -0.3687E-06  0.2640E+04
     12.175 -0.8364E-08  0.2640E+04
     12.221 -0.1209E-09  0.2640E+04
     12.268 -0.1119E-11  0.2640E+04
     12.315 -0.6848E-14  0.2640E+04
     12.361  0.0000E+00  0.2640E+04
     12.408  0.0000E+00  0.2640E+04
     12.455  0.0000E+00  0.2640E+04
     12.501  0.0000E+00  0.2640E+04
     12.548  0.0000E+00  0.2640E+04
     12.594  0.0000E+00  0.2640E+04
     12.641  0.0000E+00  0.2640E+04
     12.688  0.0000E+00  0.2640E+04
