  32  32   0   0
  0.1419238E+02  0.9415788E-09  0.9413526E-09  0.9416526E-09  0.5000000E-15
  1.000000000000000E-004
  CAR 
 Ir_Ru                                   
     17.04395110     -1.27817654  301      9.24096464      1.00000000
     -1.278  0.0000E+00  0.0000E+00
     -1.217  0.0000E+00  0.0000E+00
     -1.156  0.0000E+00  0.0000E+00
     -1.095  0.0000E+00  0.0000E+00
     -1.034  0.0000E+00  0.0000E+00
     -0.973  0.0000E+00  0.0000E+00
     -0.912  0.0000E+00  0.0000E+00
     -0.851  0.0000E+00  0.0000E+00
     -0.790  0.0000E+00  0.0000E+00
     -0.729  0.0000E+00  0.0000E+00
     -0.667  0.0000E+00  0.0000E+00
     -0.606  0.0000E+00  0.0000E+00
     -0.545  0.0000E+00  0.0000E+00
     -0.484  0.0000E+00  0.0000E+00
     -0.423  0.0000E+00  0.0000E+00
     -0.362  0.0000E+00  0.0000E+00
     -0.301  0.0000E+00  0.0000E+00
     -0.240  0.1276E+00  0.1626E-02
     -0.179  0.6194E+00  0.2616E-01
     -0.118  0.7569E+00  0.6733E-01
     -0.057  0.9657E+00  0.1203E+00
      0.004  0.1182E+01  0.1861E+00
      0.065  0.1302E+01  0.2618E+00
      0.127  0.1478E+01  0.3466E+00
      0.188  0.1649E+01  0.4422E+00
      0.249  0.1843E+01  0.5485E+00
      0.310  0.2111E+01  0.6689E+00
      0.371  0.2581E+01  0.8113E+00
      0.432  0.3231E+01  0.9880E+00
      0.493  0.3404E+01  0.1193E+01
      0.554  0.3294E+01  0.1400E+01
      0.615  0.2495E+01  0.1577E+01
      0.676  0.2144E+01  0.1715E+01
      0.737  0.1844E+01  0.1839E+01
      0.798  0.1674E+01  0.1945E+01
      0.859  0.1423E+01  0.2040E+01
      0.920  0.1162E+01  0.2117E+01
      0.982  0.1743E+01  0.2203E+01
      1.043  0.2337E+01  0.2331E+01
      1.104  0.2688E+01  0.2482E+01
      1.165  0.3383E+01  0.2675E+01
      1.226  0.3874E+01  0.2903E+01
      1.287  0.3520E+01  0.3133E+01
      1.348  0.2534E+01  0.3320E+01
      1.409  0.2146E+01  0.3462E+01
      1.470  0.2367E+01  0.3596E+01
      1.531  0.3580E+01  0.3770E+01
      1.592  0.5535E+01  0.4047E+01
      1.653  0.5646E+01  0.4403E+01
      1.714  0.5540E+01  0.4746E+01
      1.776  0.6295E+01  0.5101E+01
      1.837  0.6390E+01  0.5493E+01
      1.898  0.6424E+01  0.5874E+01
      1.959  0.6915E+01  0.6280E+01
      2.020  0.7853E+01  0.6736E+01
      2.081  0.7909E+01  0.7231E+01
      2.142  0.1055E+02  0.7774E+01
      2.203  0.8991E+01  0.8373E+01
      2.264  0.1088E+02  0.8990E+01
      2.325  0.1416E+02  0.9713E+01
      2.386  0.1721E+02  0.1067E+02
      2.447  0.1510E+02  0.1167E+02
      2.508  0.2104E+02  0.1273E+02
      2.569  0.1951E+02  0.1394E+02
      2.631  0.2121E+02  0.1522E+02
      2.692  0.2650E+02  0.1670E+02
      2.753  0.2581E+02  0.1830E+02
      2.814  0.3159E+02  0.1989E+02
      2.875  0.3076E+02  0.2178E+02
      2.936  0.3066E+02  0.2369E+02
      2.997  0.3097E+02  0.2554E+02
      3.058  0.3952E+02  0.2763E+02
      3.119  0.3534E+02  0.2985E+02
      3.180  0.3330E+02  0.3202E+02
      3.241  0.4043E+02  0.3428E+02
      3.302  0.3601E+02  0.3645E+02
      3.363  0.3821E+02  0.3864E+02
      3.425  0.4237E+02  0.4096E+02
      3.486  0.4430E+02  0.4363E+02
      3.547  0.4935E+02  0.4625E+02
      3.608  0.4540E+02  0.4900E+02
      3.669  0.4720E+02  0.5179E+02
      3.730  0.3993E+02  0.5462E+02
      3.791  0.4438E+02  0.5729E+02
      3.852  0.4262E+02  0.5977E+02
      3.913  0.4435E+02  0.6248E+02
      3.974  0.4592E+02  0.6520E+02
      4.035  0.4164E+02  0.6785E+02
      4.096  0.3966E+02  0.7031E+02
      4.157  0.3845E+02  0.7269E+02
      4.218  0.3241E+02  0.7481E+02
      4.280  0.3085E+02  0.7676E+02
      4.341  0.3144E+02  0.7868E+02
      4.402  0.3338E+02  0.8064E+02
      4.463  0.3222E+02  0.8256E+02
      4.524  0.2623E+02  0.8439E+02
      4.585  0.3156E+02  0.8608E+02
      4.646  0.3992E+02  0.8843E+02
      4.707  0.3864E+02  0.9070E+02
      4.768  0.4165E+02  0.9312E+02
      4.829  0.4086E+02  0.9565E+02
      4.890  0.3826E+02  0.9801E+02
      4.951  0.3453E+02  0.1002E+03
      5.012  0.3454E+02  0.1022E+03
      5.073  0.3789E+02  0.1045E+03
      5.135  0.3572E+02  0.1068E+03
      5.196  0.3553E+02  0.1090E+03
      5.257  0.3505E+02  0.1111E+03
      5.318  0.4138E+02  0.1134E+03
      5.379  0.3397E+02  0.1154E+03
      5.440  0.3657E+02  0.1175E+03
      5.501  0.3887E+02  0.1199E+03
      5.562  0.3835E+02  0.1221E+03
      5.623  0.3887E+02  0.1244E+03
      5.684  0.3801E+02  0.1267E+03
      5.745  0.4178E+02  0.1293E+03
      5.806  0.4565E+02  0.1320E+03
      5.867  0.4476E+02  0.1348E+03
      5.929  0.4208E+02  0.1375E+03
      5.990  0.4193E+02  0.1401E+03
      6.051  0.4379E+02  0.1427E+03
      6.112  0.4811E+02  0.1456E+03
      6.173  0.5328E+02  0.1486E+03
      6.234  0.5361E+02  0.1519E+03
      6.295  0.5356E+02  0.1552E+03
      6.356  0.5454E+02  0.1584E+03
      6.417  0.5898E+02  0.1618E+03
      6.478  0.6191E+02  0.1655E+03
      6.539  0.6126E+02  0.1693E+03
      6.600  0.5512E+02  0.1729E+03
      6.661  0.5649E+02  0.1764E+03
      6.722  0.5184E+02  0.1797E+03
      6.784  0.4735E+02  0.1828E+03
      6.845  0.4783E+02  0.1855E+03
      6.906  0.4500E+02  0.1883E+03
      6.967  0.3993E+02  0.1908E+03
      7.028  0.3636E+02  0.1930E+03
      7.089  0.3948E+02  0.1954E+03
      7.150  0.4106E+02  0.1978E+03
      7.211  0.3595E+02  0.2002E+03
      7.272  0.3014E+02  0.2022E+03
      7.333  0.3218E+02  0.2041E+03
      7.394  0.3541E+02  0.2062E+03
      7.455  0.3661E+02  0.2084E+03
      7.516  0.3620E+02  0.2106E+03
      7.578  0.3419E+02  0.2127E+03
      7.639  0.3387E+02  0.2148E+03
      7.700  0.3398E+02  0.2169E+03
      7.761  0.3611E+02  0.2190E+03
      7.822  0.3823E+02  0.2213E+03
      7.883  0.3964E+02  0.2236E+03
      7.944  0.3572E+02  0.2259E+03
      8.005  0.3502E+02  0.2281E+03
      8.066  0.3646E+02  0.2302E+03
      8.127  0.3934E+02  0.2325E+03
      8.188  0.4643E+02  0.2350E+03
      8.249  0.4535E+02  0.2379E+03
      8.310  0.4219E+02  0.2405E+03
      8.371  0.4143E+02  0.2431E+03
      8.433  0.3661E+02  0.2455E+03
      8.494  0.3446E+02  0.2476E+03
      8.555  0.3436E+02  0.2497E+03
      8.616  0.3353E+02  0.2518E+03
      8.677  0.3494E+02  0.2538E+03
      8.738  0.3370E+02  0.2559E+03
      8.799  0.3303E+02  0.2580E+03
      8.860  0.3127E+02  0.2599E+03
      8.921  0.3395E+02  0.2619E+03
      8.982  0.3066E+02  0.2639E+03
      9.043  0.3012E+02  0.2657E+03
      9.104  0.2937E+02  0.2675E+03
      9.165  0.3439E+02  0.2695E+03
      9.227  0.3277E+02  0.2715E+03
      9.288  0.3092E+02  0.2735E+03
      9.349  0.2906E+02  0.2753E+03
      9.410  0.2888E+02  0.2770E+03
      9.471  0.2926E+02  0.2788E+03
      9.532  0.2897E+02  0.2806E+03
      9.593  0.3131E+02  0.2824E+03
      9.654  0.3724E+02  0.2846E+03
      9.715  0.3419E+02  0.2867E+03
      9.776  0.3799E+02  0.2889E+03
      9.837  0.3191E+02  0.2910E+03
      9.898  0.2802E+02  0.2928E+03
      9.959  0.3096E+02  0.2946E+03
     10.020  0.3369E+02  0.2965E+03
     10.082  0.4130E+02  0.2988E+03
     10.143  0.4355E+02  0.3014E+03
     10.204  0.4897E+02  0.3042E+03
     10.265  0.5576E+02  0.3074E+03
     10.326  0.5672E+02  0.3109E+03
     10.387  0.5373E+02  0.3143E+03
     10.448  0.5499E+02  0.3176E+03
     10.509  0.4963E+02  0.3208E+03
     10.570  0.4771E+02  0.3237E+03
     10.631  0.5508E+02  0.3270E+03
     10.692  0.3917E+02  0.3296E+03
     10.753  0.3300E+02  0.3321E+03
     10.814  0.2541E+02  0.3338E+03
     10.876  0.2536E+02  0.3353E+03
     10.937  0.2511E+02  0.3368E+03
     10.998  0.1606E+02  0.3382E+03
     11.059  0.1074E+02  0.3390E+03
     11.120  0.1024E+02  0.3396E+03
     11.181  0.9347E+01  0.3402E+03
     11.242  0.9387E+01  0.3408E+03
     11.303  0.9332E+01  0.3413E+03
     11.364  0.8563E+01  0.3419E+03
     11.425  0.8395E+01  0.3424E+03
     11.486  0.7951E+01  0.3429E+03
     11.547  0.8064E+01  0.3434E+03
     11.608  0.8166E+01  0.3439E+03
     11.669  0.8090E+01  0.3444E+03
     11.731  0.7617E+01  0.3449E+03
     11.792  0.7933E+01  0.3454E+03
     11.853  0.7641E+01  0.3458E+03
     11.914  0.7474E+01  0.3463E+03
     11.975  0.7819E+01  0.3468E+03
     12.036  0.7983E+01  0.3472E+03
     12.097  0.9215E+01  0.3478E+03
     12.158  0.8679E+01  0.3483E+03
     12.219  0.8149E+01  0.3488E+03
     12.280  0.8074E+01  0.3493E+03
     12.341  0.8511E+01  0.3498E+03
     12.402  0.7894E+01  0.3503E+03
     12.463  0.7306E+01  0.3508E+03
     12.524  0.7081E+01  0.3512E+03
     12.586  0.7092E+01  0.3516E+03
     12.647  0.7220E+01  0.3521E+03
     12.708  0.7591E+01  0.3525E+03
     12.769  0.7779E+01  0.3530E+03
     12.830  0.8283E+01  0.3535E+03
     12.891  0.8432E+01  0.3540E+03
     12.952  0.8370E+01  0.3545E+03
     13.013  0.6509E+01  0.3550E+03
     13.074  0.5746E+01  0.3553E+03
     13.135  0.5350E+01  0.3557E+03
     13.196  0.5030E+01  0.3560E+03
     13.257  0.4716E+01  0.3563E+03
     13.318  0.4287E+01  0.3566E+03
     13.380  0.3902E+01  0.3568E+03
     13.441  0.3567E+01  0.3571E+03
     13.502  0.3299E+01  0.3573E+03
     13.563  0.3367E+01  0.3575E+03
     13.624  0.3795E+01  0.3577E+03
     13.685  0.4142E+01  0.3579E+03
     13.746  0.4631E+01  0.3582E+03
     13.807  0.2970E+01  0.3584E+03
     13.868  0.2882E+01  0.3586E+03
     13.929  0.2459E+01  0.3588E+03
     13.990  0.2204E+01  0.3589E+03
     14.051  0.1793E+01  0.3590E+03
     14.112  0.1602E+01  0.3591E+03
     14.173  0.1473E+01  0.3592E+03
     14.235  0.1353E+01  0.3593E+03
     14.296  0.1242E+01  0.3594E+03
     14.357  0.1152E+01  0.3595E+03
     14.418  0.1066E+01  0.3595E+03
     14.479  0.9819E+00  0.3596E+03
     14.540  0.9029E+00  0.3596E+03
     14.601  0.8299E+00  0.3597E+03
     14.662  0.7650E+00  0.3597E+03
     14.723  0.7176E+00  0.3598E+03
     14.784  0.6457E+00  0.3598E+03
     14.845  0.5633E+00  0.3599E+03
     14.906  0.4905E+00  0.3599E+03
     14.967  0.3990E+00  0.3599E+03
     15.029  0.3406E+00  0.3600E+03
     15.090  0.2438E+00  0.3600E+03
     15.151  0.1496E+00  0.3600E+03
     15.212  0.7919E-01  0.3600E+03
     15.273  0.4109E-01  0.3600E+03
     15.334  0.2670E-01  0.3600E+03
     15.395  0.1725E-01  0.3600E+03
     15.456  0.1071E-01  0.3600E+03
     15.517  0.6771E-02  0.3600E+03
     15.578  0.5004E-02  0.3600E+03
     15.639  0.3778E-02  0.3600E+03
     15.700  0.2724E-02  0.3600E+03
     15.761  0.1841E-02  0.3600E+03
     15.822  0.1131E-02  0.3600E+03
     15.884  0.5935E-03  0.3600E+03
     15.945  0.2276E-03  0.3600E+03
     16.006  0.3375E-04  0.3600E+03
     16.067  0.0000E+00  0.3600E+03
     16.128  0.0000E+00  0.3600E+03
     16.189  0.0000E+00  0.3600E+03
     16.250  0.0000E+00  0.3600E+03
     16.311  0.0000E+00  0.3600E+03
     16.372  0.0000E+00  0.3600E+03
     16.433  0.0000E+00  0.3600E+03
     16.494  0.0000E+00  0.3600E+03
     16.555  0.0000E+00  0.3600E+03
     16.616  0.0000E+00  0.3600E+03
     16.678  0.0000E+00  0.3600E+03
     16.739  0.0000E+00  0.3600E+03
     16.800  0.0000E+00  0.3600E+03
     16.861  0.0000E+00  0.3600E+03
     16.922  0.0000E+00  0.3600E+03
     16.983  0.0000E+00  0.3600E+03
     17.044  0.0000E+00  0.3600E+03
