 256 256   0   0
  0.1418917E+02  0.1588033E-08  0.1692661E-08  0.1693229E-08  0.5000000E-15
  1.000000000000000E-004
  CAR 
 Ir_Ru                                   
     14.24935498     -1.29217190  301      9.45687692      1.00000000
     -1.292  0.0000E+00  0.0000E+00
     -1.240  0.0000E+00  0.0000E+00
     -1.189  0.0000E+00  0.0000E+00
     -1.137 -0.2680E-30 -0.1388E-31
     -1.085 -0.1215E-26 -0.6293E-28
     -1.033 -0.3205E-23 -0.1661E-24
     -0.981 -0.4920E-20 -0.2550E-21
     -0.930 -0.4390E-17 -0.2277E-18
     -0.878 -0.2216E-14 -0.1150E-15
     -0.826 -0.6603E-12 -0.3432E-13
     -0.774 -0.1140E-09 -0.5943E-11
     -0.722 -0.1135E-07 -0.5941E-09
     -0.671 -0.6488E-06 -0.3420E-07
     -0.619 -0.2117E-04 -0.1131E-05
     -0.567 -0.3913E-03 -0.2140E-04
     -0.515 -0.4061E-02 -0.2318E-03
     -0.463 -0.2341E-01 -0.1445E-02
     -0.411 -0.7355E-01 -0.5255E-02
     -0.360 -0.1034E+00 -0.1061E-01
     -0.308  0.1846E+00 -0.1050E-02
     -0.256  0.1568E+01  0.8020E-01
     -0.204  0.4303E+01  0.3031E+00
     -0.152  0.6325E+01  0.6308E+00
     -0.101  0.6430E+01  0.9639E+00
     -0.049  0.6914E+01  0.1322E+01
      0.003  0.8774E+01  0.1777E+01
      0.055  0.1108E+02  0.2351E+01
      0.107  0.1352E+02  0.3051E+01
      0.158  0.1439E+02  0.3797E+01
      0.210  0.1186E+02  0.4411E+01
      0.262  0.1003E+02  0.4931E+01
      0.314  0.1396E+02  0.5654E+01
      0.366  0.2011E+02  0.6696E+01
      0.417  0.2253E+02  0.7863E+01
      0.469  0.2274E+02  0.9041E+01
      0.521  0.2351E+02  0.1026E+02
      0.573  0.2264E+02  0.1143E+02
      0.625  0.2053E+02  0.1250E+02
      0.676  0.2099E+02  0.1358E+02
      0.728  0.2057E+02  0.1465E+02
      0.780  0.1497E+02  0.1542E+02
      0.832  0.9063E+01  0.1589E+02
      0.884  0.7872E+01  0.1630E+02
      0.935  0.1128E+02  0.1689E+02
      0.987  0.1831E+02  0.1783E+02
      1.039  0.2726E+02  0.1925E+02
      1.091  0.3307E+02  0.2096E+02
      1.143  0.3320E+02  0.2268E+02
      1.194  0.2931E+02  0.2420E+02
      1.246  0.2334E+02  0.2541E+02
      1.298  0.1954E+02  0.2642E+02
      1.350  0.2127E+02  0.2752E+02
      1.402  0.2669E+02  0.2890E+02
      1.453  0.3025E+02  0.3047E+02
      1.505  0.2994E+02  0.3202E+02
      1.557  0.2926E+02  0.3354E+02
      1.609  0.3025E+02  0.3511E+02
      1.661  0.3109E+02  0.3672E+02
      1.713  0.3190E+02  0.3837E+02
      1.764  0.3463E+02  0.4016E+02
      1.816  0.3847E+02  0.4215E+02
      1.868  0.4444E+02  0.4446E+02
      1.920  0.5362E+02  0.4723E+02
      1.972  0.5935E+02  0.5031E+02
      2.023  0.5565E+02  0.5319E+02
      2.075  0.5052E+02  0.5581E+02
      2.127  0.5938E+02  0.5889E+02
      2.179  0.8379E+02  0.6323E+02
      2.231  0.1069E+03  0.6876E+02
      2.282  0.1189E+03  0.7492E+02
      2.334  0.1252E+03  0.8141E+02
      2.386  0.1308E+03  0.8818E+02
      2.438  0.1368E+03  0.9527E+02
      2.490  0.1456E+03  0.1028E+03
      2.541  0.1619E+03  0.1112E+03
      2.593  0.1808E+03  0.1206E+03
      2.645  0.1936E+03  0.1306E+03
      2.697  0.2048E+03  0.1412E+03
      2.749  0.2215E+03  0.1527E+03
      2.800  0.2307E+03  0.1646E+03
      2.852  0.2251E+03  0.1763E+03
      2.904  0.2258E+03  0.1880E+03
      2.956  0.2424E+03  0.2005E+03
      3.008  0.2569E+03  0.2139E+03
      3.059  0.2600E+03  0.2273E+03
      3.111  0.2602E+03  0.2408E+03
      3.163  0.2632E+03  0.2544E+03
      3.215  0.2713E+03  0.2685E+03
      3.267  0.2853E+03  0.2833E+03
      3.318  0.3040E+03  0.2990E+03
      3.370  0.3220E+03  0.3157E+03
      3.422  0.3304E+03  0.3328E+03
      3.474  0.3288E+03  0.3499E+03
      3.526  0.3224E+03  0.3666E+03
      3.578  0.3184E+03  0.3831E+03
      3.629  0.3170E+03  0.3995E+03
      3.681  0.3120E+03  0.4156E+03
      3.733  0.3060E+03  0.4315E+03
      3.785  0.3019E+03  0.4471E+03
      3.837  0.2977E+03  0.4626E+03
      3.888  0.2938E+03  0.4778E+03
      3.940  0.2898E+03  0.4928E+03
      3.992  0.2787E+03  0.5072E+03
      4.044  0.2670E+03  0.5211E+03
      4.096  0.2725E+03  0.5352E+03
      4.147  0.2910E+03  0.5502E+03
      4.199  0.3020E+03  0.5659E+03
      4.251  0.3044E+03  0.5817E+03
      4.303  0.3106E+03  0.5978E+03
      4.355  0.3180E+03  0.6142E+03
      4.406  0.3210E+03  0.6309E+03
      4.458  0.3233E+03  0.6476E+03
      4.510  0.3222E+03  0.6643E+03
      4.562  0.3122E+03  0.6805E+03
      4.614  0.2991E+03  0.6960E+03
      4.665  0.2933E+03  0.7112E+03
      4.717  0.2970E+03  0.7265E+03
      4.769  0.3043E+03  0.7423E+03
      4.821  0.3150E+03  0.7586E+03
      4.873  0.3291E+03  0.7757E+03
      4.924  0.3368E+03  0.7931E+03
      4.976  0.3428E+03  0.8109E+03
      5.028  0.3555E+03  0.8293E+03
      5.080  0.3649E+03  0.8482E+03
      5.132  0.3651E+03  0.8671E+03
      5.183  0.3577E+03  0.8857E+03
      5.235  0.3401E+03  0.9033E+03
      5.287  0.3104E+03  0.9193E+03
      5.339  0.2710E+03  0.9334E+03
      5.391  0.2274E+03  0.9452E+03
      5.442  0.1903E+03  0.9550E+03
      5.494  0.1728E+03  0.9640E+03
      5.546  0.1833E+03  0.9735E+03
      5.598  0.2177E+03  0.9848E+03
      5.650  0.2645E+03  0.9985E+03
      5.702  0.3148E+03  0.1015E+04
      5.753  0.3592E+03  0.1033E+04
      5.805  0.3899E+03  0.1054E+04
      5.857  0.4074E+03  0.1075E+04
      5.909  0.4175E+03  0.1096E+04
      5.961  0.4246E+03  0.1118E+04
      6.012  0.4286E+03  0.1141E+04
      6.064  0.4207E+03  0.1162E+04
      6.116  0.3978E+03  0.1183E+04
      6.168  0.3756E+03  0.1202E+04
      6.220  0.3633E+03  0.1221E+04
      6.271  0.3565E+03  0.1240E+04
      6.323  0.3552E+03  0.1258E+04
      6.375  0.3652E+03  0.1277E+04
      6.427  0.3797E+03  0.1297E+04
      6.479  0.3840E+03  0.1317E+04
      6.530  0.3883E+03  0.1337E+04
      6.582  0.4049E+03  0.1358E+04
      6.634  0.4213E+03  0.1379E+04
      6.686  0.4276E+03  0.1402E+04
      6.738  0.4267E+03  0.1424E+04
      6.789  0.4176E+03  0.1445E+04
      6.841  0.3981E+03  0.1466E+04
      6.893  0.3773E+03  0.1486E+04
      6.945  0.3677E+03  0.1505E+04
      6.997  0.3646E+03  0.1523E+04
      7.048  0.3652E+03  0.1542E+04
      7.100  0.3835E+03  0.1562E+04
      7.152  0.4097E+03  0.1583E+04
      7.204  0.4213E+03  0.1605E+04
      7.256  0.4227E+03  0.1627E+04
      7.307  0.4175E+03  0.1649E+04
      7.359  0.3964E+03  0.1669E+04
      7.411  0.3665E+03  0.1688E+04
      7.463  0.3444E+03  0.1706E+04
      7.515  0.3341E+03  0.1723E+04
      7.566  0.3303E+03  0.1741E+04
      7.618  0.3217E+03  0.1757E+04
      7.670  0.3022E+03  0.1773E+04
      7.722  0.2818E+03  0.1788E+04
      7.774  0.2706E+03  0.1802E+04
      7.826  0.2651E+03  0.1815E+04
      7.877  0.2598E+03  0.1829E+04
      7.929  0.2514E+03  0.1842E+04
      7.981  0.2438E+03  0.1854E+04
      8.033  0.2431E+03  0.1867E+04
      8.085  0.2412E+03  0.1879E+04
      8.136  0.2335E+03  0.1892E+04
      8.188  0.2288E+03  0.1903E+04
      8.240  0.2317E+03  0.1915E+04
      8.292  0.2366E+03  0.1928E+04
      8.344  0.2388E+03  0.1940E+04
      8.395  0.2382E+03  0.1952E+04
      8.447  0.2320E+03  0.1964E+04
      8.499  0.2216E+03  0.1976E+04
      8.551  0.2138E+03  0.1987E+04
      8.603  0.2090E+03  0.1998E+04
      8.654  0.2024E+03  0.2008E+04
      8.706  0.1942E+03  0.2018E+04
      8.758  0.1856E+03  0.2028E+04
      8.810  0.1797E+03  0.2037E+04
      8.862  0.1834E+03  0.2047E+04
      8.913  0.2037E+03  0.2057E+04
      8.965  0.2300E+03  0.2069E+04
      9.017  0.2384E+03  0.2082E+04
      9.069  0.2284E+03  0.2093E+04
      9.121  0.2126E+03  0.2104E+04
      9.172  0.1935E+03  0.2114E+04
      9.224  0.1791E+03  0.2124E+04
      9.276  0.1881E+03  0.2133E+04
      9.328  0.2184E+03  0.2145E+04
      9.380  0.2406E+03  0.2157E+04
      9.431  0.2431E+03  0.2170E+04
      9.483  0.2437E+03  0.2182E+04
      9.535  0.2453E+03  0.2195E+04
      9.587  0.2438E+03  0.2208E+04
      9.639  0.2610E+03  0.2221E+04
      9.691  0.3031E+03  0.2237E+04
      9.742  0.3332E+03  0.2254E+04
      9.794  0.3311E+03  0.2271E+04
      9.846  0.3191E+03  0.2288E+04
      9.898  0.3149E+03  0.2304E+04
      9.950  0.3181E+03  0.2321E+04
     10.001  0.3331E+03  0.2338E+04
     10.053  0.3655E+03  0.2357E+04
     10.105  0.4025E+03  0.2378E+04
     10.157  0.4244E+03  0.2400E+04
     10.209  0.4332E+03  0.2422E+04
     10.260  0.4432E+03  0.2445E+04
     10.312  0.4595E+03  0.2469E+04
     10.364  0.4783E+03  0.2494E+04
     10.416  0.4921E+03  0.2519E+04
     10.468  0.4922E+03  0.2545E+04
     10.519  0.4669E+03  0.2569E+04
     10.571  0.4144E+03  0.2590E+04
     10.623  0.3503E+03  0.2609E+04
     10.675  0.2766E+03  0.2623E+04
     10.727  0.1827E+03  0.2632E+04
     10.778  0.8420E+02  0.2637E+04
     10.830  0.1805E+02  0.2638E+04
     10.882 -0.3781E+01  0.2637E+04
     10.934 -0.3348E+01  0.2637E+04
     10.986 -0.8574E+00  0.2637E+04
     11.037 -0.1907E+00  0.2637E+04
     11.089 -0.6665E-01  0.2637E+04
     11.141 -0.1677E-01  0.2637E+04
     11.193 -0.2257E-02  0.2637E+04
     11.245 -0.1637E-03  0.2637E+04
     11.296 -0.6583E-05  0.2637E+04
     11.348 -0.1494E-06  0.2637E+04
     11.400 -0.1933E-08  0.2637E+04
     11.452 -0.2561E-10  0.2637E+04
     11.504 -0.1624E-08  0.2637E+04
     11.555 -0.1353E-06  0.2637E+04
     11.607 -0.6464E-05  0.2637E+04
     11.659 -0.1749E-03  0.2637E+04
     11.711 -0.2624E-02  0.2637E+04
     11.763 -0.2079E-01  0.2637E+04
     11.815 -0.7544E-01  0.2637E+04
     11.866 -0.3572E-01  0.2637E+04
     11.918  0.5266E+00  0.2637E+04
     11.970  0.1497E+01  0.2637E+04
     12.022  0.1772E+01  0.2637E+04
     12.074  0.1264E+01  0.2637E+04
     12.125  0.9195E+00  0.2638E+04
     12.177  0.1133E+01  0.2638E+04
     12.229  0.1989E+01  0.2638E+04
     12.281  0.2740E+01  0.2638E+04
     12.333  0.2632E+01  0.2638E+04
     12.384  0.2492E+01  0.2638E+04
     12.436  0.2752E+01  0.2638E+04
     12.488  0.2272E+01  0.2638E+04
     12.540  0.1510E+01  0.2638E+04
     12.592  0.1849E+01  0.2639E+04
     12.643  0.2814E+01  0.2639E+04
     12.695  0.3778E+01  0.2639E+04
     12.747  0.4204E+01  0.2639E+04
     12.799  0.3429E+01  0.2639E+04
     12.851  0.2956E+01  0.2639E+04
     12.902  0.3364E+01  0.2640E+04
     12.954  0.2689E+01  0.2640E+04
     13.006  0.9968E+00  0.2640E+04
     13.058 -0.3508E-01  0.2640E+04
     13.110 -0.3974E-01  0.2640E+04
     13.161  0.6191E+00  0.2640E+04
     13.213  0.1375E+01  0.2640E+04
     13.265  0.1446E+01  0.2640E+04
     13.317  0.7776E+00  0.2640E+04
     13.369  0.1355E+00  0.2640E+04
     13.420 -0.6007E-01  0.2640E+04
     13.472 -0.3526E-01  0.2640E+04
     13.524 -0.7240E-02  0.2640E+04
     13.576 -0.7429E-03  0.2640E+04
     13.628 -0.4128E-04  0.2640E+04
     13.679 -0.1281E-05  0.2640E+04
     13.731 -0.2256E-07  0.2640E+04
     13.783 -0.2273E-09  0.2640E+04
     13.835 -0.1318E-11  0.2640E+04
     13.887 -0.4762E-14  0.2640E+04
     13.939  0.0000E+00  0.2640E+04
     13.990  0.0000E+00  0.2640E+04
     14.042  0.0000E+00  0.2640E+04
     14.094  0.0000E+00  0.2640E+04
     14.146  0.0000E+00  0.2640E+04
     14.198  0.0000E+00  0.2640E+04
     14.249  0.0000E+00  0.2640E+04
