 256 256   0   0
  0.1418917E+02  0.1588033E-08  0.1692661E-08  0.1693229E-08  0.5000000E-15
  1.000000000000000E-004
  CAR 
 Ir_Ru                                   
     14.26714334     -1.29169477  301      9.45700723      1.00000000
     -1.292  0.0000E+00  0.0000E+00
     -1.240  0.0000E+00  0.0000E+00
     -1.188  0.0000E+00  0.0000E+00
     -1.136 -0.2756E-30 -0.1429E-31
     -1.084 -0.1258E-26 -0.6526E-28
     -1.032 -0.3340E-23 -0.1733E-24
     -0.981 -0.5152E-20 -0.2674E-21
     -0.929 -0.4614E-17 -0.2396E-18
     -0.877 -0.2337E-14 -0.1215E-15
     -0.825 -0.6965E-12 -0.3624E-13
     -0.773 -0.1203E-09 -0.6274E-11
     -0.721 -0.1196E-07 -0.6264E-09
     -0.669 -0.6815E-06 -0.3597E-07
     -0.617 -0.2215E-04 -0.1185E-05
     -0.566 -0.4073E-03 -0.2231E-04
     -0.514 -0.4198E-02 -0.2400E-03
     -0.462 -0.2400E-01 -0.1485E-02
     -0.410 -0.7462E-01 -0.5355E-02
     -0.358 -0.1024E+00 -0.1067E-01
     -0.306  0.1987E+00 -0.3614E-03
     -0.254  0.1616E+01  0.8342E-01
     -0.203  0.4367E+01  0.3099E+00
     -0.151  0.6345E+01  0.6390E+00
     -0.099  0.6424E+01  0.9721E+00
     -0.047  0.6944E+01  0.1332E+01
      0.005  0.8828E+01  0.1790E+01
      0.057  0.1114E+02  0.2368E+01
      0.109  0.1358E+02  0.3072E+01
      0.160  0.1436E+02  0.3817E+01
      0.212  0.1175E+02  0.4426E+01
      0.264  0.1005E+02  0.4947E+01
      0.316  0.1415E+02  0.5681E+01
      0.368  0.2025E+02  0.6732E+01
      0.420  0.2250E+02  0.7899E+01
      0.472  0.2269E+02  0.9075E+01
      0.524  0.2350E+02  0.1029E+02
      0.575  0.2256E+02  0.1146E+02
      0.627  0.2044E+02  0.1252E+02
      0.679  0.2096E+02  0.1361E+02
      0.731  0.2047E+02  0.1467E+02
      0.783  0.1478E+02  0.1544E+02
      0.835  0.8970E+01  0.1590E+02
      0.887  0.7992E+01  0.1632E+02
      0.938  0.1158E+02  0.1692E+02
      0.990  0.1872E+02  0.1789E+02
      1.042  0.2769E+02  0.1933E+02
      1.094  0.3330E+02  0.2105E+02
      1.146  0.3310E+02  0.2277E+02
      1.198  0.2893E+02  0.2427E+02
      1.250  0.2299E+02  0.2546E+02
      1.301  0.1952E+02  0.2648E+02
      1.353  0.2156E+02  0.2759E+02
      1.405  0.2703E+02  0.2900E+02
      1.457  0.3031E+02  0.3057E+02
      1.509  0.2985E+02  0.3212E+02
      1.561  0.2933E+02  0.3364E+02
      1.613  0.3041E+02  0.3521E+02
      1.664  0.3113E+02  0.3683E+02
      1.716  0.3194E+02  0.3848E+02
      1.768  0.3486E+02  0.4029E+02
      1.820  0.3894E+02  0.4231E+02
      1.872  0.4519E+02  0.4466E+02
      1.924  0.5430E+02  0.4747E+02
      1.976  0.5931E+02  0.5055E+02
      2.028  0.5504E+02  0.5340E+02
      2.079  0.5048E+02  0.5602E+02
      2.131  0.6076E+02  0.5917E+02
      2.183  0.8572E+02  0.6362E+02
      2.235  0.1080E+03  0.6922E+02
      2.287  0.1193E+03  0.7541E+02
      2.339  0.1255E+03  0.8192E+02
      2.391  0.1313E+03  0.8873E+02
      2.442  0.1373E+03  0.9585E+02
      2.494  0.1466E+03  0.1034E+03
      2.546  0.1635E+03  0.1119E+03
      2.598  0.1821E+03  0.1214E+03
      2.650  0.1944E+03  0.1314E+03
      2.702  0.2060E+03  0.1421E+03
      2.754  0.2229E+03  0.1537E+03
      2.805  0.2308E+03  0.1657E+03
      2.857  0.2249E+03  0.1773E+03
      2.909  0.2271E+03  0.1891E+03
      2.961  0.2442E+03  0.2018E+03
      3.013  0.2575E+03  0.2151E+03
      3.065  0.2601E+03  0.2286E+03
      3.117  0.2606E+03  0.2421E+03
      3.169  0.2640E+03  0.2558E+03
      3.220  0.2726E+03  0.2700E+03
      3.272  0.2873E+03  0.2849E+03
      3.324  0.3065E+03  0.3008E+03
      3.376  0.3239E+03  0.3176E+03
      3.428  0.3308E+03  0.3347E+03
      3.480  0.3282E+03  0.3517E+03
      3.532  0.3218E+03  0.3684E+03
      3.583  0.3182E+03  0.3849E+03
      3.635  0.3166E+03  0.4013E+03
      3.687  0.3113E+03  0.4175E+03
      3.739  0.3053E+03  0.4333E+03
      3.791  0.3012E+03  0.4489E+03
      3.843  0.2970E+03  0.4644E+03
      3.895  0.2935E+03  0.4796E+03
      3.946  0.2891E+03  0.4946E+03
      3.998  0.2770E+03  0.5089E+03
      4.050  0.2665E+03  0.5227E+03
      4.102  0.2745E+03  0.5370E+03
      4.154  0.2933E+03  0.5522E+03
      4.206  0.3027E+03  0.5679E+03
      4.258  0.3050E+03  0.5837E+03
      4.309  0.3117E+03  0.5999E+03
      4.361  0.3185E+03  0.6164E+03
      4.413  0.3212E+03  0.6331E+03
      4.465  0.3236E+03  0.6498E+03
      4.517  0.3214E+03  0.6665E+03
      4.569  0.3103E+03  0.6826E+03
      4.621  0.2977E+03  0.6980E+03
      4.673  0.2934E+03  0.7133E+03
      4.724  0.2978E+03  0.7287E+03
      4.776  0.3053E+03  0.7445E+03
      4.828  0.3168E+03  0.7610E+03
      4.880  0.3307E+03  0.7781E+03
      4.932  0.3375E+03  0.7956E+03
      4.984  0.3445E+03  0.8135E+03
      5.036  0.3575E+03  0.8320E+03
      5.087  0.3655E+03  0.8510E+03
      5.139  0.3644E+03  0.8699E+03
      5.191  0.3559E+03  0.8883E+03
      5.243  0.3365E+03  0.9058E+03
      5.295  0.3049E+03  0.9216E+03
      5.347  0.2642E+03  0.9353E+03
      5.399  0.2209E+03  0.9468E+03
      5.450  0.1861E+03  0.9564E+03
      5.502  0.1724E+03  0.9654E+03
      5.554  0.1871E+03  0.9751E+03
      5.606  0.2243E+03  0.9867E+03
      5.658  0.2723E+03  0.1001E+04
      5.710  0.3225E+03  0.1018E+04
      5.762  0.3653E+03  0.1036E+04
      5.814  0.3937E+03  0.1057E+04
      5.865  0.4094E+03  0.1078E+04
      5.917  0.4185E+03  0.1100E+04
      5.969  0.4253E+03  0.1122E+04
      6.021  0.4284E+03  0.1144E+04
      6.073  0.4179E+03  0.1166E+04
      6.125  0.3939E+03  0.1186E+04
      6.177  0.3729E+03  0.1206E+04
      6.228  0.3616E+03  0.1224E+04
      6.280  0.3556E+03  0.1243E+04
      6.332  0.3560E+03  0.1261E+04
      6.384  0.3680E+03  0.1280E+04
      6.436  0.3814E+03  0.1300E+04
      6.488  0.3843E+03  0.1320E+04
      6.540  0.3905E+03  0.1340E+04
      6.591  0.4082E+03  0.1361E+04
      6.643  0.4231E+03  0.1383E+04
      6.695  0.4281E+03  0.1406E+04
      6.747  0.4259E+03  0.1428E+04
      6.799  0.4147E+03  0.1449E+04
      6.851  0.3940E+03  0.1470E+04
      6.903  0.3745E+03  0.1489E+04
      6.954  0.3668E+03  0.1508E+04
      7.006  0.3639E+03  0.1527E+04
      7.058  0.3670E+03  0.1546E+04
      7.110  0.3888E+03  0.1566E+04
      7.162  0.4133E+03  0.1588E+04
      7.214  0.4219E+03  0.1609E+04
      7.266  0.4224E+03  0.1631E+04
      7.318  0.4149E+03  0.1653E+04
      7.369  0.3908E+03  0.1673E+04
      7.421  0.3612E+03  0.1692E+04
      7.473  0.3414E+03  0.1710E+04
      7.525  0.3329E+03  0.1727E+04
      7.577  0.3292E+03  0.1744E+04
      7.629  0.3186E+03  0.1760E+04
      7.681  0.2978E+03  0.1776E+04
      7.732  0.2788E+03  0.1790E+04
      7.784  0.2693E+03  0.1804E+04
      7.836  0.2641E+03  0.1818E+04
      7.888  0.2582E+03  0.1831E+04
      7.940  0.2493E+03  0.1844E+04
      7.992  0.2430E+03  0.1857E+04
      8.044  0.2432E+03  0.1870E+04
      8.095  0.2400E+03  0.1882E+04
      8.147  0.2320E+03  0.1894E+04
      8.199  0.2288E+03  0.1906E+04
      8.251  0.2328E+03  0.1918E+04
      8.303  0.2375E+03  0.1930E+04
      8.355  0.2391E+03  0.1943E+04
      8.407  0.2373E+03  0.1955E+04
      8.459  0.2298E+03  0.1967E+04
      8.510  0.2194E+03  0.1978E+04
      8.562  0.2126E+03  0.1989E+04
      8.614  0.2077E+03  0.2000E+04
      8.666  0.2006E+03  0.2011E+04
      8.718  0.1923E+03  0.2020E+04
      8.770  0.1840E+03  0.2030E+04
      8.822  0.1795E+03  0.2039E+04
      8.873  0.1864E+03  0.2049E+04
      8.925  0.2100E+03  0.2060E+04
      8.977  0.2339E+03  0.2072E+04
      9.029  0.2371E+03  0.2084E+04
      9.081  0.2251E+03  0.2096E+04
      9.133  0.2085E+03  0.2107E+04
      9.185  0.1891E+03  0.2117E+04
      9.236  0.1786E+03  0.2126E+04
      9.288  0.1942E+03  0.2136E+04
      9.340  0.2252E+03  0.2148E+04
      9.392  0.2424E+03  0.2160E+04
      9.444  0.2430E+03  0.2173E+04
      9.496  0.2446E+03  0.2185E+04
      9.548  0.2448E+03  0.2198E+04
      9.599  0.2451E+03  0.2211E+04
      9.651  0.2697E+03  0.2225E+04
      9.703  0.3131E+03  0.2241E+04
      9.755  0.3353E+03  0.2259E+04
      9.807  0.3280E+03  0.2276E+04
      9.859  0.3173E+03  0.2292E+04
      9.911  0.3151E+03  0.2308E+04
      9.963  0.3204E+03  0.2325E+04
     10.014  0.3395E+03  0.2343E+04
     10.066  0.3752E+03  0.2362E+04
     10.118  0.4098E+03  0.2383E+04
     10.170  0.4272E+03  0.2405E+04
     10.222  0.4350E+03  0.2428E+04
     10.274  0.4468E+03  0.2451E+04
     10.326  0.4649E+03  0.2475E+04
     10.377  0.4841E+03  0.2500E+04
     10.429  0.4967E+03  0.2526E+04
     10.481  0.4924E+03  0.2552E+04
     10.533  0.4587E+03  0.2575E+04
     10.585  0.4002E+03  0.2596E+04
     10.637  0.3324E+03  0.2613E+04
     10.689  0.2510E+03  0.2626E+04
     10.740  0.1512E+03  0.2634E+04
     10.792  0.5896E+02  0.2637E+04
     10.844  0.6882E+01  0.2638E+04
     10.896 -0.5654E+01  0.2637E+04
     10.948 -0.3173E+01  0.2637E+04
     11.000 -0.7613E+00  0.2637E+04
     11.052 -0.1045E+00  0.2637E+04
     11.104 -0.9126E-02  0.2637E+04
     11.155 -0.5337E-03  0.2637E+04
     11.207 -0.2083E-04  0.2637E+04
     11.259 -0.5204E-06  0.2637E+04
     11.311 -0.7967E-08  0.2637E+04
     11.363 -0.7262E-10  0.2637E+04
     11.415 -0.2006E-11  0.2637E+04
     11.467 -0.2750E-09  0.2637E+04
     11.518 -0.2688E-07  0.2637E+04
     11.570 -0.1503E-05  0.2637E+04
     11.622 -0.4769E-04  0.2637E+04
     11.674 -0.8457E-03  0.2637E+04
     11.726 -0.8129E-02  0.2637E+04
     11.778 -0.3903E-01  0.2637E+04
     11.830 -0.6403E-01  0.2637E+04
     11.881  0.1618E+00  0.2637E+04
     11.933  0.8769E+00  0.2637E+04
     11.985  0.1540E+01  0.2637E+04
     12.037  0.1266E+01  0.2637E+04
     12.089  0.3763E+00  0.2637E+04
     12.141  0.2516E+00  0.2637E+04
     12.193  0.1671E+01  0.2638E+04
     12.244  0.3550E+01  0.2638E+04
     12.296  0.3981E+01  0.2638E+04
     12.348  0.2872E+01  0.2638E+04
     12.400  0.2008E+01  0.2638E+04
     12.452  0.1997E+01  0.2638E+04
     12.504  0.1905E+01  0.2638E+04
     12.556  0.2130E+01  0.2638E+04
     12.608  0.2839E+01  0.2639E+04
     12.659  0.3410E+01  0.2639E+04
     12.711  0.3767E+01  0.2639E+04
     12.763  0.3196E+01  0.2639E+04
     12.815  0.2199E+01  0.2639E+04
     12.867  0.2198E+01  0.2639E+04
     12.919  0.2489E+01  0.2640E+04
     12.971  0.1933E+01  0.2640E+04
     13.022  0.1220E+01  0.2640E+04
     13.074  0.9427E+00  0.2640E+04
     13.126  0.8499E+00  0.2640E+04
     13.178  0.9783E+00  0.2640E+04
     13.230  0.1194E+01  0.2640E+04
     13.282  0.1134E+01  0.2640E+04
     13.334  0.6714E+00  0.2640E+04
     13.385  0.1509E+00  0.2640E+04
     13.437 -0.4582E-01  0.2640E+04
     13.489 -0.3288E-01  0.2640E+04
     13.541 -0.7160E-02  0.2640E+04
     13.593 -0.7565E-03  0.2640E+04
     13.645 -0.4272E-04  0.2640E+04
     13.697 -0.1338E-05  0.2640E+04
     13.749 -0.2369E-07  0.2640E+04
     13.800 -0.2394E-09  0.2640E+04
     13.852 -0.1389E-11  0.2640E+04
     13.904 -0.4757E-14  0.2640E+04
     13.956  0.0000E+00  0.2640E+04
     14.008  0.0000E+00  0.2640E+04
     14.060  0.0000E+00  0.2640E+04
     14.112  0.0000E+00  0.2640E+04
     14.163  0.0000E+00  0.2640E+04
     14.215  0.0000E+00  0.2640E+04
     14.267  0.0000E+00  0.2640E+04
