       N       E                     dE             d eps       ncg     rms          rms(c)
RMM:   1     0.136790620129E+05    0.13679E+05   -0.47218E+05 25080   0.725E+02
RMM:   2     0.131333042156E+04   -0.12366E+05   -0.13120E+05 25080   0.260E+02
RMM:   3    -0.104567884582E+04   -0.23590E+04   -0.22855E+04 25080   0.111E+02
RMM:   4    -0.184598384884E+04   -0.80031E+03   -0.57406E+03 25080   0.768E+01
RMM:   5    -0.212910474189E+04   -0.28312E+03   -0.24896E+03 25080   0.451E+01
RMM:   6    -0.227482758255E+04   -0.14572E+03   -0.12952E+03 25080   0.349E+01
RMM:   7    -0.235269186003E+04   -0.77864E+02   -0.73854E+02 25080   0.235E+01
RMM:   8    -0.240018882241E+04   -0.47497E+02   -0.44556E+02 25080   0.195E+01
RMM:   9    -0.247907944901E+04   -0.78891E+02   -0.77971E+02 71859   0.137E+01
RMM:  10    -0.248863729666E+04   -0.95578E+01   -0.11981E+02 79687   0.283E+00
RMM:  11    -0.249087626185E+04   -0.22390E+01   -0.17832E+01 77296   0.686E-01
RMM:  12    -0.249118342398E+04   -0.30716E+00   -0.19894E+00 79574   0.198E-01    0.782E+01
RMM:  13    -0.241366886161E+04    0.77515E+02   -0.68499E+02 57180   0.246E+01    0.583E+01
RMM:  14    -0.236776669607E+04    0.45902E+02   -0.34122E+02 51447   0.174E+01    0.416E+01
RMM:  15    -0.233562865260E+04    0.32138E+02   -0.11839E+02 53320   0.101E+01    0.255E+01
RMM:  16    -0.232136199194E+04    0.14267E+02   -0.25824E+01 56040   0.434E+00    0.457E+00
RMM:  17    -0.232159471895E+04   -0.23273E+00   -0.65223E+00 74085   0.127E+00    0.458E+00
RMM:  18    -0.232113849618E+04    0.45622E+00   -0.11742E+00 64284   0.709E-01    0.336E+00
RMM:  19    -0.232075028798E+04    0.38821E+00   -0.69053E-01 59197   0.799E-01    0.166E+00
RMM:  20    -0.232070304835E+04    0.47240E-01   -0.24854E-01 64521   0.341E-01    0.159E+00
RMM:  21    -0.232065766237E+04    0.45386E-01   -0.11519E-01 62167   0.245E-01    0.119E+00
RMM:  22    -0.232063449286E+04    0.23170E-01   -0.49380E-02 61301   0.160E-01    0.735E-01
RMM:  23    -0.232062835387E+04    0.61390E-02   -0.13966E-02 67533   0.687E-02    0.485E-01
RMM:  24    -0.232062487615E+04    0.34777E-02   -0.10074E-02 62016   0.750E-02    0.245E-01
RMM:  25    -0.232062569689E+04   -0.82074E-03   -0.12532E-02 66273   0.769E-02    0.248E-01
RMM:  26    -0.232062592472E+04   -0.22783E-03   -0.34889E-03 73778   0.310E-02    0.260E-01
RMM:  27    -0.232062510963E+04    0.81510E-03   -0.64673E-04 60430   0.192E-02    0.179E-01
RMM:  28    -0.232062456442E+04    0.54521E-03   -0.85766E-04 63468   0.214E-02    0.860E-02
RMM:  29    -0.232062442383E+04    0.14059E-03   -0.62943E-04 69092   0.167E-02    0.285E-02
RMM:  30    -0.232062440766E+04    0.16171E-04   -0.12914E-04 72808   0.626E-03
   1 F= -.23206244E+04 E0= -.23206243E+04  d E =-.247769E-03
