  64  64   0   0
  0.1452522E+02  0.1095484E-08  0.1095484E-08  0.1095484E-08  0.5000000E-15
  1.000000000000000E-004
  CAR 
 Ir_Ru                                   
     15.02219357     -1.81848037  301      9.90296092      1.00000000
     -1.818  0.0000E+00  0.0000E+00
     -1.762  0.0000E+00  0.0000E+00
     -1.706  0.0000E+00  0.0000E+00
     -1.650 -0.6190E-30 -0.3475E-31
     -1.594 -0.4777E-26 -0.2682E-27
     -1.538 -0.1953E-22 -0.1096E-23
     -1.482 -0.4224E-19 -0.2372E-20
     -1.426 -0.4829E-16 -0.2713E-17
     -1.369 -0.2819E-13 -0.1585E-14
     -1.313 -0.8887E-11 -0.5005E-12
     -1.257 -0.1466E-08 -0.8278E-10
     -1.201 -0.1257E-06 -0.7136E-08
     -1.145 -0.5538E-05 -0.3180E-06
     -1.089 -0.1232E-03 -0.7234E-05
     -1.033 -0.1339E-02 -0.8240E-04
     -0.976 -0.6729E-02 -0.4601E-03
     -0.920 -0.1458E-01 -0.1278E-02
     -0.864 -0.1010E-01 -0.1846E-02
     -0.808  0.8914E-01  0.3159E-02
     -0.752  0.6273E+00  0.3837E-01
     -0.696  0.1487E+01  0.1218E+00
     -0.640  0.1480E+01  0.2049E+00
     -0.583  0.9433E+00  0.2579E+00
     -0.527  0.1327E+01  0.3323E+00
     -0.471  0.2593E+01  0.4779E+00
     -0.415  0.3990E+01  0.7019E+00
     -0.359  0.3368E+01  0.8909E+00
     -0.303  0.1141E+01  0.9550E+00
     -0.247  0.4960E+00  0.9828E+00
     -0.191  0.2382E+01  0.1117E+01
     -0.134  0.5249E+01  0.1411E+01
     -0.078  0.5281E+01  0.1708E+01
     -0.022  0.3336E+01  0.1895E+01
      0.034  0.3318E+01  0.2081E+01
      0.090  0.4363E+01  0.2326E+01
      0.146  0.4292E+01  0.2567E+01
      0.202  0.2235E+01  0.2692E+01
      0.259  0.9212E+00  0.2744E+01
      0.315  0.3325E+01  0.2931E+01
      0.371  0.8380E+01  0.3401E+01
      0.427  0.9202E+01  0.3918E+01
      0.483  0.4681E+01  0.4181E+01
      0.539  0.3470E+01  0.4375E+01
      0.595  0.5889E+01  0.4706E+01
      0.651  0.6454E+01  0.5068E+01
      0.708  0.4188E+01  0.5303E+01
      0.764  0.1553E+01  0.5391E+01
      0.820  0.2525E+01  0.5532E+01
      0.876  0.7239E+01  0.5939E+01
      0.932  0.1010E+02  0.6505E+01
      0.988  0.1027E+02  0.7082E+01
      1.044  0.9720E+01  0.7627E+01
      1.101  0.8247E+01  0.8090E+01
      1.157  0.5902E+01  0.8421E+01
      1.213  0.4642E+01  0.8682E+01
      1.269  0.6104E+01  0.9025E+01
      1.325  0.6574E+01  0.9394E+01
      1.381  0.5446E+01  0.9699E+01
      1.437  0.6402E+01  0.1006E+02
      1.494  0.1046E+02  0.1065E+02
      1.550  0.1310E+02  0.1138E+02
      1.606  0.1284E+02  0.1210E+02
      1.662  0.1232E+02  0.1279E+02
      1.718  0.1338E+02  0.1354E+02
      1.774  0.1330E+02  0.1429E+02
      1.830  0.8899E+01  0.1479E+02
      1.886  0.6121E+01  0.1513E+02
      1.943  0.6875E+01  0.1552E+02
      1.999  0.8670E+01  0.1601E+02
      2.055  0.1563E+02  0.1688E+02
      2.111  0.2531E+02  0.1831E+02
      2.167  0.2903E+02  0.1993E+02
      2.223  0.3169E+02  0.2171E+02
      2.279  0.3481E+02  0.2367E+02
      2.336  0.2997E+02  0.2535E+02
      2.392  0.2727E+02  0.2688E+02
      2.448  0.3720E+02  0.2897E+02
      2.504  0.4732E+02  0.3162E+02
      2.560  0.4444E+02  0.3412E+02
      2.616  0.3449E+02  0.3606E+02
      2.672  0.3580E+02  0.3807E+02
      2.729  0.5868E+02  0.4136E+02
      2.785  0.7967E+02  0.4583E+02
      2.841  0.7048E+02  0.4979E+02
      2.897  0.5413E+02  0.5283E+02
      2.953  0.4867E+02  0.5556E+02
      3.009  0.5580E+02  0.5869E+02
      3.065  0.7608E+02  0.6296E+02
      3.121  0.9161E+02  0.6810E+02
      3.178  0.9212E+02  0.7328E+02
      3.234  0.8015E+02  0.7778E+02
      3.290  0.7590E+02  0.8204E+02
      3.346  0.8083E+02  0.8657E+02
      3.402  0.7727E+02  0.9091E+02
      3.458  0.7537E+02  0.9514E+02
      3.514  0.8440E+02  0.9988E+02
      3.571  0.8920E+02  0.1049E+03
      3.627  0.8604E+02  0.1097E+03
      3.683  0.7396E+02  0.1139E+03
      3.739  0.5470E+02  0.1169E+03
      3.795  0.6151E+02  0.1204E+03
      3.851  0.8407E+02  0.1251E+03
      3.907  0.8467E+02  0.1299E+03
      3.963  0.7311E+02  0.1340E+03
      4.020  0.6362E+02  0.1375E+03
      4.076  0.6232E+02  0.1410E+03
      4.132  0.7210E+02  0.1451E+03
      4.188  0.7141E+02  0.1491E+03
      4.244  0.5529E+02  0.1522E+03
      4.300  0.4490E+02  0.1547E+03
      4.356  0.4518E+02  0.1573E+03
      4.413  0.5034E+02  0.1601E+03
      4.469  0.5388E+02  0.1631E+03
      4.525  0.5233E+02  0.1660E+03
      4.581  0.5557E+02  0.1692E+03
      4.637  0.6932E+02  0.1731E+03
      4.693  0.8028E+02  0.1776E+03
      4.749  0.7702E+02  0.1819E+03
      4.806  0.7095E+02  0.1859E+03
      4.862  0.7230E+02  0.1899E+03
      4.918  0.7377E+02  0.1941E+03
      4.974  0.7352E+02  0.1982E+03
      5.030  0.7353E+02  0.2023E+03
      5.086  0.6507E+02  0.2060E+03
      5.142  0.5557E+02  0.2091E+03
      5.198  0.7005E+02  0.2130E+03
      5.255  0.9325E+02  0.2183E+03
      5.311  0.9192E+02  0.2234E+03
      5.367  0.7642E+02  0.2277E+03
      5.423  0.7236E+02  0.2318E+03
      5.479  0.7300E+02  0.2359E+03
      5.535  0.6877E+02  0.2397E+03
      5.591  0.6970E+02  0.2436E+03
      5.648  0.7615E+02  0.2479E+03
      5.704  0.9421E+02  0.2532E+03
      5.760  0.1143E+03  0.2596E+03
      5.816  0.9993E+02  0.2652E+03
      5.872  0.6892E+02  0.2691E+03
      5.928  0.5962E+02  0.2724E+03
      5.984  0.7297E+02  0.2765E+03
      6.041  0.1015E+03  0.2822E+03
      6.097  0.1217E+03  0.2891E+03
      6.153  0.1087E+03  0.2952E+03
      6.209  0.8260E+02  0.2998E+03
      6.265  0.7972E+02  0.3043E+03
      6.321  0.1008E+03  0.3099E+03
      6.377  0.1225E+03  0.3168E+03
      6.433  0.1326E+03  0.3243E+03
      6.490  0.1234E+03  0.3312E+03
      6.546  0.1024E+03  0.3369E+03
      6.602  0.1025E+03  0.3427E+03
      6.658  0.1337E+03  0.3502E+03
      6.714  0.1494E+03  0.3586E+03
      6.770  0.1215E+03  0.3654E+03
      6.826  0.9018E+02  0.3705E+03
      6.883  0.8370E+02  0.3752E+03
      6.939  0.7865E+02  0.3796E+03
      6.995  0.7093E+02  0.3836E+03
      7.051  0.6844E+02  0.3874E+03
      7.107  0.7336E+02  0.3915E+03
      7.163  0.8222E+02  0.3961E+03
      7.219  0.7965E+02  0.4006E+03
      7.275  0.6835E+02  0.4044E+03
      7.332  0.5882E+02  0.4077E+03
      7.388  0.4756E+02  0.4104E+03
      7.444  0.4288E+02  0.4128E+03
      7.500  0.5734E+02  0.4160E+03
      7.556  0.7123E+02  0.4200E+03
      7.612  0.7559E+02  0.4243E+03
      7.668  0.7888E+02  0.4287E+03
      7.725  0.6909E+02  0.4326E+03
      7.781  0.4759E+02  0.4353E+03
      7.837  0.3652E+02  0.4373E+03
      7.893  0.4699E+02  0.4400E+03
      7.949  0.7022E+02  0.4439E+03
      8.005  0.8378E+02  0.4486E+03
      8.061  0.7648E+02  0.4529E+03
      8.118  0.6610E+02  0.4566E+03
      8.174  0.7058E+02  0.4606E+03
      8.230  0.8692E+02  0.4654E+03
      8.286  0.9931E+02  0.4710E+03
      8.342  0.1032E+03  0.4768E+03
      8.398  0.9825E+02  0.4823E+03
      8.454  0.7869E+02  0.4867E+03
      8.510  0.6113E+02  0.4902E+03
      8.567  0.6452E+02  0.4938E+03
      8.623  0.6439E+02  0.4974E+03
      8.679  0.4768E+02  0.5001E+03
      8.735  0.4187E+02  0.5024E+03
      8.791  0.5847E+02  0.5057E+03
      8.847  0.7967E+02  0.5102E+03
      8.903  0.9012E+02  0.5153E+03
      8.960  0.9185E+02  0.5204E+03
      9.016  0.8510E+02  0.5252E+03
      9.072  0.6365E+02  0.5288E+03
      9.128  0.4586E+02  0.5313E+03
      9.184  0.4510E+02  0.5339E+03
      9.240  0.4268E+02  0.5363E+03
      9.296  0.3574E+02  0.5383E+03
      9.353  0.3523E+02  0.5402E+03
      9.409  0.4174E+02  0.5426E+03
      9.465  0.5031E+02  0.5454E+03
      9.521  0.5580E+02  0.5485E+03
      9.577  0.6434E+02  0.5522E+03
      9.633  0.8530E+02  0.5569E+03
      9.689  0.9729E+02  0.5624E+03
      9.745  0.9099E+02  0.5675E+03
      9.802  0.7640E+02  0.5718E+03
      9.858  0.5000E+02  0.5746E+03
      9.914  0.3018E+02  0.5763E+03
      9.970  0.3213E+02  0.5781E+03
     10.026  0.4429E+02  0.5806E+03
     10.082  0.5111E+02  0.5835E+03
     10.138  0.5272E+02  0.5864E+03
     10.195  0.6341E+02  0.5900E+03
     10.251  0.8430E+02  0.5947E+03
     10.307  0.9872E+02  0.6003E+03
     10.363  0.9350E+02  0.6055E+03
     10.419  0.7763E+02  0.6099E+03
     10.475  0.8391E+02  0.6146E+03
     10.531  0.1089E+03  0.6207E+03
     10.587  0.1087E+03  0.6268E+03
     10.644  0.9257E+02  0.6320E+03
     10.700  0.9012E+02  0.6370E+03
     10.756  0.9316E+02  0.6423E+03
     10.812  0.1001E+03  0.6479E+03
     10.868  0.1086E+03  0.6540E+03
     10.924  0.1038E+03  0.6598E+03
     10.980  0.8512E+02  0.6646E+03
     11.037  0.6530E+02  0.6683E+03
     11.093  0.5893E+02  0.6716E+03
     11.149  0.5315E+02  0.6745E+03
     11.205  0.4165E+02  0.6769E+03
     11.261  0.3883E+02  0.6791E+03
     11.317  0.3344E+02  0.6809E+03
     11.373  0.2010E+02  0.6821E+03
     11.430  0.9431E+01  0.6826E+03
     11.486  0.7019E+01  0.6830E+03
     11.542  0.8278E+01  0.6835E+03
     11.598  0.9238E+01  0.6840E+03
     11.654  0.1204E+02  0.6847E+03
     11.710  0.1835E+02  0.6857E+03
     11.766  0.3168E+02  0.6875E+03
     11.822  0.4619E+02  0.6901E+03
     11.879  0.4678E+02  0.6927E+03
     11.935  0.3208E+02  0.6945E+03
     11.991  0.1681E+02  0.6954E+03
     12.047  0.1072E+02  0.6960E+03
     12.103  0.1002E+02  0.6966E+03
     12.159  0.8292E+01  0.6971E+03
     12.215  0.7095E+01  0.6975E+03
     12.272  0.9765E+01  0.6980E+03
     12.328  0.1423E+02  0.6988E+03
     12.384  0.1286E+02  0.6995E+03
     12.440  0.7132E+01  0.6999E+03
     12.496  0.6483E+01  0.7003E+03
     12.552  0.1156E+02  0.7009E+03
     12.608  0.1525E+02  0.7018E+03
     12.664  0.1496E+02  0.7026E+03
     12.721  0.2133E+02  0.7038E+03
     12.777  0.3235E+02  0.7056E+03
     12.833  0.3675E+02  0.7077E+03
     12.889  0.3504E+02  0.7097E+03
     12.945  0.2473E+02  0.7111E+03
     13.001  0.1389E+02  0.7118E+03
     13.057  0.1448E+02  0.7127E+03
     13.114  0.1779E+02  0.7137E+03
     13.170  0.1380E+02  0.7144E+03
     13.226  0.5565E+01  0.7147E+03
     13.282  0.1323E+01  0.7148E+03
     13.338  0.5102E+01  0.7151E+03
     13.394  0.1203E+02  0.7158E+03
     13.450  0.1563E+02  0.7167E+03
     13.507  0.1347E+02  0.7174E+03
     13.563  0.8718E+01  0.7179E+03
     13.619  0.6518E+01  0.7183E+03
     13.675  0.5357E+01  0.7186E+03
     13.731  0.4629E+01  0.7188E+03
     13.787  0.3949E+01  0.7190E+03
     13.843  0.2497E+01  0.7192E+03
     13.899  0.1570E+01  0.7193E+03
     13.956  0.2979E+01  0.7194E+03
     14.012  0.5043E+01  0.7197E+03
     14.068  0.4049E+01  0.7200E+03
     14.124  0.1155E+01  0.7200E+03
     14.180 -0.1731E+00  0.7200E+03
     14.236 -0.1560E+00  0.7200E+03
     14.292 -0.3024E-01  0.7200E+03
     14.349 -0.2567E-02  0.7200E+03
     14.405 -0.1068E-03  0.7200E+03
     14.461 -0.2267E-05  0.7200E+03
     14.517 -0.2497E-07  0.7200E+03
     14.573 -0.1440E-09  0.7200E+03
     14.629 -0.4372E-12  0.7200E+03
     14.685 -0.5063E-15  0.7200E+03
     14.742  0.0000E+00  0.7200E+03
     14.798  0.0000E+00  0.7200E+03
     14.854  0.0000E+00  0.7200E+03
     14.910  0.0000E+00  0.7200E+03
     14.966  0.0000E+00  0.7200E+03
     15.022  0.0000E+00  0.7200E+03
