 256 256   0   0
  0.1418917E+02  0.1588033E-08  0.1692661E-08  0.1693229E-08  0.5000000E-15
  1.000000000000000E-004
  CAR 
 Ir_Ru                                   
     14.25983228     -1.29171114  301      9.45691071      1.00000000
     -1.292  0.0000E+00  0.0000E+00
     -1.240  0.0000E+00  0.0000E+00
     -1.188  0.0000E+00  0.0000E+00
     -1.136 -0.2724E-30 -0.1412E-31
     -1.084 -0.1240E-26 -0.6427E-28
     -1.033 -0.3282E-23 -0.1702E-24
     -0.981 -0.5053E-20 -0.2621E-21
     -0.929 -0.4518E-17 -0.2345E-18
     -0.877 -0.2285E-14 -0.1187E-15
     -0.825 -0.6810E-12 -0.3542E-13
     -0.773 -0.1176E-09 -0.6132E-11
     -0.721 -0.1170E-07 -0.6126E-09
     -0.670 -0.6675E-06 -0.3522E-07
     -0.618 -0.2173E-04 -0.1162E-05
     -0.566 -0.4004E-03 -0.2192E-04
     -0.514 -0.4140E-02 -0.2365E-03
     -0.462 -0.2375E-01 -0.1468E-02
     -0.410 -0.7416E-01 -0.5312E-02
     -0.359 -0.1028E+00 -0.1064E-01
     -0.307  0.1927E+00 -0.6544E-03
     -0.255  0.1595E+01  0.8204E-01
     -0.203  0.4339E+01  0.3070E+00
     -0.151  0.6336E+01  0.6354E+00
     -0.099  0.6426E+01  0.9685E+00
     -0.048  0.6929E+01  0.1328E+01
      0.004  0.8803E+01  0.1784E+01
      0.056  0.1112E+02  0.2360E+01
      0.108  0.1355E+02  0.3063E+01
      0.160  0.1437E+02  0.3808E+01
      0.212  0.1180E+02  0.4419E+01
      0.263  0.1003E+02  0.4939E+01
      0.315  0.1406E+02  0.5668E+01
      0.367  0.2019E+02  0.6715E+01
      0.419  0.2250E+02  0.7881E+01
      0.471  0.2267E+02  0.9057E+01
      0.523  0.2349E+02  0.1027E+02
      0.574  0.2260E+02  0.1145E+02
      0.626  0.2047E+02  0.1251E+02
      0.678  0.2093E+02  0.1359E+02
      0.730  0.2051E+02  0.1466E+02
      0.782  0.1490E+02  0.1543E+02
      0.834  0.9044E+01  0.1590E+02
      0.886  0.7973E+01  0.1631E+02
      0.937  0.1148E+02  0.1690E+02
      0.989  0.1853E+02  0.1787E+02
      1.041  0.2749E+02  0.1929E+02
      1.093  0.3325E+02  0.2101E+02
      1.145  0.3320E+02  0.2274E+02
      1.197  0.2908E+02  0.2424E+02
      1.248  0.2312E+02  0.2544E+02
      1.300  0.1953E+02  0.2645E+02
      1.352  0.2144E+02  0.2757E+02
      1.404  0.2689E+02  0.2896E+02
      1.456  0.3032E+02  0.3053E+02
      1.508  0.2992E+02  0.3208E+02
      1.559  0.2932E+02  0.3360E+02
      1.611  0.3032E+02  0.3517E+02
      1.663  0.3107E+02  0.3678E+02
      1.715  0.3190E+02  0.3844E+02
      1.767  0.3477E+02  0.4024E+02
      1.819  0.3878E+02  0.4225E+02
      1.870  0.4495E+02  0.4458E+02
      1.922  0.5408E+02  0.4738E+02
      1.974  0.5934E+02  0.5046E+02
      2.026  0.5523E+02  0.5332E+02
      2.078  0.5041E+02  0.5594E+02
      2.130  0.6014E+02  0.5905E+02
      2.181  0.8493E+02  0.6346E+02
      2.233  0.1076E+03  0.6903E+02
      2.285  0.1192E+03  0.7521E+02
      2.337  0.1254E+03  0.8171E+02
      2.389  0.1311E+03  0.8851E+02
      2.441  0.1370E+03  0.9561E+02
      2.492  0.1461E+03  0.1032E+03
      2.544  0.1628E+03  0.1116E+03
      2.596  0.1816E+03  0.1210E+03
      2.648  0.1940E+03  0.1311E+03
      2.700  0.2055E+03  0.1417E+03
      2.752  0.2223E+03  0.1533E+03
      2.804  0.2308E+03  0.1652E+03
      2.855  0.2251E+03  0.1769E+03
      2.907  0.2268E+03  0.1887E+03
      2.959  0.2437E+03  0.2013E+03
      3.011  0.2574E+03  0.2146E+03
      3.063  0.2600E+03  0.2281E+03
      3.115  0.2604E+03  0.2416E+03
      3.166  0.2635E+03  0.2553E+03
      3.218  0.2719E+03  0.2694E+03
      3.270  0.2865E+03  0.2842E+03
      3.322  0.3058E+03  0.3001E+03
      3.374  0.3235E+03  0.3168E+03
      3.426  0.3309E+03  0.3340E+03
      3.477  0.3285E+03  0.3510E+03
      3.529  0.3220E+03  0.3677E+03
      3.581  0.3184E+03  0.3842E+03
      3.633  0.3168E+03  0.4006E+03
      3.685  0.3116E+03  0.4168E+03
      3.737  0.3055E+03  0.4326E+03
      3.788  0.3014E+03  0.4482E+03
      3.840  0.2972E+03  0.4637E+03
      3.892  0.2935E+03  0.4789E+03
      3.944  0.2893E+03  0.4939E+03
      3.996  0.2777E+03  0.5083E+03
      4.048  0.2668E+03  0.5221E+03
      4.099  0.2738E+03  0.5363E+03
      4.151  0.2924E+03  0.5514E+03
      4.203  0.3024E+03  0.5671E+03
      4.255  0.3048E+03  0.5829E+03
      4.307  0.3112E+03  0.5991E+03
      4.359  0.3182E+03  0.6155E+03
      4.411  0.3210E+03  0.6322E+03
      4.462  0.3235E+03  0.6490E+03
      4.514  0.3219E+03  0.6656E+03
      4.566  0.3111E+03  0.6818E+03
      4.618  0.2983E+03  0.6972E+03
      4.670  0.2935E+03  0.7124E+03
      4.722  0.2975E+03  0.7279E+03
      4.773  0.3049E+03  0.7437E+03
      4.825  0.3161E+03  0.7601E+03
      4.877  0.3301E+03  0.7772E+03
      4.929  0.3373E+03  0.7947E+03
      4.981  0.3438E+03  0.8125E+03
      5.033  0.3567E+03  0.8310E+03
      5.084  0.3652E+03  0.8499E+03
      5.136  0.3648E+03  0.8688E+03
      5.188  0.3568E+03  0.8873E+03
      5.240  0.3380E+03  0.9048E+03
      5.292  0.3070E+03  0.9207E+03
      5.344  0.2668E+03  0.9346E+03
      5.395  0.2234E+03  0.9462E+03
      5.447  0.1877E+03  0.9559E+03
      5.499  0.1724E+03  0.9648E+03
      5.551  0.1855E+03  0.9744E+03
      5.603  0.2216E+03  0.9859E+03
      5.655  0.2691E+03  0.9999E+03
      5.706  0.3195E+03  0.1016E+04
      5.758  0.3631E+03  0.1035E+04
      5.810  0.3924E+03  0.1056E+04
      5.862  0.4088E+03  0.1077E+04
      5.914  0.4182E+03  0.1098E+04
      5.966  0.4249E+03  0.1120E+04
      6.018  0.4284E+03  0.1143E+04
      6.069  0.4190E+03  0.1164E+04
      6.121  0.3954E+03  0.1185E+04
      6.173  0.3740E+03  0.1204E+04
      6.225  0.3623E+03  0.1223E+04
      6.277  0.3560E+03  0.1242E+04
      6.329  0.3555E+03  0.1260E+04
      6.380  0.3668E+03  0.1279E+04
      6.432  0.3808E+03  0.1299E+04
      6.484  0.3840E+03  0.1319E+04
      6.536  0.3894E+03  0.1339E+04
      6.588  0.4071E+03  0.1360E+04
      6.640  0.4227E+03  0.1382E+04
      6.691  0.4282E+03  0.1404E+04
      6.743  0.4263E+03  0.1426E+04
      6.795  0.4158E+03  0.1448E+04
      6.847  0.3956E+03  0.1468E+04
      6.899  0.3756E+03  0.1488E+04
      6.951  0.3670E+03  0.1507E+04
      7.002  0.3639E+03  0.1526E+04
      7.054  0.3660E+03  0.1545E+04
      7.106  0.3865E+03  0.1565E+04
      7.158  0.4121E+03  0.1586E+04
      7.210  0.4220E+03  0.1608E+04
      7.262  0.4227E+03  0.1630E+04
      7.313  0.4161E+03  0.1651E+04
      7.365  0.3932E+03  0.1672E+04
      7.417  0.3632E+03  0.1691E+04
      7.469  0.3423E+03  0.1708E+04
      7.521  0.3332E+03  0.1726E+04
      7.573  0.3295E+03  0.1743E+04
      7.625  0.3200E+03  0.1759E+04
      7.676  0.2997E+03  0.1775E+04
      7.728  0.2800E+03  0.1789E+04
      7.780  0.2698E+03  0.1803E+04
      7.832  0.2646E+03  0.1817E+04
      7.884  0.2589E+03  0.1830E+04
      7.936  0.2500E+03  0.1843E+04
      7.987  0.2432E+03  0.1856E+04
      8.039  0.2431E+03  0.1869E+04
      8.091  0.2406E+03  0.1881E+04
      8.143  0.2326E+03  0.1893E+04
      8.195  0.2288E+03  0.1905E+04
      8.247  0.2323E+03  0.1917E+04
      8.298  0.2372E+03  0.1929E+04
      8.350  0.2390E+03  0.1942E+04
      8.402  0.2377E+03  0.1954E+04
      8.454  0.2306E+03  0.1966E+04
      8.506  0.2202E+03  0.1977E+04
      8.558  0.2130E+03  0.1988E+04
      8.609  0.2082E+03  0.1999E+04
      8.661  0.2013E+03  0.2010E+04
      8.713  0.1931E+03  0.2020E+04
      8.765  0.1847E+03  0.2029E+04
      8.817  0.1795E+03  0.2039E+04
      8.869  0.1851E+03  0.2048E+04
      8.920  0.2074E+03  0.2059E+04
      8.972  0.2325E+03  0.2071E+04
      9.024  0.2377E+03  0.2083E+04
      9.076  0.2265E+03  0.2095E+04
      9.128  0.2102E+03  0.2106E+04
      9.180  0.1908E+03  0.2116E+04
      9.231  0.1786E+03  0.2125E+04
      9.283  0.1917E+03  0.2135E+04
      9.335  0.2226E+03  0.2146E+04
      9.387  0.2417E+03  0.2159E+04
      9.439  0.2429E+03  0.2172E+04
      9.491  0.2443E+03  0.2184E+04
      9.543  0.2451E+03  0.2197E+04
      9.594  0.2444E+03  0.2210E+04
      9.646  0.2659E+03  0.2223E+04
      9.698  0.3092E+03  0.2239E+04
      9.750  0.3348E+03  0.2257E+04
      9.802  0.3293E+03  0.2274E+04
      9.854  0.3179E+03  0.2290E+04
      9.905  0.3150E+03  0.2307E+04
      9.957  0.3194E+03  0.2323E+04
     10.009  0.3368E+03  0.2341E+04
     10.061  0.3713E+03  0.2360E+04
     10.113  0.4071E+03  0.2381E+04
     10.165  0.4262E+03  0.2403E+04
     10.216  0.4343E+03  0.2426E+04
     10.268  0.4452E+03  0.2449E+04
     10.320  0.4624E+03  0.2473E+04
     10.372  0.4809E+03  0.2498E+04
     10.424  0.4932E+03  0.2523E+04
     10.476  0.4904E+03  0.2549E+04
     10.527  0.4605E+03  0.2573E+04
     10.579  0.4049E+03  0.2593E+04
     10.631  0.3395E+03  0.2611E+04
     10.683  0.2628E+03  0.2625E+04
     10.735  0.1664E+03  0.2633E+04
     10.787  0.7095E+02  0.2637E+04
     10.838  0.1182E+02  0.2638E+04
     10.890 -0.5221E+01  0.2637E+04
     10.942 -0.3622E+01  0.2637E+04
     10.994 -0.9677E+00  0.2637E+04
     11.046 -0.1525E+00  0.2637E+04
     11.098 -0.1684E-01  0.2637E+04
     11.150 -0.1380E-02  0.2637E+04
     11.201 -0.7798E-04  0.2637E+04
     11.253 -0.2789E-05  0.2637E+04
     11.305 -0.1432E-05  0.2637E+04
     11.357 -0.4357E-04  0.2637E+04
     11.409 -0.7658E-03  0.2637E+04
     11.461 -0.7161E-02  0.2637E+04
     11.512 -0.3185E-01  0.2637E+04
     11.564 -0.3551E-01  0.2637E+04
     11.616  0.1908E+00  0.2637E+04
     11.668  0.6975E+00  0.2637E+04
     11.720  0.8853E+00  0.2637E+04
     11.772  0.4455E+00  0.2637E+04
     11.823 -0.2776E-01  0.2637E+04
     11.875 -0.9177E-01  0.2637E+04
     11.927  0.4944E+00  0.2637E+04
     11.979  0.1523E+01  0.2637E+04
     12.031  0.1686E+01  0.2637E+04
     12.083  0.7016E+00  0.2637E+04
     12.134 -0.3079E-02  0.2637E+04
     12.186  0.2535E+00  0.2637E+04
     12.238  0.1244E+01  0.2638E+04
     12.290  0.2819E+01  0.2638E+04
     12.342  0.4243E+01  0.2638E+04
     12.394  0.4409E+01  0.2638E+04
     12.445  0.3332E+01  0.2638E+04
     12.497  0.1889E+01  0.2638E+04
     12.549  0.1318E+01  0.2638E+04
     12.601  0.1764E+01  0.2639E+04
     12.653  0.2795E+01  0.2639E+04
     12.705  0.4261E+01  0.2639E+04
     12.757  0.4497E+01  0.2639E+04
     12.808  0.3170E+01  0.2639E+04
     12.860  0.2406E+01  0.2639E+04
     12.912  0.2272E+01  0.2640E+04
     12.964  0.1674E+01  0.2640E+04
     13.016  0.1100E+01  0.2640E+04
     13.068  0.8958E+00  0.2640E+04
     13.119  0.7474E+00  0.2640E+04
     13.171  0.8988E+00  0.2640E+04
     13.223  0.1288E+01  0.2640E+04
     13.275  0.1269E+01  0.2640E+04
     13.327  0.7084E+00  0.2640E+04
     13.379  0.1407E+00  0.2640E+04
     13.430 -0.5190E-01  0.2640E+04
     13.482 -0.3371E-01  0.2640E+04
     13.534 -0.7162E-02  0.2640E+04
     13.586 -0.7485E-03  0.2640E+04
     13.638 -0.4203E-04  0.2640E+04
     13.690 -0.1312E-05  0.2640E+04
     13.741 -0.2319E-07  0.2640E+04
     13.793 -0.2341E-09  0.2640E+04
     13.845 -0.1358E-11  0.2640E+04
     13.897 -0.4759E-14  0.2640E+04
     13.949  0.0000E+00  0.2640E+04
     14.001  0.0000E+00  0.2640E+04
     14.052  0.0000E+00  0.2640E+04
     14.104  0.0000E+00  0.2640E+04
     14.156  0.0000E+00  0.2640E+04
     14.208  0.0000E+00  0.2640E+04
     14.260  0.0000E+00  0.2640E+04
