 256 256   0   0
  0.1419206E+02  0.1537080E-08  0.1537218E-08  0.1537636E-08  0.5000000E-15
  1.000000000000000E-004
  CAR 
 Ir_Ru                                   
     12.68246700     -1.29485234  301      9.24209480      1.00000000
     -1.295  0.0000E+00  0.0000E+00
     -1.248  0.0000E+00  0.0000E+00
     -1.202  0.0000E+00  0.0000E+00
     -1.155  0.0000E+00  0.0000E+00
     -1.108 -0.2735E-28 -0.1274E-29
     -1.062 -0.4076E-25 -0.1900E-26
     -1.015 -0.3919E-22 -0.1828E-23
     -0.969 -0.2432E-19 -0.1135E-20
     -0.922 -0.9740E-17 -0.4549E-18
     -0.876 -0.2442E-14 -0.1142E-15
     -0.829 -0.4050E-12 -0.1898E-13
     -0.782 -0.4325E-10 -0.2034E-11
     -0.736 -0.2977E-08 -0.1407E-09
     -0.689 -0.1321E-06 -0.6296E-08
     -0.643 -0.3787E-05 -0.1828E-06
     -0.596 -0.7031E-04 -0.3459E-05
     -0.549 -0.8477E-03 -0.4295E-04
     -0.503 -0.6641E-02 -0.3524E-03
     -0.456 -0.3340E-01 -0.1908E-02
     -0.410 -0.1017E+00 -0.6648E-02
     -0.363 -0.1380E+00 -0.1308E-01
     -0.316  0.2209E+00 -0.2785E-02
     -0.270  0.1502E+01  0.6718E-01
     -0.223  0.3530E+01  0.2316E+00
     -0.177  0.5066E+01  0.4677E+00
     -0.130  0.5728E+01  0.7345E+00
     -0.083  0.7311E+01  0.1075E+01
     -0.037  0.1018E+02  0.1550E+01
      0.010  0.1103E+02  0.2063E+01
      0.056  0.9160E+01  0.2490E+01
      0.103  0.9363E+01  0.2926E+01
      0.149  0.1312E+02  0.3538E+01
      0.196  0.1590E+02  0.4278E+01
      0.243  0.1604E+02  0.5026E+01
      0.289  0.1671E+02  0.5804E+01
      0.336  0.1848E+02  0.6665E+01
      0.382  0.1834E+02  0.7520E+01
      0.429  0.1740E+02  0.8330E+01
      0.476  0.1973E+02  0.9250E+01
      0.522  0.2333E+02  0.1034E+02
      0.569  0.2405E+02  0.1146E+02
      0.615  0.2231E+02  0.1250E+02
      0.662  0.1880E+02  0.1337E+02
      0.709  0.1415E+02  0.1403E+02
      0.755  0.1116E+02  0.1455E+02
      0.802  0.1072E+02  0.1505E+02
      0.848  0.1116E+02  0.1557E+02
      0.895  0.1220E+02  0.1614E+02
      0.942  0.1468E+02  0.1682E+02
      0.988  0.1836E+02  0.1768E+02
      1.035  0.2287E+02  0.1874E+02
      1.081  0.2804E+02  0.2005E+02
      1.128  0.3124E+02  0.2151E+02
      1.174  0.2977E+02  0.2289E+02
      1.221  0.2594E+02  0.2410E+02
      1.268  0.2307E+02  0.2518E+02
      1.314  0.2095E+02  0.2615E+02
      1.361  0.1998E+02  0.2708E+02
      1.407  0.2157E+02  0.2809E+02
      1.454  0.2403E+02  0.2921E+02
      1.501  0.2561E+02  0.3040E+02
      1.547  0.2884E+02  0.3174E+02
      1.594  0.3496E+02  0.3337E+02
      1.640  0.3872E+02  0.3518E+02
      1.687  0.3791E+02  0.3694E+02
      1.734  0.3922E+02  0.3877E+02
      1.780  0.4539E+02  0.4089E+02
      1.827  0.4927E+02  0.4318E+02
      1.873  0.4781E+02  0.4541E+02
      1.920  0.4724E+02  0.4761E+02
      1.967  0.5082E+02  0.4998E+02
      2.013  0.5405E+02  0.5250E+02
      2.060  0.5539E+02  0.5508E+02
      2.106  0.6118E+02  0.5793E+02
      2.153  0.7434E+02  0.6139E+02
      2.199  0.8925E+02  0.6555E+02
      2.246  0.1030E+03  0.7035E+02
      2.293  0.1176E+03  0.7582E+02
      2.339  0.1308E+03  0.8192E+02
      2.386  0.1382E+03  0.8836E+02
      2.432  0.1431E+03  0.9503E+02
      2.479  0.1522E+03  0.1021E+03
      2.526  0.1609E+03  0.1096E+03
      2.572  0.1617E+03  0.1171E+03
      2.619  0.1612E+03  0.1247E+03
      2.665  0.1687E+03  0.1325E+03
      2.712  0.1783E+03  0.1408E+03
      2.759  0.1846E+03  0.1494E+03
      2.805  0.1973E+03  0.1586E+03
      2.852  0.2222E+03  0.1690E+03
      2.898  0.2471E+03  0.1805E+03
      2.945  0.2563E+03  0.1924E+03
      2.992  0.2500E+03  0.2041E+03
      3.038  0.2469E+03  0.2156E+03
      3.085  0.2618E+03  0.2278E+03
      3.131  0.2861E+03  0.2411E+03
      3.178  0.3013E+03  0.2551E+03
      3.224  0.3042E+03  0.2693E+03
      3.271  0.3054E+03  0.2835E+03
      3.318  0.3086E+03  0.2979E+03
      3.364  0.3111E+03  0.3124E+03
      3.411  0.3142E+03  0.3271E+03
      3.457  0.3213E+03  0.3420E+03
      3.504  0.3329E+03  0.3575E+03
      3.551  0.3438E+03  0.3736E+03
      3.597  0.3469E+03  0.3897E+03
      3.644  0.3449E+03  0.4058E+03
      3.690  0.3486E+03  0.4220E+03
      3.737  0.3576E+03  0.4387E+03
      3.784  0.3595E+03  0.4554E+03
      3.830  0.3525E+03  0.4719E+03
      3.877  0.3478E+03  0.4881E+03
      3.923  0.3496E+03  0.5044E+03
      3.970  0.3507E+03  0.5207E+03
      4.017  0.3418E+03  0.5366E+03
      4.063  0.3232E+03  0.5517E+03
      4.110  0.3069E+03  0.5660E+03
      4.156  0.2977E+03  0.5798E+03
      4.203  0.2877E+03  0.5932E+03
      4.249  0.2717E+03  0.6059E+03
      4.296  0.2540E+03  0.6177E+03
      4.343  0.2429E+03  0.6291E+03
      4.389  0.2451E+03  0.6405E+03
      4.436  0.2575E+03  0.6525E+03
      4.482  0.2619E+03  0.6647E+03
      4.529  0.2509E+03  0.6764E+03
      4.576  0.2474E+03  0.6879E+03
      4.622  0.2666E+03  0.7003E+03
      4.669  0.2915E+03  0.7139E+03
      4.715  0.3066E+03  0.7282E+03
      4.762  0.3135E+03  0.7428E+03
      4.809  0.3136E+03  0.7574E+03
      4.855  0.3052E+03  0.7716E+03
      4.902  0.2905E+03  0.7851E+03
      4.948  0.2786E+03  0.7981E+03
      4.995  0.2809E+03  0.8112E+03
      5.042  0.2948E+03  0.8250E+03
      5.088  0.3076E+03  0.8393E+03
      5.135  0.3093E+03  0.8537E+03
      5.181  0.2980E+03  0.8676E+03
      5.228  0.2858E+03  0.8809E+03
      5.274  0.2844E+03  0.8941E+03
      5.321  0.2902E+03  0.9077E+03
      5.368  0.2972E+03  0.9215E+03
      5.414  0.3018E+03  0.9356E+03
      5.461  0.2988E+03  0.9495E+03
      5.507  0.2890E+03  0.9630E+03
      5.554  0.2865E+03  0.9763E+03
      5.601  0.3021E+03  0.9904E+03
      5.647  0.3212E+03  0.1005E+04
      5.694  0.3254E+03  0.1021E+04
      5.740  0.3204E+03  0.1035E+04
      5.787  0.3199E+03  0.1050E+04
      5.834  0.3261E+03  0.1066E+04
      5.880  0.3364E+03  0.1081E+04
      5.927  0.3496E+03  0.1097E+04
      5.973  0.3648E+03  0.1114E+04
      6.020  0.3786E+03  0.1132E+04
      6.067  0.3854E+03  0.1150E+04
      6.113  0.3874E+03  0.1168E+04
      6.160  0.3914E+03  0.1186E+04
      6.206  0.3983E+03  0.1205E+04
      6.253  0.4090E+03  0.1224E+04
      6.299  0.4265E+03  0.1244E+04
      6.346  0.4460E+03  0.1265E+04
      6.393  0.4572E+03  0.1286E+04
      6.439  0.4574E+03  0.1307E+04
      6.486  0.4534E+03  0.1328E+04
      6.532  0.4501E+03  0.1349E+04
      6.579  0.4457E+03  0.1370E+04
      6.626  0.4394E+03  0.1391E+04
      6.672  0.4321E+03  0.1411E+04
      6.719  0.4250E+03  0.1431E+04
      6.765  0.4173E+03  0.1450E+04
      6.812  0.4023E+03  0.1469E+04
      6.859  0.3777E+03  0.1486E+04
      6.905  0.3549E+03  0.1503E+04
      6.952  0.3444E+03  0.1519E+04
      6.998  0.3394E+03  0.1535E+04
      7.045  0.3282E+03  0.1550E+04
      7.092  0.3151E+03  0.1565E+04
      7.138  0.3134E+03  0.1579E+04
      7.185  0.3193E+03  0.1594E+04
      7.231  0.3139E+03  0.1609E+04
      7.278  0.2886E+03  0.1622E+04
      7.324  0.2568E+03  0.1634E+04
      7.371  0.2403E+03  0.1645E+04
      7.418  0.2481E+03  0.1657E+04
      7.464  0.2704E+03  0.1670E+04
      7.511  0.2845E+03  0.1683E+04
      7.557  0.2770E+03  0.1696E+04
      7.604  0.2591E+03  0.1708E+04
      7.651  0.2484E+03  0.1719E+04
      7.697  0.2565E+03  0.1731E+04
      7.744  0.2818E+03  0.1744E+04
      7.790  0.3049E+03  0.1759E+04
      7.837  0.3120E+03  0.1773E+04
      7.884  0.3090E+03  0.1788E+04
      7.930  0.3032E+03  0.1802E+04
      7.977  0.2962E+03  0.1815E+04
      8.023  0.2911E+03  0.1829E+04
      8.070  0.2954E+03  0.1843E+04
      8.117  0.3087E+03  0.1857E+04
      8.163  0.3170E+03  0.1872E+04
      8.210  0.3176E+03  0.1887E+04
      8.256  0.3290E+03  0.1902E+04
      8.303  0.3529E+03  0.1919E+04
      8.349  0.3626E+03  0.1935E+04
      8.396  0.3412E+03  0.1951E+04
      8.443  0.3016E+03  0.1965E+04
      8.489  0.2679E+03  0.1978E+04
      8.536  0.2556E+03  0.1990E+04
      8.582  0.2698E+03  0.2002E+04
      8.629  0.2947E+03  0.2016E+04
      8.676  0.3006E+03  0.2030E+04
      8.722  0.2849E+03  0.2043E+04
      8.769  0.2681E+03  0.2056E+04
      8.815  0.2573E+03  0.2068E+04
      8.862  0.2493E+03  0.2079E+04
      8.909  0.2452E+03  0.2091E+04
      8.955  0.2452E+03  0.2102E+04
      9.002  0.2528E+03  0.2114E+04
      9.048  0.2725E+03  0.2127E+04
      9.095  0.2841E+03  0.2140E+04
      9.142  0.2672E+03  0.2152E+04
      9.188  0.2416E+03  0.2164E+04
      9.235  0.2287E+03  0.2174E+04
      9.281  0.2203E+03  0.2185E+04
      9.328  0.2138E+03  0.2195E+04
      9.375  0.2211E+03  0.2205E+04
      9.421  0.2414E+03  0.2216E+04
      9.468  0.2616E+03  0.2228E+04
      9.514  0.2733E+03  0.2241E+04
      9.561  0.2772E+03  0.2254E+04
      9.607  0.2763E+03  0.2267E+04
      9.654  0.2713E+03  0.2279E+04
      9.701  0.2616E+03  0.2292E+04
      9.747  0.2448E+03  0.2303E+04
      9.794  0.2250E+03  0.2314E+04
      9.840  0.2192E+03  0.2324E+04
      9.887  0.2354E+03  0.2335E+04
      9.934  0.2628E+03  0.2347E+04
      9.980  0.2936E+03  0.2361E+04
     10.027  0.3259E+03  0.2376E+04
     10.073  0.3486E+03  0.2392E+04
     10.120  0.3471E+03  0.2408E+04
     10.167  0.3251E+03  0.2423E+04
     10.213  0.3102E+03  0.2438E+04
     10.260  0.3272E+03  0.2453E+04
     10.306  0.3835E+03  0.2471E+04
     10.353  0.4627E+03  0.2493E+04
     10.400  0.5174E+03  0.2517E+04
     10.446  0.5111E+03  0.2540E+04
     10.493  0.4541E+03  0.2562E+04
     10.539  0.3778E+03  0.2579E+04
     10.586  0.3053E+03  0.2593E+04
     10.632  0.2504E+03  0.2605E+04
     10.679  0.2139E+03  0.2615E+04
     10.726  0.1826E+03  0.2624E+04
     10.772  0.1443E+03  0.2630E+04
     10.819  0.9959E+02  0.2635E+04
     10.865  0.5828E+02  0.2638E+04
     10.912  0.2854E+02  0.2639E+04
     10.959  0.1112E+02  0.2639E+04
     11.005  0.3152E+01  0.2640E+04
     11.052  0.1287E+01  0.2640E+04
     11.098  0.1721E+01  0.2640E+04
     11.145  0.1639E+01  0.2640E+04
     11.192  0.7284E+00  0.2640E+04
     11.238  0.2913E-01  0.2640E+04
     11.285 -0.1145E+00  0.2640E+04
     11.331 -0.5324E-01  0.2640E+04
     11.378 -0.1191E-01  0.2640E+04
     11.425 -0.3515E-02  0.2640E+04
     11.471 -0.1285E-01  0.2640E+04
     11.518 -0.4189E-01  0.2640E+04
     11.564 -0.3717E-01  0.2640E+04
     11.611  0.1934E+00  0.2640E+04
     11.657  0.7078E+00  0.2640E+04
     11.704  0.1026E+01  0.2640E+04
     11.751  0.7309E+00  0.2640E+04
     11.797  0.2114E+00  0.2640E+04
     11.844 -0.3352E-01  0.2640E+04
     11.890 -0.4328E-01  0.2640E+04
     11.937 -0.1361E-01  0.2640E+04
     11.984 -0.2226E-02  0.2640E+04
     12.030 -0.2134E-03  0.2640E+04
     12.077 -0.1252E-04  0.2640E+04
     12.123 -0.4591E-06  0.2640E+04
     12.170 -0.1064E-07  0.2640E+04
     12.217 -0.1570E-09  0.2640E+04
     12.263 -0.1480E-11  0.2640E+04
     12.310 -0.8936E-14  0.2640E+04
     12.356  0.0000E+00  0.2640E+04
     12.403  0.0000E+00  0.2640E+04
     12.450  0.0000E+00  0.2640E+04
     12.496  0.0000E+00  0.2640E+04
     12.543  0.0000E+00  0.2640E+04
     12.589  0.0000E+00  0.2640E+04
     12.636  0.0000E+00  0.2640E+04
     12.682  0.0000E+00  0.2640E+04
