 256 256   0   0
  0.1418917E+02  0.1588033E-08  0.1692661E-08  0.1693229E-08  0.5000000E-15
  1.000000000000000E-004
  CAR 
 Ir_Ru                                   
     14.28282383     -1.29187648  301      9.45704313      1.00000000
     -1.292  0.0000E+00  0.0000E+00
     -1.240  0.0000E+00  0.0000E+00
     -1.188  0.0000E+00  0.0000E+00
     -1.136 -0.2827E-30 -0.1468E-31
     -1.084 -0.1299E-26 -0.6747E-28
     -1.032 -0.3469E-23 -0.1801E-24
     -0.980 -0.5374E-20 -0.2792E-21
     -0.928 -0.4829E-17 -0.2510E-18
     -0.877 -0.2455E-14 -0.1277E-15
     -0.825 -0.7313E-12 -0.3809E-13
     -0.773 -0.1263E-09 -0.6594E-11
     -0.721 -0.1254E-07 -0.6576E-09
     -0.669 -0.7129E-06 -0.3767E-07
     -0.617 -0.2308E-04 -0.1236E-05
     -0.565 -0.4224E-03 -0.2317E-04
     -0.513 -0.4328E-02 -0.2478E-03
     -0.461 -0.2456E-01 -0.1523E-02
     -0.409 -0.7565E-01 -0.5450E-02
     -0.357 -0.1015E+00 -0.1072E-01
     -0.305  0.2122E+00  0.2960E-03
     -0.254  0.1661E+01  0.8651E-01
     -0.202  0.4427E+01  0.3163E+00
     -0.150  0.6363E+01  0.6466E+00
     -0.098  0.6421E+01  0.9800E+00
     -0.046  0.6978E+01  0.1342E+01
      0.006  0.8885E+01  0.1804E+01
      0.058  0.1121E+02  0.2386E+01
      0.110  0.1364E+02  0.3094E+01
      0.162  0.1433E+02  0.3837E+01
      0.214  0.1165E+02  0.4443E+01
      0.266  0.1008E+02  0.4966E+01
      0.318  0.1436E+02  0.5712E+01
      0.369  0.2041E+02  0.6771E+01
      0.421  0.2253E+02  0.7941E+01
      0.473  0.2272E+02  0.9120E+01
      0.525  0.2352E+02  0.1034E+02
      0.577  0.2248E+02  0.1151E+02
      0.629  0.2043E+02  0.1257E+02
      0.681  0.2102E+02  0.1366E+02
      0.733  0.2031E+02  0.1472E+02
      0.785  0.1446E+02  0.1547E+02
      0.837  0.8794E+01  0.1592E+02
      0.889  0.8039E+01  0.1634E+02
      0.940  0.1180E+02  0.1695E+02
      0.992  0.1909E+02  0.1794E+02
      1.044  0.2802E+02  0.1940E+02
      1.096  0.3339E+02  0.2113E+02
      1.148  0.3301E+02  0.2285E+02
      1.200  0.2871E+02  0.2434E+02
      1.252  0.2272E+02  0.2552E+02
      1.304  0.1946E+02  0.2653E+02
      1.356  0.2179E+02  0.2766E+02
      1.408  0.2729E+02  0.2907E+02
      1.460  0.3037E+02  0.3065E+02
      1.512  0.2980E+02  0.3220E+02
      1.563  0.2935E+02  0.3372E+02
      1.615  0.3044E+02  0.3530E+02
      1.667  0.3114E+02  0.3692E+02
      1.719  0.3209E+02  0.3858E+02
      1.771  0.3511E+02  0.4041E+02
      1.823  0.3919E+02  0.4244E+02
      1.875  0.4566E+02  0.4481E+02
      1.927  0.5485E+02  0.4766E+02
      1.979  0.5933E+02  0.5074E+02
      2.031  0.5458E+02  0.5357E+02
      2.083  0.5056E+02  0.5620E+02
      2.135  0.6213E+02  0.5942E+02
      2.186  0.8759E+02  0.6397E+02
      2.238  0.1092E+03  0.6964E+02
      2.290  0.1199E+03  0.7586E+02
      2.342  0.1259E+03  0.8240E+02
      2.394  0.1316E+03  0.8923E+02
      2.446  0.1377E+03  0.9638E+02
      2.498  0.1475E+03  0.1040E+03
      2.550  0.1650E+03  0.1126E+03
      2.602  0.1834E+03  0.1221E+03
      2.654  0.1952E+03  0.1323E+03
      2.706  0.2072E+03  0.1430E+03
      2.758  0.2241E+03  0.1547E+03
      2.809  0.2306E+03  0.1666E+03
      2.861  0.2243E+03  0.1783E+03
      2.913  0.2279E+03  0.1901E+03
      2.965  0.2456E+03  0.2029E+03
      3.017  0.2581E+03  0.2163E+03
      3.069  0.2601E+03  0.2298E+03
      3.121  0.2606E+03  0.2433E+03
      3.173  0.2642E+03  0.2570E+03
      3.225  0.2734E+03  0.2712E+03
      3.277  0.2887E+03  0.2862E+03
      3.329  0.3082E+03  0.3022E+03
      3.381  0.3249E+03  0.3191E+03
      3.432  0.3310E+03  0.3362E+03
      3.484  0.3277E+03  0.3533E+03
      3.536  0.3213E+03  0.3699E+03
      3.588  0.3182E+03  0.3865E+03
      3.640  0.3163E+03  0.4029E+03
      3.692  0.3106E+03  0.4190E+03
      3.744  0.3048E+03  0.4348E+03
      3.796  0.3009E+03  0.4504E+03
      3.848  0.2967E+03  0.4658E+03
      3.900  0.2931E+03  0.4811E+03
      3.952  0.2881E+03  0.4960E+03
      4.004  0.2755E+03  0.5103E+03
      4.055  0.2664E+03  0.5242E+03
      4.107  0.2763E+03  0.5385E+03
      4.159  0.2947E+03  0.5538E+03
      4.211  0.3029E+03  0.5695E+03
      4.263  0.3054E+03  0.5854E+03
      4.315  0.3126E+03  0.6016E+03
      4.367  0.3190E+03  0.6182E+03
      4.419  0.3215E+03  0.6349E+03
      4.471  0.3236E+03  0.6517E+03
      4.523  0.3205E+03  0.6683E+03
      4.575  0.3088E+03  0.6843E+03
      4.627  0.2967E+03  0.6997E+03
      4.678  0.2935E+03  0.7150E+03
      4.730  0.2986E+03  0.7305E+03
      4.782  0.3065E+03  0.7464E+03
      4.834  0.3186E+03  0.7629E+03
      4.886  0.3318E+03  0.7802E+03
      4.938  0.3379E+03  0.7977E+03
      4.990  0.3458E+03  0.8156E+03
      5.042  0.3591E+03  0.8343E+03
      5.094  0.3658E+03  0.8533E+03
      5.146  0.3638E+03  0.8722E+03
      5.198  0.3540E+03  0.8905E+03
      5.249  0.3330E+03  0.9078E+03
      5.301  0.3004E+03  0.9234E+03
      5.353  0.2591E+03  0.9369E+03
      5.405  0.2160E+03  0.9481E+03
      5.457  0.1830E+03  0.9576E+03
      5.509  0.1728E+03  0.9666E+03
      5.561  0.1909E+03  0.9765E+03
      5.613  0.2301E+03  0.9884E+03
      5.665  0.2789E+03  0.1003E+04
      5.717  0.3288E+03  0.1020E+04
      5.769  0.3699E+03  0.1039E+04
      5.821  0.3964E+03  0.1060E+04
      5.872  0.4111E+03  0.1081E+04
      5.924  0.4197E+03  0.1103E+04
      5.976  0.4260E+03  0.1125E+04
      6.028  0.4279E+03  0.1147E+04
      6.080  0.4150E+03  0.1169E+04
      6.132  0.3902E+03  0.1189E+04
      6.184  0.3707E+03  0.1208E+04
      6.236  0.3607E+03  0.1227E+04
      6.288  0.3553E+03  0.1245E+04
      6.340  0.3570E+03  0.1264E+04
      6.392  0.3701E+03  0.1283E+04
      6.444  0.3822E+03  0.1303E+04
      6.495  0.3844E+03  0.1323E+04
      6.547  0.3927E+03  0.1343E+04
      6.599  0.4113E+03  0.1365E+04
      6.651  0.4246E+03  0.1387E+04
      6.703  0.4280E+03  0.1409E+04
      6.755  0.4245E+03  0.1431E+04
      6.807  0.4119E+03  0.1452E+04
      6.859  0.3906E+03  0.1473E+04
      6.911  0.3728E+03  0.1492E+04
      6.963  0.3664E+03  0.1511E+04
      7.015  0.3636E+03  0.1530E+04
      7.067  0.3692E+03  0.1549E+04
      7.118  0.3933E+03  0.1570E+04
      7.170  0.4158E+03  0.1591E+04
      7.222  0.4224E+03  0.1613E+04
      7.274  0.4222E+03  0.1635E+04
      7.326  0.4122E+03  0.1656E+04
      7.378  0.3858E+03  0.1676E+04
      7.430  0.3569E+03  0.1695E+04
      7.482  0.3391E+03  0.1713E+04
      7.534  0.3322E+03  0.1730E+04
      7.586  0.3283E+03  0.1747E+04
      7.638  0.3158E+03  0.1763E+04
      7.690  0.2941E+03  0.1778E+04
      7.741  0.2765E+03  0.1793E+04
      7.793  0.2682E+03  0.1807E+04
      7.845  0.2633E+03  0.1820E+04
      7.897  0.2568E+03  0.1834E+04
      7.949  0.2475E+03  0.1847E+04
      8.001  0.2427E+03  0.1859E+04
      8.053  0.2432E+03  0.1872E+04
      8.105  0.2386E+03  0.1884E+04
      8.157  0.2308E+03  0.1896E+04
      8.209  0.2291E+03  0.1908E+04
      8.261  0.2338E+03  0.1920E+04
      8.313  0.2380E+03  0.1933E+04
      8.364  0.2392E+03  0.1945E+04
      8.416  0.2365E+03  0.1957E+04
      8.468  0.2279E+03  0.1969E+04
      8.520  0.2177E+03  0.1980E+04
      8.572  0.2116E+03  0.1991E+04
      8.624  0.2066E+03  0.2002E+04
      8.676  0.1991E+03  0.2012E+04
      8.728  0.1906E+03  0.2022E+04
      8.780  0.1825E+03  0.2032E+04
      8.832  0.1797E+03  0.2041E+04
      8.884  0.1898E+03  0.2051E+04
      8.936  0.2155E+03  0.2062E+04
      8.987  0.2364E+03  0.2074E+04
      9.039  0.2355E+03  0.2087E+04
      9.091  0.2221E+03  0.2098E+04
      9.143  0.2047E+03  0.2109E+04
      9.195  0.1856E+03  0.2118E+04
      9.247  0.1795E+03  0.2128E+04
      9.299  0.2002E+03  0.2138E+04
      9.351  0.2306E+03  0.2150E+04
      9.403  0.2432E+03  0.2163E+04
      9.455  0.2429E+03  0.2175E+04
      9.507  0.2452E+03  0.2188E+04
      9.558  0.2441E+03  0.2201E+04
      9.610  0.2475E+03  0.2214E+04
      9.662  0.2785E+03  0.2228E+04
      9.714  0.3209E+03  0.2245E+04
      9.766  0.3356E+03  0.2262E+04
      9.818  0.3251E+03  0.2279E+04
      9.870  0.3161E+03  0.2295E+04
      9.922  0.3155E+03  0.2312E+04
      9.974  0.3228E+03  0.2329E+04
     10.026  0.3460E+03  0.2347E+04
     10.078  0.3837E+03  0.2367E+04
     10.130  0.4154E+03  0.2388E+04
     10.181  0.4293E+03  0.2410E+04
     10.233  0.4371E+03  0.2433E+04
     10.285  0.4504E+03  0.2456E+04
     10.337  0.4695E+03  0.2481E+04
     10.389  0.4880E+03  0.2506E+04
     10.441  0.4978E+03  0.2532E+04
     10.493  0.4877E+03  0.2557E+04
     10.545  0.4469E+03  0.2581E+04
     10.597  0.3850E+03  0.2601E+04
     10.649  0.3151E+03  0.2617E+04
     10.701  0.2291E+03  0.2629E+04
     10.753  0.1276E+03  0.2635E+04
     10.804  0.4253E+02  0.2638E+04
     10.856  0.1374E+01  0.2638E+04
     10.908 -0.5417E+01  0.2637E+04
     10.960 -0.2387E+01  0.2637E+04
     11.012 -0.5102E+00  0.2637E+04
     11.064 -0.6500E-01  0.2637E+04
     11.116 -0.5326E-02  0.2637E+04
     11.168 -0.2869E-03  0.2637E+04
     11.220 -0.9982E-05  0.2637E+04
     11.272 -0.2167E-06  0.2637E+04
     11.324 -0.2849E-08  0.2637E+04
     11.376 -0.2224E-10  0.2637E+04
     11.427 -0.2340E-12  0.2637E+04
     11.479 -0.3076E-10  0.2637E+04
     11.531 -0.4113E-08  0.2637E+04
     11.583 -0.3170E-06  0.2637E+04
     11.635 -0.1400E-04  0.2637E+04
     11.687 -0.3502E-03  0.2637E+04
     11.739 -0.4852E-02  0.2637E+04
     11.791 -0.3536E-01  0.2637E+04
     11.843 -0.1149E+00  0.2637E+04
     11.895 -0.1055E-01  0.2637E+04
     11.947  0.9021E+00  0.2637E+04
     11.999  0.2297E+01  0.2637E+04
     12.050  0.2486E+01  0.2638E+04
     12.102  0.1540E+01  0.2638E+04
     12.154  0.1002E+01  0.2638E+04
     12.206  0.1008E+01  0.2638E+04
     12.258  0.1359E+01  0.2638E+04
     12.310  0.2239E+01  0.2638E+04
     12.362  0.3049E+01  0.2638E+04
     12.414  0.3038E+01  0.2638E+04
     12.466  0.2406E+01  0.2638E+04
     12.518  0.1943E+01  0.2638E+04
     12.570  0.2307E+01  0.2639E+04
     12.622  0.2756E+01  0.2639E+04
     12.673  0.3164E+01  0.2639E+04
     12.725  0.3750E+01  0.2639E+04
     12.777  0.3234E+01  0.2639E+04
     12.829  0.2206E+01  0.2639E+04
     12.881  0.2313E+01  0.2639E+04
     12.933  0.2495E+01  0.2640E+04
     12.985  0.1795E+01  0.2640E+04
     13.037  0.1127E+01  0.2640E+04
     13.089  0.7828E+00  0.2640E+04
     13.141  0.6888E+00  0.2640E+04
     13.193  0.9076E+00  0.2640E+04
     13.245  0.1085E+01  0.2640E+04
     13.296  0.1043E+01  0.2640E+04
     13.348  0.6646E+00  0.2640E+04
     13.400  0.1663E+00  0.2640E+04
     13.452 -0.4111E-01  0.2640E+04
     13.504 -0.3285E-01  0.2640E+04
     13.556 -0.7322E-02  0.2640E+04
     13.608 -0.7823E-03  0.2640E+04
     13.660 -0.4448E-04  0.2640E+04
     13.712 -0.1399E-05  0.2640E+04
     13.764 -0.2484E-07  0.2640E+04
     13.816 -0.2513E-09  0.2640E+04
     13.867 -0.1458E-11  0.2640E+04
     13.919 -0.5227E-14  0.2640E+04
     13.971  0.0000E+00  0.2640E+04
     14.023  0.0000E+00  0.2640E+04
     14.075  0.0000E+00  0.2640E+04
     14.127  0.0000E+00  0.2640E+04
     14.179  0.0000E+00  0.2640E+04
     14.231  0.0000E+00  0.2640E+04
     14.283  0.0000E+00  0.2640E+04
