  64  64   0   0
  0.1423039E+02  0.8601416E-09  0.7695013E-09  0.1538398E-08  0.5000000E-15
  1.000000000000000E-004
  CAR 
 Ir_Ru                                   
     11.92155118     -1.38880083  301      9.34029997      1.00000000
     -1.389  0.0000E+00  0.0000E+00
     -1.344  0.0000E+00  0.0000E+00
     -1.300  0.0000E+00  0.0000E+00
     -1.256  0.0000E+00  0.0000E+00
     -1.211  0.0000E+00  0.0000E+00
     -1.167  0.0000E+00  0.0000E+00
     -1.123  0.0000E+00  0.0000E+00
     -1.078  0.0000E+00  0.0000E+00
     -1.034  0.0000E+00  0.0000E+00
     -0.989  0.0000E+00  0.0000E+00
     -0.945  0.0000E+00  0.0000E+00
     -0.901  0.0000E+00  0.0000E+00
     -0.856  0.0000E+00  0.0000E+00
     -0.812  0.0000E+00  0.0000E+00
     -0.768  0.0000E+00  0.0000E+00
     -0.723  0.0000E+00  0.0000E+00
     -0.679  0.0000E+00  0.0000E+00
     -0.635  0.0000E+00  0.0000E+00
     -0.590  0.0000E+00  0.0000E+00
     -0.546  0.0000E+00  0.0000E+00
     -0.501  0.0000E+00  0.0000E+00
     -0.457  0.0000E+00  0.0000E+00
     -0.413  0.0000E+00  0.0000E+00
     -0.368  0.7720E-01  0.5265E-03
     -0.324  0.7358E+00  0.1639E-01
     -0.280  0.1825E+01  0.7309E-01
     -0.235  0.1977E+01  0.1608E+00
     -0.191  0.1739E+01  0.2441E+00
     -0.147  0.1797E+01  0.3216E+00
     -0.102  0.1906E+01  0.4038E+00
     -0.058  0.2000E+01  0.4906E+00
     -0.013  0.2022E+01  0.5801E+00
      0.031  0.1992E+01  0.6692E+00
      0.075  0.1974E+01  0.7570E+00
      0.120  0.2142E+01  0.8473E+00
      0.164  0.2558E+01  0.9509E+00
      0.208  0.2925E+01  0.1073E+01
      0.253  0.3245E+01  0.1210E+01
      0.297  0.3908E+01  0.1364E+01
      0.342  0.4400E+01  0.1551E+01
      0.386  0.4174E+01  0.1741E+01
      0.430  0.4564E+01  0.1932E+01
      0.475  0.4913E+01  0.2146E+01
      0.519  0.4311E+01  0.2353E+01
      0.563  0.4023E+01  0.2535E+01
      0.608  0.3944E+01  0.2712E+01
      0.652  0.4034E+01  0.2888E+01
      0.696  0.4364E+01  0.3074E+01
      0.741  0.5098E+01  0.3281E+01
      0.785  0.6960E+01  0.3531E+01
      0.830  0.5467E+01  0.3832E+01
      0.874  0.5007E+01  0.4055E+01
      0.918  0.4012E+01  0.4270E+01
      0.963  0.4065E+01  0.4443E+01
      1.007  0.7041E+01  0.4666E+01
      1.051  0.7946E+01  0.5001E+01
      1.096  0.6207E+01  0.5320E+01
      1.140  0.6081E+01  0.5585E+01
      1.185  0.6741E+01  0.5869E+01
      1.229  0.7205E+01  0.6182E+01
      1.273  0.8047E+01  0.6515E+01
      1.318  0.7206E+01  0.6874E+01
      1.362  0.6243E+01  0.7159E+01
      1.406  0.6783E+01  0.7446E+01
      1.451  0.5830E+01  0.7731E+01
      1.495  0.5936E+01  0.7988E+01
      1.539  0.8341E+01  0.8301E+01
      1.584  0.1029E+02  0.8716E+01
      1.628  0.1069E+02  0.9194E+01
      1.673  0.9895E+01  0.9653E+01
      1.717  0.1017E+02  0.1009E+02
      1.761  0.1125E+02  0.1056E+02
      1.806  0.1240E+02  0.1109E+02
      1.850  0.1426E+02  0.1167E+02
      1.894  0.1450E+02  0.1232E+02
      1.939  0.1511E+02  0.1295E+02
      1.983  0.1687E+02  0.1370E+02
      2.028  0.1564E+02  0.1441E+02
      2.072  0.1785E+02  0.1515E+02
      2.116  0.1859E+02  0.1600E+02
      2.161  0.1851E+02  0.1683E+02
      2.205  0.2493E+02  0.1777E+02
      2.249  0.2823E+02  0.1898E+02
      2.294  0.2942E+02  0.2036E+02
      2.338  0.2597E+02  0.2152E+02
      2.382  0.2269E+02  0.2269E+02
      2.427  0.3232E+02  0.2405E+02
      2.471  0.3263E+02  0.2563E+02
      2.516  0.2963E+02  0.2683E+02
      2.560  0.3761E+02  0.2837E+02
      2.604  0.3914E+02  0.2979E+02
      2.649  0.4041E+02  0.3159E+02
      2.693  0.4039E+02  0.3350E+02
      2.737  0.4689E+02  0.3544E+02
      2.782  0.4981E+02  0.3754E+02
      2.826  0.5787E+02  0.3988E+02
      2.871  0.6664E+02  0.4271E+02
      2.915  0.6622E+02  0.4570E+02
      2.959  0.6955E+02  0.4862E+02
      3.004  0.7146E+02  0.5164E+02
      3.048  0.7585E+02  0.5496E+02
      3.092  0.7127E+02  0.5824E+02
      3.137  0.7410E+02  0.6154E+02
      3.181  0.7576E+02  0.6495E+02
      3.225  0.7877E+02  0.6835E+02
      3.270  0.8201E+02  0.7206E+02
      3.314  0.9137E+02  0.7569E+02
      3.359  0.7682E+02  0.7920E+02
      3.403  0.8232E+02  0.8284E+02
      3.447  0.8826E+02  0.8667E+02
      3.492  0.8488E+02  0.9061E+02
      3.536  0.8486E+02  0.9426E+02
      3.580  0.9524E+02  0.9828E+02
      3.625  0.8956E+02  0.1023E+03
      3.669  0.8845E+02  0.1061E+03
      3.714  0.8998E+02  0.1101E+03
      3.758  0.8811E+02  0.1141E+03
      3.802  0.8758E+02  0.1179E+03
      3.847  0.7869E+02  0.1214E+03
      3.891  0.8504E+02  0.1251E+03
      3.935  0.7707E+02  0.1288E+03
      3.980  0.8233E+02  0.1322E+03
      4.024  0.8581E+02  0.1360E+03
      4.068  0.7941E+02  0.1396E+03
      4.113  0.7297E+02  0.1430E+03
      4.157  0.6482E+02  0.1461E+03
      4.202  0.6456E+02  0.1489E+03
      4.246  0.6600E+02  0.1518E+03
      4.290  0.6474E+02  0.1548E+03
      4.335  0.6230E+02  0.1576E+03
      4.379  0.6063E+02  0.1602E+03
      4.423  0.6085E+02  0.1629E+03
      4.468  0.5846E+02  0.1655E+03
      4.512  0.7127E+02  0.1684E+03
      4.556  0.6250E+02  0.1712E+03
      4.601  0.6106E+02  0.1739E+03
      4.645  0.7800E+02  0.1770E+03
      4.690  0.7452E+02  0.1804E+03
      4.734  0.7454E+02  0.1838E+03
      4.778  0.7372E+02  0.1869E+03
      4.823  0.7397E+02  0.1903E+03
      4.867  0.7573E+02  0.1936E+03
      4.911  0.7442E+02  0.1970E+03
      4.956  0.6251E+02  0.2000E+03
      5.000  0.8375E+02  0.2033E+03
      5.045  0.7429E+02  0.2064E+03
      5.089  0.6799E+02  0.2099E+03
      5.133  0.7374E+02  0.2132E+03
      5.178  0.6872E+02  0.2164E+03
      5.222  0.7231E+02  0.2197E+03
      5.266  0.7385E+02  0.2230E+03
      5.311  0.7383E+02  0.2261E+03
      5.355  0.7001E+02  0.2293E+03
      5.399  0.7734E+02  0.2326E+03
      5.444  0.8330E+02  0.2362E+03
      5.488  0.7429E+02  0.2396E+03
      5.533  0.7815E+02  0.2432E+03
      5.577  0.7553E+02  0.2466E+03
      5.621  0.8106E+02  0.2500E+03
      5.666  0.8155E+02  0.2536E+03
      5.710  0.8113E+02  0.2573E+03
      5.754  0.7968E+02  0.2610E+03
      5.799  0.8222E+02  0.2645E+03
      5.843  0.8376E+02  0.2682E+03
      5.888  0.8380E+02  0.2719E+03
      5.932  0.7971E+02  0.2754E+03
      5.976  0.8669E+02  0.2790E+03
      6.021  0.8899E+02  0.2830E+03
      6.065  0.9021E+02  0.2870E+03
      6.109  0.9420E+02  0.2911E+03
      6.154  0.9425E+02  0.2954E+03
      6.198  0.9880E+02  0.2995E+03
      6.242  0.1023E+03  0.3040E+03
      6.287  0.1037E+03  0.3086E+03
      6.331  0.1166E+03  0.3135E+03
      6.376  0.1146E+03  0.3185E+03
      6.420  0.1181E+03  0.3237E+03
      6.464  0.1214E+03  0.3290E+03
      6.509  0.1193E+03  0.3345E+03
      6.553  0.1165E+03  0.3396E+03
      6.597  0.1095E+03  0.3446E+03
      6.642  0.1106E+03  0.3495E+03
      6.686  0.1096E+03  0.3543E+03
      6.731  0.1105E+03  0.3593E+03
      6.775  0.9534E+02  0.3638E+03
      6.819  0.9076E+02  0.3679E+03
      6.864  0.9135E+02  0.3720E+03
      6.908  0.8985E+02  0.3761E+03
      6.952  0.8004E+02  0.3798E+03
      6.997  0.8059E+02  0.3834E+03
      7.041  0.7933E+02  0.3869E+03
      7.085  0.7206E+02  0.3903E+03
      7.130  0.7476E+02  0.3936E+03
      7.174  0.7825E+02  0.3970E+03
      7.219  0.7901E+02  0.4004E+03
      7.263  0.7381E+02  0.4038E+03
      7.307  0.7225E+02  0.4070E+03
      7.352  0.6528E+02  0.4101E+03
      7.396  0.6502E+02  0.4130E+03
      7.440  0.6804E+02  0.4159E+03
      7.485  0.6647E+02  0.4189E+03
      7.529  0.6495E+02  0.4218E+03
      7.574  0.6129E+02  0.4247E+03
      7.618  0.6251E+02  0.4274E+03
      7.662  0.6575E+02  0.4302E+03
      7.707  0.6371E+02  0.4331E+03
      7.751  0.6578E+02  0.4360E+03
      7.795  0.7434E+02  0.4390E+03
      7.840  0.7474E+02  0.4423E+03
      7.884  0.7976E+02  0.4457E+03
      7.928  0.8390E+02  0.4494E+03
      7.973  0.8232E+02  0.4531E+03
      8.017  0.8430E+02  0.4567E+03
      8.062  0.7553E+02  0.4603E+03
      8.106  0.7315E+02  0.4636E+03
      8.150  0.7804E+02  0.4669E+03
      8.195  0.7816E+02  0.4703E+03
      8.239  0.7797E+02  0.4738E+03
      8.283  0.7821E+02  0.4772E+03
      8.328  0.6941E+02  0.4806E+03
      8.372  0.6776E+02  0.4837E+03
      8.416  0.6289E+02  0.4866E+03
      8.461  0.6191E+02  0.4894E+03
      8.505  0.6694E+02  0.4922E+03
      8.550  0.7873E+02  0.4954E+03
      8.594  0.8031E+02  0.4990E+03
      8.638  0.7046E+02  0.5023E+03
      8.683  0.6952E+02  0.5055E+03
      8.727  0.7209E+02  0.5087E+03
      8.771  0.6777E+02  0.5118E+03
      8.816  0.7092E+02  0.5149E+03
      8.860  0.7830E+02  0.5181E+03
      8.905  0.7187E+02  0.5214E+03
      8.949  0.6144E+02  0.5242E+03
      8.993  0.5660E+02  0.5268E+03
      9.038  0.5818E+02  0.5294E+03
      9.082  0.5384E+02  0.5318E+03
      9.126  0.5740E+02  0.5343E+03
      9.171  0.5914E+02  0.5370E+03
      9.215  0.6468E+02  0.5397E+03
      9.259  0.6872E+02  0.5427E+03
      9.304  0.6648E+02  0.5457E+03
      9.348  0.5883E+02  0.5485E+03
      9.393  0.5847E+02  0.5511E+03
      9.437  0.6151E+02  0.5537E+03
      9.481  0.6312E+02  0.5565E+03
      9.526  0.6851E+02  0.5594E+03
      9.570  0.6505E+02  0.5624E+03
      9.614  0.6482E+02  0.5653E+03
      9.659  0.6009E+02  0.5681E+03
      9.703  0.5778E+02  0.5707E+03
      9.748  0.5812E+02  0.5732E+03
      9.792  0.6185E+02  0.5758E+03
      9.836  0.6379E+02  0.5786E+03
      9.881  0.6511E+02  0.5815E+03
      9.925  0.7790E+02  0.5846E+03
      9.969  0.7986E+02  0.5882E+03
     10.014  0.7494E+02  0.5916E+03
     10.058  0.7616E+02  0.5948E+03
     10.102  0.7308E+02  0.5981E+03
     10.147  0.8063E+02  0.6016E+03
     10.191  0.8214E+02  0.6051E+03
     10.236  0.9117E+02  0.6090E+03
     10.280  0.9653E+02  0.6132E+03
     10.324  0.9895E+02  0.6175E+03
     10.369  0.1113E+03  0.6222E+03
     10.413  0.1135E+03  0.6271E+03
     10.457  0.1190E+03  0.6323E+03
     10.502  0.1028E+03  0.6372E+03
     10.546  0.9935E+02  0.6418E+03
     10.591  0.9347E+02  0.6461E+03
     10.635  0.8410E+02  0.6499E+03
     10.679  0.5024E+02  0.6530E+03
     10.724  0.2456E+02  0.6546E+03
     10.768  0.1357E+02  0.6554E+03
     10.812  0.5884E+01  0.6558E+03
     10.857  0.1796E+01  0.6560E+03
     10.901  0.1533E+00  0.6560E+03
     10.945  0.0000E+00  0.6560E+03
     10.990  0.0000E+00  0.6560E+03
     11.034  0.0000E+00  0.6560E+03
     11.079  0.0000E+00  0.6560E+03
     11.123  0.0000E+00  0.6560E+03
     11.167  0.0000E+00  0.6560E+03
     11.212  0.0000E+00  0.6560E+03
     11.256  0.0000E+00  0.6560E+03
     11.300  0.0000E+00  0.6560E+03
     11.345  0.0000E+00  0.6560E+03
     11.389  0.0000E+00  0.6560E+03
     11.434  0.0000E+00  0.6560E+03
     11.478  0.0000E+00  0.6560E+03
     11.522  0.0000E+00  0.6560E+03
     11.567  0.0000E+00  0.6560E+03
     11.611  0.0000E+00  0.6560E+03
     11.655  0.0000E+00  0.6560E+03
     11.700  0.0000E+00  0.6560E+03
     11.744  0.0000E+00  0.6560E+03
     11.788  0.0000E+00  0.6560E+03
     11.833  0.0000E+00  0.6560E+03
     11.877  0.0000E+00  0.6560E+03
     11.922  0.0000E+00  0.6560E+03
