 256 256   0   0
  0.1418917E+02  0.1588033E-08  0.1692661E-08  0.1693229E-08  0.5000000E-15
  1.000000000000000E-004
  CAR 
 Ir_Ru                                   
     14.28084305     -1.29184657  301      9.45693970      1.00000000
     -1.292  0.0000E+00  0.0000E+00
     -1.240  0.0000E+00  0.0000E+00
     -1.188  0.0000E+00  0.0000E+00
     -1.136 -0.2818E-30 -0.1463E-31
     -1.084 -0.1294E-26 -0.6718E-28
     -1.032 -0.3452E-23 -0.1793E-24
     -0.980 -0.5345E-20 -0.2777E-21
     -0.928 -0.4801E-17 -0.2495E-18
     -0.877 -0.2440E-14 -0.1269E-15
     -0.825 -0.7268E-12 -0.3785E-13
     -0.773 -0.1255E-09 -0.6553E-11
     -0.721 -0.1246E-07 -0.6535E-09
     -0.669 -0.7089E-06 -0.3745E-07
     -0.617 -0.2296E-04 -0.1229E-05
     -0.565 -0.4205E-03 -0.2306E-04
     -0.513 -0.4311E-02 -0.2468E-03
     -0.461 -0.2449E-01 -0.1518E-02
     -0.409 -0.7552E-01 -0.5438E-02
     -0.357 -0.1016E+00 -0.1071E-01
     -0.306  0.2104E+00  0.2114E-03
     -0.254  0.1655E+01  0.8611E-01
     -0.202  0.4419E+01  0.3155E+00
     -0.150  0.6360E+01  0.6457E+00
     -0.098  0.6422E+01  0.9790E+00
     -0.046  0.6973E+01  0.1341E+01
      0.006  0.8877E+01  0.1802E+01
      0.058  0.1120E+02  0.2383E+01
      0.110  0.1363E+02  0.3091E+01
      0.162  0.1433E+02  0.3835E+01
      0.214  0.1167E+02  0.4440E+01
      0.265  0.1008E+02  0.4964E+01
      0.317  0.1433E+02  0.5707E+01
      0.369  0.2039E+02  0.6766E+01
      0.421  0.2253E+02  0.7935E+01
      0.473  0.2272E+02  0.9114E+01
      0.525  0.2351E+02  0.1033E+02
      0.577  0.2249E+02  0.1150E+02
      0.629  0.2043E+02  0.1256E+02
      0.681  0.2101E+02  0.1365E+02
      0.733  0.2033E+02  0.1471E+02
      0.785  0.1450E+02  0.1546E+02
      0.836  0.8830E+01  0.1592E+02
      0.888  0.8062E+01  0.1634E+02
      0.940  0.1181E+02  0.1695E+02
      0.992  0.1908E+02  0.1794E+02
      1.044  0.2799E+02  0.1939E+02
      1.096  0.3336E+02  0.2113E+02
      1.148  0.3302E+02  0.2284E+02
      1.200  0.2873E+02  0.2433E+02
      1.252  0.2273E+02  0.2551E+02
      1.304  0.1946E+02  0.2652E+02
      1.356  0.2176E+02  0.2765E+02
      1.407  0.2725E+02  0.2907E+02
      1.459  0.3036E+02  0.3064E+02
      1.511  0.2981E+02  0.3219E+02
      1.563  0.2933E+02  0.3371E+02
      1.615  0.3041E+02  0.3529E+02
      1.667  0.3112E+02  0.3691E+02
      1.719  0.3206E+02  0.3857E+02
      1.771  0.3506E+02  0.4039E+02
      1.823  0.3914E+02  0.4242E+02
      1.875  0.4559E+02  0.4479E+02
      1.927  0.5478E+02  0.4763E+02
      1.978  0.5935E+02  0.5071E+02
      2.030  0.5464E+02  0.5355E+02
      2.082  0.5052E+02  0.5617E+02
      2.134  0.6188E+02  0.5938E+02
      2.186  0.8726E+02  0.6391E+02
      2.238  0.1090E+03  0.6957E+02
      2.290  0.1198E+03  0.7579E+02
      2.342  0.1259E+03  0.8233E+02
      2.394  0.1316E+03  0.8916E+02
      2.446  0.1377E+03  0.9631E+02
      2.498  0.1475E+03  0.1040E+03
      2.549  0.1648E+03  0.1125E+03
      2.601  0.1832E+03  0.1220E+03
      2.653  0.1950E+03  0.1322E+03
      2.705  0.2071E+03  0.1429E+03
      2.757  0.2240E+03  0.1545E+03
      2.809  0.2307E+03  0.1665E+03
      2.861  0.2244E+03  0.1782E+03
      2.913  0.2279E+03  0.1900E+03
      2.965  0.2456E+03  0.2027E+03
      3.017  0.2582E+03  0.2161E+03
      3.069  0.2601E+03  0.2296E+03
      3.120  0.2606E+03  0.2432E+03
      3.172  0.2642E+03  0.2569E+03
      3.224  0.2734E+03  0.2711E+03
      3.276  0.2886E+03  0.2861E+03
      3.328  0.3078E+03  0.3020E+03
      3.380  0.3246E+03  0.3189E+03
      3.432  0.3308E+03  0.3361E+03
      3.484  0.3276E+03  0.3531E+03
      3.536  0.3211E+03  0.3697E+03
      3.588  0.3180E+03  0.3862E+03
      3.640  0.3163E+03  0.4026E+03
      3.691  0.3108E+03  0.4188E+03
      3.743  0.3050E+03  0.4346E+03
      3.795  0.3010E+03  0.4502E+03
      3.847  0.2967E+03  0.4656E+03
      3.899  0.2932E+03  0.4809E+03
      3.951  0.2883E+03  0.4958E+03
      4.003  0.2758E+03  0.5101E+03
      4.055  0.2665E+03  0.5240E+03
      4.107  0.2762E+03  0.5383E+03
      4.159  0.2945E+03  0.5536E+03
      4.211  0.3028E+03  0.5693E+03
      4.262  0.3053E+03  0.5852E+03
      4.314  0.3124E+03  0.6014E+03
      4.366  0.3189E+03  0.6179E+03
      4.418  0.3214E+03  0.6346E+03
      4.470  0.3236E+03  0.6514E+03
      4.522  0.3208E+03  0.6681E+03
      4.574  0.3092E+03  0.6841E+03
      4.626  0.2970E+03  0.6995E+03
      4.678  0.2935E+03  0.7148E+03
      4.730  0.2984E+03  0.7303E+03
      4.782  0.3062E+03  0.7462E+03
      4.833  0.3183E+03  0.7627E+03
      4.885  0.3317E+03  0.7799E+03
      4.937  0.3379E+03  0.7974E+03
      4.989  0.3456E+03  0.8154E+03
      5.041  0.3588E+03  0.8340E+03
      5.093  0.3659E+03  0.8530E+03
      5.145  0.3642E+03  0.8719E+03
      5.197  0.3546E+03  0.8903E+03
      5.249  0.3336E+03  0.9076E+03
      5.301  0.3008E+03  0.9232E+03
      5.353  0.2595E+03  0.9367E+03
      5.404  0.2164E+03  0.9479E+03
      5.456  0.1832E+03  0.9575E+03
      5.508  0.1725E+03  0.9664E+03
      5.560  0.1904E+03  0.9763E+03
      5.612  0.2294E+03  0.9882E+03
      5.664  0.2781E+03  0.1003E+04
      5.716  0.3281E+03  0.1020E+04
      5.768  0.3696E+03  0.1039E+04
      5.820  0.3962E+03  0.1059E+04
      5.872  0.4107E+03  0.1081E+04
      5.923  0.4193E+03  0.1103E+04
      5.975  0.4259E+03  0.1125E+04
      6.027  0.4280E+03  0.1147E+04
      6.079  0.4154E+03  0.1168E+04
      6.131  0.3908E+03  0.1189E+04
      6.183  0.3712E+03  0.1208E+04
      6.235  0.3609E+03  0.1227E+04
      6.287  0.3553E+03  0.1245E+04
      6.339  0.3568E+03  0.1264E+04
      6.391  0.3699E+03  0.1283E+04
      6.443  0.3821E+03  0.1303E+04
      6.494  0.3843E+03  0.1323E+04
      6.546  0.3922E+03  0.1343E+04
      6.598  0.4107E+03  0.1364E+04
      6.650  0.4243E+03  0.1386E+04
      6.702  0.4282E+03  0.1409E+04
      6.754  0.4248E+03  0.1431E+04
      6.806  0.4122E+03  0.1452E+04
      6.858  0.3910E+03  0.1472E+04
      6.910  0.3730E+03  0.1492E+04
      6.962  0.3666E+03  0.1511E+04
      7.014  0.3638E+03  0.1530E+04
      7.065  0.3688E+03  0.1549E+04
      7.117  0.3925E+03  0.1569E+04
      7.169  0.4155E+03  0.1591E+04
      7.221  0.4224E+03  0.1613E+04
      7.273  0.4222E+03  0.1635E+04
      7.325  0.4122E+03  0.1656E+04
      7.377  0.3862E+03  0.1676E+04
      7.429  0.3575E+03  0.1695E+04
      7.481  0.3397E+03  0.1712E+04
      7.533  0.3325E+03  0.1729E+04
      7.585  0.3284E+03  0.1746E+04
      7.636  0.3161E+03  0.1763E+04
      7.688  0.2945E+03  0.1778E+04
      7.740  0.2768E+03  0.1793E+04
      7.792  0.2684E+03  0.1806E+04
      7.844  0.2633E+03  0.1820E+04
      7.896  0.2571E+03  0.1833E+04
      7.948  0.2480E+03  0.1846E+04
      8.000  0.2428E+03  0.1859E+04
      8.052  0.2431E+03  0.1872E+04
      8.104  0.2387E+03  0.1884E+04
      8.156  0.2309E+03  0.1896E+04
      8.207  0.2292E+03  0.1908E+04
      8.259  0.2338E+03  0.1920E+04
      8.311  0.2379E+03  0.1932E+04
      8.363  0.2390E+03  0.1945E+04
      8.415  0.2366E+03  0.1957E+04
      8.467  0.2281E+03  0.1969E+04
      8.519  0.2179E+03  0.1980E+04
      8.571  0.2117E+03  0.1991E+04
      8.623  0.2067E+03  0.2002E+04
      8.675  0.1994E+03  0.2012E+04
      8.727  0.1911E+03  0.2022E+04
      8.778  0.1828E+03  0.2032E+04
      8.830  0.1795E+03  0.2041E+04
      8.882  0.1893E+03  0.2051E+04
      8.934  0.2148E+03  0.2062E+04
      8.986  0.2362E+03  0.2074E+04
      9.038  0.2359E+03  0.2086E+04
      9.090  0.2226E+03  0.2098E+04
      9.142  0.2052E+03  0.2109E+04
      9.194  0.1859E+03  0.2118E+04
      9.246  0.1793E+03  0.2128E+04
      9.298  0.1994E+03  0.2138E+04
      9.349  0.2301E+03  0.2150E+04
      9.401  0.2433E+03  0.2163E+04
      9.453  0.2429E+03  0.2175E+04
      9.505  0.2450E+03  0.2188E+04
      9.557  0.2441E+03  0.2201E+04
      9.609  0.2472E+03  0.2213E+04
      9.661  0.2773E+03  0.2228E+04
      9.713  0.3198E+03  0.2244E+04
      9.765  0.3355E+03  0.2262E+04
      9.817  0.3254E+03  0.2279E+04
      9.869  0.3162E+03  0.2295E+04
      9.920  0.3155E+03  0.2311E+04
      9.972  0.3227E+03  0.2328E+04
     10.024  0.3454E+03  0.2346E+04
     10.076  0.3827E+03  0.2366E+04
     10.128  0.4145E+03  0.2387E+04
     10.180  0.4290E+03  0.2410E+04
     10.232  0.4369E+03  0.2432E+04
     10.284  0.4499E+03  0.2456E+04
     10.336  0.4687E+03  0.2480E+04
     10.388  0.4873E+03  0.2505E+04
     10.440  0.4976E+03  0.2531E+04
     10.491  0.4882E+03  0.2557E+04
     10.543  0.4483E+03  0.2580E+04
     10.595  0.3865E+03  0.2600E+04
     10.647  0.3165E+03  0.2616E+04
     10.699  0.2312E+03  0.2628E+04
     10.751  0.1306E+03  0.2635E+04
     10.803  0.4475E+02  0.2637E+04
     10.855  0.1969E+01  0.2638E+04
     10.907 -0.5546E+01  0.2637E+04
     10.959 -0.2481E+01  0.2637E+04
     11.011 -0.5287E+00  0.2637E+04
     11.062 -0.6825E-01  0.2637E+04
     11.114 -0.5999E-02  0.2637E+04
     11.166 -0.3711E-03  0.2637E+04
     11.218 -0.1536E-04  0.2637E+04
     11.270 -0.3971E-06  0.2637E+04
     11.322 -0.6127E-08  0.2637E+04
     11.374 -0.5531E-10  0.2637E+04
     11.426 -0.3160E-12  0.2637E+04
     11.478 -0.7351E-11  0.2637E+04
     11.530 -0.1125E-08  0.2637E+04
     11.582 -0.9905E-07  0.2637E+04
     11.633 -0.4988E-05  0.2637E+04
     11.685 -0.1421E-03  0.2637E+04
     11.737 -0.2243E-02  0.2637E+04
     11.789 -0.1880E-01  0.2637E+04
     11.841 -0.7413E-01  0.2637E+04
     11.893 -0.6545E-01  0.2637E+04
     11.945  0.4097E+00  0.2637E+04
     11.997  0.1402E+01  0.2637E+04
     12.049  0.2234E+01  0.2637E+04
     12.101  0.2739E+01  0.2637E+04
     12.153  0.2736E+01  0.2638E+04
     12.204  0.2250E+01  0.2638E+04
     12.256  0.2208E+01  0.2638E+04
     12.308  0.2373E+01  0.2638E+04
     12.360  0.2381E+01  0.2638E+04
     12.412  0.2522E+01  0.2638E+04
     12.464  0.2290E+01  0.2638E+04
     12.516  0.1722E+01  0.2638E+04
     12.568  0.1948E+01  0.2639E+04
     12.620  0.2525E+01  0.2639E+04
     12.672  0.2893E+01  0.2639E+04
     12.724  0.3397E+01  0.2639E+04
     12.775  0.3551E+01  0.2639E+04
     12.827  0.3249E+01  0.2639E+04
     12.879  0.2898E+01  0.2639E+04
     12.931  0.2249E+01  0.2640E+04
     12.983  0.1407E+01  0.2640E+04
     13.035  0.9821E+00  0.2640E+04
     13.087  0.8454E+00  0.2640E+04
     13.139  0.7858E+00  0.2640E+04
     13.191  0.9395E+00  0.2640E+04
     13.243  0.1087E+01  0.2640E+04
     13.295  0.1043E+01  0.2640E+04
     13.346  0.6633E+00  0.2640E+04
     13.398  0.1650E+00  0.2640E+04
     13.450 -0.4139E-01  0.2640E+04
     13.502 -0.3280E-01  0.2640E+04
     13.554 -0.7298E-02  0.2640E+04
     13.606 -0.7789E-03  0.2640E+04
     13.658 -0.4425E-04  0.2640E+04
     13.710 -0.1391E-05  0.2640E+04
     13.762 -0.2469E-07  0.2640E+04
     13.814 -0.2498E-09  0.2640E+04
     13.866 -0.1449E-11  0.2640E+04
     13.917 -0.5228E-14  0.2640E+04
     13.969  0.0000E+00  0.2640E+04
     14.021  0.0000E+00  0.2640E+04
     14.073  0.0000E+00  0.2640E+04
     14.125  0.0000E+00  0.2640E+04
     14.177  0.0000E+00  0.2640E+04
     14.229  0.0000E+00  0.2640E+04
     14.281  0.0000E+00  0.2640E+04
