 256 256   0   0
  0.1418917E+02  0.1588033E-08  0.1692661E-08  0.1693229E-08  0.5000000E-15
  1.000000000000000E-004
  CAR 
 Ir_Ru                                   
     14.25853627     -1.29204073  301      9.45701531      1.00000000
     -1.292  0.0000E+00  0.0000E+00
     -1.240  0.0000E+00  0.0000E+00
     -1.188  0.0000E+00  0.0000E+00
     -1.137 -0.2720E-30 -0.1410E-31
     -1.085 -0.1237E-26 -0.6414E-28
     -1.033 -0.3275E-23 -0.1698E-24
     -0.981 -0.5040E-20 -0.2614E-21
     -0.929 -0.4506E-17 -0.2338E-18
     -0.877 -0.2278E-14 -0.1183E-15
     -0.826 -0.6790E-12 -0.3531E-13
     -0.774 -0.1173E-09 -0.6114E-11
     -0.722 -0.1167E-07 -0.6108E-09
     -0.670 -0.6657E-06 -0.3512E-07
     -0.618 -0.2167E-04 -0.1159E-05
     -0.566 -0.3996E-03 -0.2187E-04
     -0.515 -0.4132E-02 -0.2361E-03
     -0.463 -0.2372E-01 -0.1465E-02
     -0.411 -0.7411E-01 -0.5307E-02
     -0.359 -0.1029E+00 -0.1064E-01
     -0.307  0.1919E+00 -0.6951E-03
     -0.255  0.1593E+01  0.8188E-01
     -0.204  0.4337E+01  0.3067E+00
     -0.152  0.6335E+01  0.6351E+00
     -0.100  0.6426E+01  0.9681E+00
     -0.048  0.6929E+01  0.1327E+01
      0.004  0.8803E+01  0.1784E+01
      0.056  0.1112E+02  0.2360E+01
      0.108  0.1355E+02  0.3062E+01
      0.159  0.1437E+02  0.3807E+01
      0.211  0.1180E+02  0.4419E+01
      0.263  0.1004E+02  0.4939E+01
      0.315  0.1407E+02  0.5668E+01
      0.367  0.2020E+02  0.6715E+01
      0.419  0.2250E+02  0.7882E+01
      0.470  0.2267E+02  0.9057E+01
      0.522  0.2348E+02  0.1027E+02
      0.574  0.2261E+02  0.1145E+02
      0.626  0.2048E+02  0.1251E+02
      0.678  0.2094E+02  0.1359E+02
      0.730  0.2051E+02  0.1466E+02
      0.781  0.1489E+02  0.1543E+02
      0.833  0.9032E+01  0.1590E+02
      0.885  0.7976E+01  0.1631E+02
      0.937  0.1149E+02  0.1691E+02
      0.989  0.1851E+02  0.1787E+02
      1.041  0.2745E+02  0.1929E+02
      1.092  0.3326E+02  0.2101E+02
      1.144  0.3324E+02  0.2274E+02
      1.196  0.2909E+02  0.2424E+02
      1.248  0.2308E+02  0.2544E+02
      1.300  0.1951E+02  0.2645E+02
      1.352  0.2144E+02  0.2756E+02
      1.403  0.2687E+02  0.2895E+02
      1.455  0.3027E+02  0.3052E+02
      1.507  0.2990E+02  0.3207E+02
      1.559  0.2930E+02  0.3359E+02
      1.611  0.3031E+02  0.3516E+02
      1.663  0.3108E+02  0.3678E+02
      1.714  0.3189E+02  0.3843E+02
      1.766  0.3472E+02  0.4023E+02
      1.818  0.3875E+02  0.4224E+02
      1.870  0.4492E+02  0.4456E+02
      1.922  0.5402E+02  0.4736E+02
      1.974  0.5929E+02  0.5044E+02
      2.025  0.5526E+02  0.5330E+02
      2.077  0.5046E+02  0.5592E+02
      2.129  0.6014E+02  0.5904E+02
      2.181  0.8488E+02  0.6343E+02
      2.233  0.1075E+03  0.6901E+02
      2.285  0.1192E+03  0.7518E+02
      2.336  0.1254E+03  0.8168E+02
      2.388  0.1311E+03  0.8848E+02
      2.440  0.1370E+03  0.9558E+02
      2.492  0.1460E+03  0.1032E+03
      2.544  0.1626E+03  0.1116E+03
      2.596  0.1814E+03  0.1210E+03
      2.647  0.1940E+03  0.1310E+03
      2.699  0.2055E+03  0.1417E+03
      2.751  0.2224E+03  0.1532E+03
      2.803  0.2310E+03  0.1652E+03
      2.855  0.2252E+03  0.1769E+03
      2.907  0.2266E+03  0.1886E+03
      2.958  0.2434E+03  0.2012E+03
      3.010  0.2571E+03  0.2146E+03
      3.062  0.2598E+03  0.2280E+03
      3.114  0.2602E+03  0.2415E+03
      3.166  0.2633E+03  0.2552E+03
      3.218  0.2717E+03  0.2692E+03
      3.269  0.2862E+03  0.2841E+03
      3.321  0.3054E+03  0.2999E+03
      3.373  0.3230E+03  0.3167E+03
      3.425  0.3306E+03  0.3338E+03
      3.477  0.3284E+03  0.3508E+03
      3.529  0.3219E+03  0.3675E+03
      3.580  0.3181E+03  0.3840E+03
      3.632  0.3167E+03  0.4004E+03
      3.684  0.3117E+03  0.4166E+03
      3.736  0.3056E+03  0.4324E+03
      3.788  0.3015E+03  0.4480E+03
      3.840  0.2974E+03  0.4634E+03
      3.891  0.2937E+03  0.4787E+03
      3.943  0.2895E+03  0.4937E+03
      3.995  0.2778E+03  0.5081E+03
      4.047  0.2668E+03  0.5219E+03
      4.099  0.2737E+03  0.5361E+03
      4.151  0.2924E+03  0.5512E+03
      4.202  0.3025E+03  0.5669E+03
      4.254  0.3047E+03  0.5827E+03
      4.306  0.3109E+03  0.5988E+03
      4.358  0.3179E+03  0.6153E+03
      4.410  0.3208E+03  0.6319E+03
      4.462  0.3234E+03  0.6487E+03
      4.514  0.3219E+03  0.6654E+03
      4.565  0.3113E+03  0.6815E+03
      4.617  0.2985E+03  0.6970E+03
      4.669  0.2934E+03  0.7122E+03
      4.721  0.2973E+03  0.7276E+03
      4.773  0.3047E+03  0.7434E+03
      4.825  0.3160E+03  0.7598E+03
      4.876  0.3300E+03  0.7769E+03
      4.928  0.3372E+03  0.7944E+03
      4.980  0.3436E+03  0.8122E+03
      5.032  0.3564E+03  0.8307E+03
      5.084  0.3650E+03  0.8496E+03
      5.136  0.3646E+03  0.8685E+03
      5.187  0.3569E+03  0.8870E+03
      5.239  0.3384E+03  0.9045E+03
      5.291  0.3077E+03  0.9205E+03
      5.343  0.2677E+03  0.9343E+03
      5.395  0.2243E+03  0.9460E+03
      5.447  0.1883E+03  0.9557E+03
      5.498  0.1726E+03  0.9647E+03
      5.550  0.1851E+03  0.9743E+03
      5.602  0.2210E+03  0.9857E+03
      5.654  0.2683E+03  0.9996E+03
      5.706  0.3186E+03  0.1016E+04
      5.758  0.3623E+03  0.1035E+04
      5.809  0.3918E+03  0.1055E+04
      5.861  0.4086E+03  0.1076E+04
      5.913  0.4182E+03  0.1098E+04
      5.965  0.4251E+03  0.1120E+04
      6.017  0.4286E+03  0.1142E+04
      6.069  0.4192E+03  0.1164E+04
      6.120  0.3956E+03  0.1185E+04
      6.172  0.3740E+03  0.1204E+04
      6.224  0.3623E+03  0.1223E+04
      6.276  0.3561E+03  0.1241E+04
      6.328  0.3556E+03  0.1260E+04
      6.380  0.3668E+03  0.1279E+04
      6.431  0.3808E+03  0.1298E+04
      6.483  0.3842E+03  0.1318E+04
      6.535  0.3894E+03  0.1338E+04
      6.587  0.4067E+03  0.1360E+04
      6.639  0.4223E+03  0.1381E+04
      6.691  0.4279E+03  0.1404E+04
      6.742  0.4260E+03  0.1426E+04
      6.794  0.4158E+03  0.1447E+04
      6.846  0.3959E+03  0.1468E+04
      6.898  0.3760E+03  0.1487E+04
      6.950  0.3672E+03  0.1506E+04
      7.002  0.3641E+03  0.1525E+04
      7.053  0.3660E+03  0.1544E+04
      7.105  0.3862E+03  0.1564E+04
      7.157  0.4117E+03  0.1586E+04
      7.209  0.4217E+03  0.1607E+04
      7.261  0.4226E+03  0.1629E+04
      7.313  0.4164E+03  0.1651E+04
      7.364  0.3938E+03  0.1671E+04
      7.416  0.3637E+03  0.1690E+04
      7.468  0.3427E+03  0.1708E+04
      7.520  0.3334E+03  0.1725E+04
      7.572  0.3297E+03  0.1742E+04
      7.624  0.3202E+03  0.1759E+04
      7.675  0.3001E+03  0.1774E+04
      7.727  0.2803E+03  0.1789E+04
      7.779  0.2700E+03  0.1803E+04
      7.831  0.2648E+03  0.1817E+04
      7.883  0.2590E+03  0.1830E+04
      7.935  0.2501E+03  0.1843E+04
      7.986  0.2431E+03  0.1856E+04
      8.038  0.2431E+03  0.1868E+04
      8.090  0.2406E+03  0.1881E+04
      8.142  0.2328E+03  0.1893E+04
      8.194  0.2289E+03  0.1905E+04
      8.246  0.2323E+03  0.1917E+04
      8.297  0.2371E+03  0.1929E+04
      8.349  0.2391E+03  0.1941E+04
      8.401  0.2379E+03  0.1954E+04
      8.453  0.2309E+03  0.1966E+04
      8.505  0.2203E+03  0.1977E+04
      8.557  0.2130E+03  0.1988E+04
      8.608  0.2083E+03  0.1999E+04
      8.660  0.2015E+03  0.2009E+04
      8.712  0.1933E+03  0.2019E+04
      8.764  0.1848E+03  0.2029E+04
      8.816  0.1795E+03  0.2038E+04
      8.868  0.1847E+03  0.2048E+04
      8.920  0.2067E+03  0.2059E+04
      8.971  0.2321E+03  0.2071E+04
      9.023  0.2379E+03  0.2083E+04
      9.075  0.2269E+03  0.2095E+04
      9.127  0.2106E+03  0.2106E+04
      9.179  0.1912E+03  0.2116E+04
      9.231  0.1787E+03  0.2125E+04
      9.282  0.1911E+03  0.2135E+04
      9.334  0.2219E+03  0.2146E+04
      9.386  0.2416E+03  0.2159E+04
      9.438  0.2431E+03  0.2171E+04
      9.490  0.2443E+03  0.2184E+04
      9.542  0.2450E+03  0.2197E+04
      9.593  0.2442E+03  0.2209E+04
      9.645  0.2653E+03  0.2223E+04
      9.697  0.3085E+03  0.2239E+04
      9.749  0.3346E+03  0.2256E+04
      9.801  0.3295E+03  0.2274E+04
      9.853  0.3181E+03  0.2290E+04
      9.904  0.3151E+03  0.2306E+04
      9.956  0.3192E+03  0.2323E+04
     10.008  0.3361E+03  0.2340E+04
     10.060  0.3703E+03  0.2360E+04
     10.112  0.4064E+03  0.2381E+04
     10.164  0.4260E+03  0.2403E+04
     10.215  0.4341E+03  0.2425E+04
     10.267  0.4450E+03  0.2448E+04
     10.319  0.4624E+03  0.2472E+04
     10.371  0.4820E+03  0.2497E+04
     10.423  0.4958E+03  0.2523E+04
     10.475  0.4945E+03  0.2549E+04
     10.526  0.4651E+03  0.2573E+04
     10.578  0.4088E+03  0.2594E+04
     10.630  0.3417E+03  0.2612E+04
     10.682  0.2627E+03  0.2625E+04
     10.734  0.1642E+03  0.2634E+04
     10.786  0.6845E+02  0.2637E+04
     10.837  0.1056E+02  0.2638E+04
     10.889 -0.5410E+01  0.2637E+04
     10.941 -0.3548E+01  0.2637E+04
     10.993 -0.9260E+00  0.2637E+04
     11.045 -0.1410E+00  0.2637E+04
     11.097 -0.1451E-01  0.2637E+04
     11.148 -0.1070E-02  0.2637E+04
     11.200 -0.9670E-04  0.2637E+04
     11.252 -0.7558E-03  0.2637E+04
     11.304 -0.7078E-02  0.2637E+04
     11.356 -0.3165E-01  0.2637E+04
     11.408 -0.3591E-01  0.2637E+04
     11.459  0.1882E+00  0.2637E+04
     11.511  0.6946E+00  0.2637E+04
     11.563  0.8885E+00  0.2637E+04
     11.615  0.4678E+00  0.2637E+04
     11.667  0.4574E-01  0.2637E+04
     11.719 -0.5752E-01  0.2637E+04
     11.770 -0.6400E-01  0.2637E+04
     11.822 -0.4982E-01  0.2637E+04
     11.874  0.2208E+00  0.2637E+04
     11.926  0.8749E+00  0.2637E+04
     11.978  0.1592E+01  0.2637E+04
     12.030  0.2026E+01  0.2638E+04
     12.081  0.1961E+01  0.2638E+04
     12.133  0.1356E+01  0.2638E+04
     12.185  0.7536E+00  0.2638E+04
     12.237  0.9031E+00  0.2638E+04
     12.289  0.1565E+01  0.2638E+04
     12.341  0.2005E+01  0.2638E+04
     12.392  0.2277E+01  0.2638E+04
     12.444  0.2409E+01  0.2638E+04
     12.496  0.1898E+01  0.2638E+04
     12.548  0.1599E+01  0.2638E+04
     12.600  0.2546E+01  0.2639E+04
     12.652  0.3937E+01  0.2639E+04
     12.703  0.4769E+01  0.2639E+04
     12.755  0.4177E+01  0.2639E+04
     12.807  0.2833E+01  0.2639E+04
     12.859  0.2537E+01  0.2640E+04
     12.911  0.2700E+01  0.2640E+04
     12.963  0.1862E+01  0.2640E+04
     13.014  0.5713E+00  0.2640E+04
     13.066 -0.8609E-01  0.2640E+04
     13.118  0.1953E-01  0.2640E+04
     13.170  0.6699E+00  0.2640E+04
     13.222  0.1367E+01  0.2640E+04
     13.274  0.1406E+01  0.2640E+04
     13.326  0.7617E+00  0.2640E+04
     13.377  0.1391E+00  0.2640E+04
     13.429 -0.5731E-01  0.2640E+04
     13.481 -0.3496E-01  0.2640E+04
     13.533 -0.7283E-02  0.2640E+04
     13.585 -0.7539E-03  0.2640E+04
     13.637 -0.4212E-04  0.2640E+04
     13.688 -0.1312E-05  0.2640E+04
     13.740 -0.2315E-07  0.2640E+04
     13.792 -0.2336E-09  0.2640E+04
     13.844 -0.1355E-11  0.2640E+04
     13.896 -0.4760E-14  0.2640E+04
     13.948  0.0000E+00  0.2640E+04
     13.999  0.0000E+00  0.2640E+04
     14.051  0.0000E+00  0.2640E+04
     14.103  0.0000E+00  0.2640E+04
     14.155  0.0000E+00  0.2640E+04
     14.207  0.0000E+00  0.2640E+04
     14.259  0.0000E+00  0.2640E+04
