 256 256   0   0
  0.1419206E+02  0.1537080E-08  0.1537218E-08  0.1537636E-08  0.5000000E-15
  1.000000000000000E-004
  CAR 
 Ir_Ru                                   
     12.68713568     -1.29521902  301      9.24216425      1.00000000
     -1.295  0.0000E+00  0.0000E+00
     -1.249  0.0000E+00  0.0000E+00
     -1.202  0.0000E+00  0.0000E+00
     -1.155  0.0000E+00  0.0000E+00
     -1.109 -0.2764E-28 -0.1288E-29
     -1.062 -0.4127E-25 -0.1925E-26
     -1.016 -0.3975E-22 -0.1854E-23
     -0.969 -0.2470E-19 -0.1153E-20
     -0.922 -0.9900E-17 -0.4626E-18
     -0.876 -0.2485E-14 -0.1163E-15
     -0.829 -0.4121E-12 -0.1932E-13
     -0.783 -0.4401E-10 -0.2070E-11
     -0.736 -0.3028E-08 -0.1432E-09
     -0.689 -0.1343E-06 -0.6403E-08
     -0.643 -0.3847E-05 -0.1857E-06
     -0.596 -0.7133E-04 -0.3510E-05
     -0.549 -0.8589E-03 -0.4354E-04
     -0.503 -0.6716E-02 -0.3566E-03
     -0.456 -0.3370E-01 -0.1927E-02
     -0.410 -0.1023E+00 -0.6696E-02
     -0.363 -0.1375E+00 -0.1311E-01
     -0.316  0.2266E+00 -0.2543E-02
     -0.270  0.1516E+01  0.6812E-01
     -0.223  0.3547E+01  0.2334E+00
     -0.177  0.5075E+01  0.4700E+00
     -0.130  0.5737E+01  0.7374E+00
     -0.083  0.7340E+01  0.1079E+01
     -0.037  0.1021E+02  0.1555E+01
      0.010  0.1102E+02  0.2069E+01
      0.056  0.9146E+01  0.2495E+01
      0.103  0.9403E+01  0.2933E+01
      0.150  0.1318E+02  0.3548E+01
      0.196  0.1592E+02  0.4290E+01
      0.243  0.1605E+02  0.5038E+01
      0.289  0.1676E+02  0.5819E+01
      0.336  0.1850E+02  0.6681E+01
      0.383  0.1833E+02  0.7535E+01
      0.429  0.1744E+02  0.8348E+01
      0.476  0.1982E+02  0.9272E+01
      0.522  0.2338E+02  0.1036E+02
      0.569  0.2405E+02  0.1148E+02
      0.616  0.2227E+02  0.1252E+02
      0.662  0.1870E+02  0.1339E+02
      0.709  0.1405E+02  0.1405E+02
      0.756  0.1113E+02  0.1456E+02
      0.802  0.1071E+02  0.1506E+02
      0.849  0.1113E+02  0.1558E+02
      0.895  0.1215E+02  0.1615E+02
      0.942  0.1464E+02  0.1683E+02
      0.989  0.1834E+02  0.1769E+02
      1.035  0.2288E+02  0.1875E+02
      1.082  0.2807E+02  0.2006E+02
      1.128  0.3124E+02  0.2152E+02
      1.175  0.2974E+02  0.2290E+02
      1.222  0.2592E+02  0.2411E+02
      1.268  0.2308E+02  0.2519E+02
      1.315  0.2096E+02  0.2616E+02
      1.361  0.2000E+02  0.2710E+02
      1.408  0.2159E+02  0.2810E+02
      1.455  0.2405E+02  0.2922E+02
      1.501  0.2566E+02  0.3042E+02
      1.548  0.2900E+02  0.3177E+02
      1.594  0.3514E+02  0.3341E+02
      1.641  0.3877E+02  0.3521E+02
      1.688  0.3788E+02  0.3698E+02
      1.734  0.3929E+02  0.3881E+02
      1.781  0.4553E+02  0.4093E+02
      1.828  0.4933E+02  0.4323E+02
      1.874  0.4783E+02  0.4546E+02
      1.921  0.4731E+02  0.4767E+02
      1.967  0.5089E+02  0.5004E+02
      2.014  0.5408E+02  0.5256E+02
      2.061  0.5552E+02  0.5515E+02
      2.107  0.6151E+02  0.5801E+02
      2.154  0.7471E+02  0.6150E+02
      2.200  0.8948E+02  0.6567E+02
      2.247  0.1032E+03  0.7047E+02
      2.294  0.1179E+03  0.7597E+02
      2.340  0.1311E+03  0.8208E+02
      2.387  0.1383E+03  0.8853E+02
      2.433  0.1433E+03  0.9521E+02
      2.480  0.1524E+03  0.1023E+03
      2.527  0.1610E+03  0.1098E+03
      2.573  0.1617E+03  0.1174E+03
      2.620  0.1615E+03  0.1249E+03
      2.666  0.1692E+03  0.1328E+03
      2.713  0.1786E+03  0.1411E+03
      2.760  0.1848E+03  0.1497E+03
      2.806  0.1978E+03  0.1589E+03
      2.853  0.2231E+03  0.1693E+03
      2.899  0.2478E+03  0.1809E+03
      2.946  0.2563E+03  0.1928E+03
      2.993  0.2496E+03  0.2044E+03
      3.039  0.2467E+03  0.2159E+03
      3.086  0.2622E+03  0.2282E+03
      3.133  0.2866E+03  0.2415E+03
      3.179  0.3013E+03  0.2556E+03
      3.226  0.3039E+03  0.2697E+03
      3.272  0.3052E+03  0.2840E+03
      3.319  0.3086E+03  0.2983E+03
      3.366  0.3111E+03  0.3128E+03
      3.412  0.3142E+03  0.3275E+03
      3.459  0.3214E+03  0.3425E+03
      3.505  0.3331E+03  0.3580E+03
      3.552  0.3439E+03  0.3740E+03
      3.599  0.3468E+03  0.3902E+03
      3.645  0.3449E+03  0.4063E+03
      3.692  0.3488E+03  0.4225E+03
      3.738  0.3577E+03  0.4392E+03
      3.785  0.3592E+03  0.4559E+03
      3.832  0.3522E+03  0.4723E+03
      3.878  0.3478E+03  0.4886E+03
      3.925  0.3496E+03  0.5048E+03
      3.971  0.3505E+03  0.5212E+03
      4.018  0.3412E+03  0.5371E+03
      4.065  0.3226E+03  0.5521E+03
      4.111  0.3066E+03  0.5664E+03
      4.158  0.2975E+03  0.5803E+03
      4.205  0.2872E+03  0.5937E+03
      4.251  0.2711E+03  0.6063E+03
      4.298  0.2536E+03  0.6181E+03
      4.344  0.2427E+03  0.6294E+03
      4.391  0.2454E+03  0.6409E+03
      4.438  0.2579E+03  0.6529E+03
      4.484  0.2618E+03  0.6651E+03
      4.531  0.2506E+03  0.6768E+03
      4.577  0.2479E+03  0.6883E+03
      4.624  0.2676E+03  0.7008E+03
      4.671  0.2923E+03  0.7144E+03
      4.717  0.3069E+03  0.7287E+03
      4.764  0.3136E+03  0.7433E+03
      4.810  0.3133E+03  0.7579E+03
      4.857  0.3046E+03  0.7721E+03
      4.904  0.2899E+03  0.7857E+03
      4.950  0.2784E+03  0.7986E+03
      4.997  0.2813E+03  0.8117E+03
      5.043  0.2954E+03  0.8255E+03
      5.090  0.3079E+03  0.8399E+03
      5.137  0.3091E+03  0.8543E+03
      5.183  0.2974E+03  0.8681E+03
      5.230  0.2856E+03  0.8814E+03
      5.276  0.2846E+03  0.8947E+03
      5.323  0.2905E+03  0.9082E+03
      5.370  0.2974E+03  0.9221E+03
      5.416  0.3018E+03  0.9362E+03
      5.463  0.2984E+03  0.9501E+03
      5.510  0.2886E+03  0.9635E+03
      5.556  0.2869E+03  0.9769E+03
      5.603  0.3031E+03  0.9910E+03
      5.649  0.3218E+03  0.1006E+04
      5.696  0.3254E+03  0.1021E+04
      5.743  0.3203E+03  0.1036E+04
      5.789  0.3200E+03  0.1051E+04
      5.836  0.3263E+03  0.1066E+04
      5.882  0.3368E+03  0.1082E+04
      5.929  0.3504E+03  0.1098E+04
      5.976  0.3657E+03  0.1115E+04
      6.022  0.3793E+03  0.1133E+04
      6.069  0.3857E+03  0.1151E+04
      6.115  0.3876E+03  0.1169E+04
      6.162  0.3917E+03  0.1187E+04
      6.209  0.3987E+03  0.1206E+04
      6.255  0.4098E+03  0.1225E+04
      6.302  0.4277E+03  0.1245E+04
      6.348  0.4470E+03  0.1266E+04
      6.395  0.4576E+03  0.1287E+04
      6.442  0.4571E+03  0.1308E+04
      6.488  0.4531E+03  0.1329E+04
      6.535  0.4501E+03  0.1350E+04
      6.582  0.4456E+03  0.1371E+04
      6.628  0.4390E+03  0.1392E+04
      6.675  0.4314E+03  0.1412E+04
      6.721  0.4243E+03  0.1432E+04
      6.768  0.4165E+03  0.1451E+04
      6.815  0.4010E+03  0.1470E+04
      6.861  0.3762E+03  0.1487E+04
      6.908  0.3540E+03  0.1504E+04
      6.954  0.3441E+03  0.1520E+04
      7.001  0.3390E+03  0.1536E+04
      7.048  0.3273E+03  0.1551E+04
      7.094  0.3146E+03  0.1565E+04
      7.141  0.3136E+03  0.1580E+04
      7.187  0.3194E+03  0.1595E+04
      7.234  0.3130E+03  0.1610E+04
      7.281  0.2867E+03  0.1623E+04
      7.327  0.2553E+03  0.1635E+04
      7.374  0.2401E+03  0.1646E+04
      7.420  0.2492E+03  0.1658E+04
      7.467  0.2717E+03  0.1670E+04
      7.514  0.2847E+03  0.1684E+04
      7.560  0.2761E+03  0.1696E+04
      7.607  0.2581E+03  0.1708E+04
      7.653  0.2482E+03  0.1720E+04
      7.700  0.2576E+03  0.1732E+04
      7.747  0.2835E+03  0.1745E+04
      7.793  0.3057E+03  0.1759E+04
      7.840  0.3119E+03  0.1774E+04
      7.887  0.3085E+03  0.1788E+04
      7.933  0.3030E+03  0.1803E+04
      7.980  0.2960E+03  0.1816E+04
      8.026  0.2912E+03  0.1830E+04
      8.073  0.2962E+03  0.1844E+04
      8.120  0.3097E+03  0.1858E+04
      8.166  0.3172E+03  0.1873E+04
      8.213  0.3178E+03  0.1888E+04
      8.259  0.3304E+03  0.1903E+04
      8.306  0.3542E+03  0.1920E+04
      8.353  0.3620E+03  0.1937E+04
      8.399  0.3387E+03  0.1952E+04
      8.446  0.2988E+03  0.1966E+04
      8.492  0.2663E+03  0.1979E+04
      8.539  0.2559E+03  0.1991E+04
      8.586  0.2716E+03  0.2003E+04
      8.632  0.2960E+03  0.2017E+04
      8.679  0.3000E+03  0.2031E+04
      8.725  0.2837E+03  0.2044E+04
      8.772  0.2673E+03  0.2057E+04
      8.819  0.2566E+03  0.2069E+04
      8.865  0.2487E+03  0.2080E+04
      8.912  0.2449E+03  0.2092E+04
      8.959  0.2453E+03  0.2103E+04
      9.005  0.2539E+03  0.2115E+04
      9.052  0.2741E+03  0.2128E+04
      9.098  0.2839E+03  0.2141E+04
      9.145  0.2653E+03  0.2153E+04
      9.192  0.2402E+03  0.2164E+04
      9.238  0.2280E+03  0.2175E+04
      9.285  0.2196E+03  0.2185E+04
      9.331  0.2138E+03  0.2195E+04
      9.378  0.2223E+03  0.2206E+04
      9.425  0.2430E+03  0.2217E+04
      9.471  0.2627E+03  0.2229E+04
      9.518  0.2738E+03  0.2242E+04
      9.564  0.2773E+03  0.2255E+04
      9.611  0.2760E+03  0.2268E+04
      9.658  0.2707E+03  0.2280E+04
      9.704  0.2606E+03  0.2293E+04
      9.751  0.2433E+03  0.2304E+04
      9.797  0.2238E+03  0.2314E+04
      9.844  0.2196E+03  0.2325E+04
      9.891  0.2373E+03  0.2336E+04
      9.937  0.2652E+03  0.2348E+04
      9.984  0.2963E+03  0.2362E+04
     10.030  0.3283E+03  0.2377E+04
     10.077  0.3494E+03  0.2393E+04
     10.124  0.3459E+03  0.2409E+04
     10.170  0.3233E+03  0.2425E+04
     10.217  0.3103E+03  0.2439E+04
     10.264  0.3304E+03  0.2454E+04
     10.310  0.3896E+03  0.2473E+04
     10.357  0.4689E+03  0.2494E+04
     10.403  0.5193E+03  0.2519E+04
     10.450  0.5077E+03  0.2542E+04
     10.497  0.4479E+03  0.2563E+04
     10.543  0.3712E+03  0.2580E+04
     10.590  0.3000E+03  0.2594E+04
     10.636  0.2468E+03  0.2606E+04
     10.683  0.2114E+03  0.2616E+04
     10.730  0.1797E+03  0.2624E+04
     10.776  0.1406E+03  0.2631E+04
     10.823  0.9582E+02  0.2635E+04
     10.869  0.5519E+02  0.2638E+04
     10.916  0.2638E+02  0.2639E+04
     10.963  0.9969E+01  0.2639E+04
     11.009  0.2837E+01  0.2640E+04
     11.056  0.1412E+01  0.2640E+04
     11.102  0.1934E+01  0.2640E+04
     11.149  0.1745E+01  0.2640E+04
     11.196  0.7207E+00  0.2640E+04
     11.242  0.1977E-02  0.2640E+04
     11.289 -0.1218E+00  0.2640E+04
     11.336 -0.5214E-01  0.2640E+04
     11.382 -0.1105E-01  0.2640E+04
     11.429 -0.3551E-02  0.2640E+04
     11.475 -0.1379E-01  0.2640E+04
     11.522 -0.4328E-01  0.2640E+04
     11.569 -0.3279E-01  0.2640E+04
     11.615  0.2131E+00  0.2640E+04
     11.662  0.7317E+00  0.2640E+04
     11.708  0.1025E+01  0.2640E+04
     11.755  0.7056E+00  0.2640E+04
     11.802  0.1927E+00  0.2640E+04
     11.848 -0.3695E-01  0.2640E+04
     11.895 -0.4170E-01  0.2640E+04
     11.941 -0.1269E-01  0.2640E+04
     11.988 -0.2027E-02  0.2640E+04
     12.035 -0.1904E-03  0.2640E+04
     12.081 -0.1097E-04  0.2640E+04
     12.128 -0.3954E-06  0.2640E+04
     12.174 -0.9016E-08  0.2640E+04
     12.221 -0.1309E-09  0.2640E+04
     12.268 -0.1216E-11  0.2640E+04
     12.314 -0.7444E-14  0.2640E+04
     12.361  0.0000E+00  0.2640E+04
     12.407  0.0000E+00  0.2640E+04
     12.454  0.0000E+00  0.2640E+04
     12.501  0.0000E+00  0.2640E+04
     12.547  0.0000E+00  0.2640E+04
     12.594  0.0000E+00  0.2640E+04
     12.641  0.0000E+00  0.2640E+04
     12.687  0.0000E+00  0.2640E+04
