  32  32   0   0
  0.1439326E+02  0.1048715E-08  0.1048738E-08  0.5189781E-09  0.5000000E-15
  1.000000000000000E-004
  CAR 
 Ir_Ru                                   
     17.06531729     -1.63161189  301      9.74391155      1.00000000
     -1.632  0.0000E+00  0.0000E+00
     -1.569  0.0000E+00  0.0000E+00
     -1.507  0.0000E+00  0.0000E+00
     -1.445  0.0000E+00  0.0000E+00
     -1.382  0.0000E+00  0.0000E+00
     -1.320  0.0000E+00  0.0000E+00
     -1.258  0.0000E+00  0.0000E+00
     -1.195  0.0000E+00  0.0000E+00
     -1.133  0.0000E+00  0.0000E+00
     -1.071  0.0000E+00  0.0000E+00
     -1.008  0.0000E+00  0.0000E+00
     -0.946  0.0000E+00  0.0000E+00
     -0.884  0.0000E+00  0.0000E+00
     -0.821  0.0000E+00  0.0000E+00
     -0.759  0.0000E+00  0.0000E+00
     -0.697  0.0000E+00  0.0000E+00
     -0.634  0.0000E+00  0.0000E+00
     -0.572  0.2167E+00  0.4297E-02
     -0.510  0.6735E+00  0.3368E-01
     -0.447  0.7913E+00  0.7981E-01
     -0.385  0.9930E+00  0.1351E+00
     -0.323  0.1293E+01  0.2049E+00
     -0.261  0.1584E+01  0.2960E+00
     -0.198  0.1622E+01  0.3963E+00
     -0.136  0.1865E+01  0.5046E+00
     -0.074  0.1890E+01  0.6236E+00
     -0.011  0.1766E+01  0.7380E+00
      0.051  0.1440E+01  0.8378E+00
      0.113  0.1301E+01  0.9224E+00
      0.176  0.1185E+01  0.9997E+00
      0.238  0.1373E+01  0.1077E+01
      0.300  0.1822E+01  0.1176E+01
      0.363  0.1992E+01  0.1299E+01
      0.425  0.2287E+01  0.1431E+01
      0.487  0.2252E+01  0.1574E+01
      0.550  0.2240E+01  0.1713E+01
      0.612  0.2232E+01  0.1853E+01
      0.674  0.2246E+01  0.1992E+01
      0.737  0.2991E+01  0.2151E+01
      0.799  0.3179E+01  0.2345E+01
      0.861  0.3366E+01  0.2548E+01
      0.924  0.3619E+01  0.2766E+01
      0.986  0.3735E+01  0.2996E+01
      1.048  0.3819E+01  0.3231E+01
      1.111  0.3975E+01  0.3474E+01
      1.173  0.3793E+01  0.3717E+01
      1.235  0.3504E+01  0.3944E+01
      1.298  0.3376E+01  0.4159E+01
      1.360  0.3852E+01  0.4378E+01
      1.422  0.4510E+01  0.4646E+01
      1.485  0.4311E+01  0.4920E+01
      1.547  0.4424E+01  0.5186E+01
      1.609  0.5391E+01  0.5486E+01
      1.672  0.6093E+01  0.5865E+01
      1.734  0.5439E+01  0.6225E+01
      1.796  0.4842E+01  0.6549E+01
      1.858  0.4522E+01  0.6824E+01
      1.921  0.7238E+01  0.7196E+01
      1.983  0.8853E+01  0.7712E+01
      2.045  0.6310E+01  0.8165E+01
      2.108  0.8984E+01  0.8615E+01
      2.170  0.1432E+02  0.9347E+01
      2.232  0.1740E+02  0.1026E+02
      2.295  0.2012E+02  0.1145E+02
      2.357  0.2148E+02  0.1273E+02
      2.419  0.2509E+02  0.1422E+02
      2.482  0.2372E+02  0.1555E+02
      2.544  0.2307E+02  0.1700E+02
      2.606  0.2099E+02  0.1832E+02
      2.669  0.2346E+02  0.1966E+02
      2.731  0.2780E+02  0.2119E+02
      2.793  0.2723E+02  0.2298E+02
      2.856  0.2886E+02  0.2479E+02
      2.918  0.3180E+02  0.2657E+02
      2.980  0.3039E+02  0.2857E+02
      3.043  0.3826E+02  0.3063E+02
      3.105  0.3088E+02  0.3261E+02
      3.167  0.3759E+02  0.3474E+02
      3.230  0.4080E+02  0.3687E+02
      3.292  0.4134E+02  0.3907E+02
      3.354  0.3358E+02  0.4150E+02
      3.417  0.4621E+02  0.4411E+02
      3.479  0.4067E+02  0.4660E+02
      3.541  0.3750E+02  0.4896E+02
      3.604  0.3796E+02  0.5132E+02
      3.666  0.3454E+02  0.5366E+02
      3.728  0.3587E+02  0.5589E+02
      3.790  0.3536E+02  0.5815E+02
      3.853  0.3266E+02  0.6022E+02
      3.915  0.3000E+02  0.6207E+02
      3.977  0.2831E+02  0.6389E+02
      4.040  0.3328E+02  0.6579E+02
      4.102  0.3697E+02  0.6792E+02
      4.164  0.3528E+02  0.7028E+02
      4.227  0.4210E+02  0.7292E+02
      4.289  0.4182E+02  0.7548E+02
      4.351  0.4024E+02  0.7809E+02
      4.414  0.4554E+02  0.8071E+02
      4.476  0.3654E+02  0.8301E+02
      4.538  0.3141E+02  0.8511E+02
      4.601  0.3770E+02  0.8728E+02
      4.663  0.3649E+02  0.8945E+02
      4.725  0.3794E+02  0.9169E+02
      4.788  0.3736E+02  0.9409E+02
      4.850  0.4368E+02  0.9659E+02
      4.912  0.4147E+02  0.9951E+02
      4.975  0.4620E+02  0.1023E+03
      5.037  0.4460E+02  0.1051E+03
      5.099  0.4481E+02  0.1077E+03
      5.162  0.4261E+02  0.1104E+03
      5.224  0.4377E+02  0.1131E+03
      5.286  0.3394E+02  0.1155E+03
      5.349  0.2989E+02  0.1175E+03
      5.411  0.2289E+02  0.1192E+03
      5.473  0.2291E+02  0.1205E+03
      5.536  0.2181E+02  0.1217E+03
      5.598  0.2547E+02  0.1232E+03
      5.660  0.4094E+02  0.1252E+03
      5.723  0.4573E+02  0.1278E+03
      5.785  0.5183E+02  0.1308E+03
      5.847  0.5607E+02  0.1341E+03
      5.909  0.5086E+02  0.1376E+03
      5.972  0.4778E+02  0.1407E+03
      6.034  0.4857E+02  0.1438E+03
      6.096  0.4826E+02  0.1469E+03
      6.159  0.4885E+02  0.1498E+03
      6.221  0.4731E+02  0.1528E+03
      6.283  0.4917E+02  0.1557E+03
      6.346  0.4763E+02  0.1587E+03
      6.408  0.4823E+02  0.1617E+03
      6.470  0.4685E+02  0.1648E+03
      6.533  0.5045E+02  0.1677E+03
      6.595  0.5641E+02  0.1709E+03
      6.657  0.5261E+02  0.1742E+03
      6.720  0.4792E+02  0.1774E+03
      6.782  0.4994E+02  0.1804E+03
      6.844  0.4505E+02  0.1834E+03
      6.907  0.4779E+02  0.1863E+03
      6.969  0.5291E+02  0.1894E+03
      7.031  0.4576E+02  0.1925E+03
      7.094  0.4846E+02  0.1954E+03
      7.156  0.5335E+02  0.1987E+03
      7.218  0.4997E+02  0.2020E+03
      7.281  0.5033E+02  0.2051E+03
      7.343  0.4936E+02  0.2082E+03
      7.405  0.4187E+02  0.2110E+03
      7.468  0.4036E+02  0.2135E+03
      7.530  0.3819E+02  0.2160E+03
      7.592  0.3872E+02  0.2185E+03
      7.655  0.3884E+02  0.2209E+03
      7.717  0.3593E+02  0.2232E+03
      7.779  0.3531E+02  0.2252E+03
      7.841  0.3062E+02  0.2271E+03
      7.904  0.3171E+02  0.2290E+03
      7.966  0.3257E+02  0.2310E+03
      8.028  0.2825E+02  0.2329E+03
      8.091  0.2827E+02  0.2347E+03
      8.153  0.2918E+02  0.2366E+03
      8.215  0.2922E+02  0.2384E+03
      8.278  0.2862E+02  0.2401E+03
      8.340  0.2509E+02  0.2418E+03
      8.402  0.2555E+02  0.2434E+03
      8.465  0.2631E+02  0.2451E+03
      8.527  0.2473E+02  0.2466E+03
      8.589  0.2695E+02  0.2482E+03
      8.652  0.2593E+02  0.2499E+03
      8.714  0.2696E+02  0.2515E+03
      8.776  0.2686E+02  0.2532E+03
      8.839  0.2521E+02  0.2549E+03
      8.901  0.2603E+02  0.2564E+03
      8.963  0.2558E+02  0.2580E+03
      9.026  0.2292E+02  0.2595E+03
      9.088  0.2219E+02  0.2609E+03
      9.150  0.2490E+02  0.2624E+03
      9.213  0.2750E+02  0.2640E+03
      9.275  0.2644E+02  0.2657E+03
      9.337  0.2626E+02  0.2674E+03
      9.400  0.2809E+02  0.2690E+03
      9.462  0.2673E+02  0.2706E+03
      9.524  0.3042E+02  0.2724E+03
      9.587  0.3353E+02  0.2743E+03
      9.649  0.3630E+02  0.2764E+03
      9.711  0.4223E+02  0.2787E+03
      9.774  0.4074E+02  0.2812E+03
      9.836  0.3860E+02  0.2837E+03
      9.898  0.3564E+02  0.2861E+03
      9.960  0.3840E+02  0.2883E+03
     10.023  0.3948E+02  0.2909E+03
     10.085  0.4138E+02  0.2934E+03
     10.147  0.4899E+02  0.2962E+03
     10.210  0.5379E+02  0.2991E+03
     10.272  0.5453E+02  0.3026E+03
     10.334  0.5922E+02  0.3060E+03
     10.397  0.5525E+02  0.3095E+03
     10.459  0.5723E+02  0.3130E+03
     10.521  0.6912E+02  0.3170E+03
     10.584  0.5745E+02  0.3209E+03
     10.646  0.5480E+02  0.3245E+03
     10.708  0.6380E+02  0.3281E+03
     10.771  0.4911E+02  0.3315E+03
     10.833  0.4166E+02  0.3345E+03
     10.895  0.2698E+02  0.3366E+03
     10.958  0.1829E+02  0.3380E+03
     11.020  0.1471E+02  0.3391E+03
     11.082  0.1162E+02  0.3399E+03
     11.145  0.1004E+02  0.3405E+03
     11.207  0.8812E+01  0.3411E+03
     11.269  0.8135E+01  0.3417E+03
     11.332  0.8365E+01  0.3422E+03
     11.394  0.8595E+01  0.3427E+03
     11.456  0.9327E+01  0.3433E+03
     11.519  0.9940E+01  0.3438E+03
     11.581  0.9546E+01  0.3444E+03
     11.643  0.8924E+01  0.3450E+03
     11.706  0.8717E+01  0.3456E+03
     11.768  0.8048E+01  0.3461E+03
     11.830  0.8276E+01  0.3466E+03
     11.893  0.9080E+01  0.3471E+03
     11.955  0.9280E+01  0.3477E+03
     12.017  0.8012E+01  0.3483E+03
     12.079  0.7301E+01  0.3487E+03
     12.142  0.7350E+01  0.3492E+03
     12.204  0.8296E+01  0.3497E+03
     12.266  0.9301E+01  0.3502E+03
     12.329  0.9457E+01  0.3508E+03
     12.391  0.9477E+01  0.3514E+03
     12.453  0.8779E+01  0.3520E+03
     12.516  0.8489E+01  0.3525E+03
     12.578  0.7796E+01  0.3530E+03
     12.640  0.7039E+01  0.3535E+03
     12.703  0.6195E+01  0.3539E+03
     12.765  0.5837E+01  0.3543E+03
     12.827  0.5643E+01  0.3546E+03
     12.890  0.5736E+01  0.3550E+03
     12.952  0.5516E+01  0.3554E+03
     13.014  0.5113E+01  0.3557E+03
     13.077  0.4793E+01  0.3560E+03
     13.139  0.4461E+01  0.3563E+03
     13.201  0.4189E+01  0.3565E+03
     13.264  0.3696E+01  0.3568E+03
     13.326  0.3659E+01  0.3570E+03
     13.388  0.3470E+01  0.3572E+03
     13.451  0.3145E+01  0.3575E+03
     13.513  0.2916E+01  0.3576E+03
     13.575  0.2709E+01  0.3578E+03
     13.638  0.2545E+01  0.3580E+03
     13.700  0.2424E+01  0.3581E+03
     13.762  0.2372E+01  0.3583E+03
     13.825  0.2260E+01  0.3584E+03
     13.887  0.2105E+01  0.3586E+03
     13.949  0.1914E+01  0.3587E+03
     14.011  0.1804E+01  0.3588E+03
     14.074  0.1683E+01  0.3589E+03
     14.136  0.1595E+01  0.3590E+03
     14.198  0.1527E+01  0.3591E+03
     14.261  0.1505E+01  0.3592E+03
     14.323  0.1493E+01  0.3593E+03
     14.385  0.1456E+01  0.3594E+03
     14.448  0.1404E+01  0.3595E+03
     14.510  0.1328E+01  0.3596E+03
     14.572  0.1263E+01  0.3597E+03
     14.635  0.1025E+01  0.3597E+03
     14.697  0.7230E+00  0.3598E+03
     14.759  0.5837E+00  0.3598E+03
     14.822  0.4905E+00  0.3599E+03
     14.884  0.4191E+00  0.3599E+03
     14.946  0.3586E+00  0.3599E+03
     15.009  0.3025E+00  0.3599E+03
     15.071  0.2514E+00  0.3599E+03
     15.133  0.2050E+00  0.3600E+03
     15.196  0.1575E+00  0.3600E+03
     15.258  0.1252E+00  0.3600E+03
     15.320  0.9761E-01  0.3600E+03
     15.383  0.7331E-01  0.3600E+03
     15.445  0.5197E-01  0.3600E+03
     15.507  0.3423E-01  0.3600E+03
     15.570  0.2213E-01  0.3600E+03
     15.632  0.1505E-01  0.3600E+03
     15.694  0.1152E-01  0.3600E+03
     15.757  0.8873E-02  0.3600E+03
     15.819  0.6481E-02  0.3600E+03
     15.881  0.4343E-02  0.3600E+03
     15.944  0.2459E-02  0.3600E+03
     16.006  0.8303E-03  0.3600E+03
     16.068  0.0000E+00  0.3600E+03
     16.130  0.0000E+00  0.3600E+03
     16.193  0.0000E+00  0.3600E+03
     16.255  0.0000E+00  0.3600E+03
     16.317  0.0000E+00  0.3600E+03
     16.380  0.0000E+00  0.3600E+03
     16.442  0.0000E+00  0.3600E+03
     16.504  0.0000E+00  0.3600E+03
     16.567  0.0000E+00  0.3600E+03
     16.629  0.0000E+00  0.3600E+03
     16.691  0.0000E+00  0.3600E+03
     16.754  0.0000E+00  0.3600E+03
     16.816  0.0000E+00  0.3600E+03
     16.878  0.0000E+00  0.3600E+03
     16.941  0.0000E+00  0.3600E+03
     17.003  0.0000E+00  0.3600E+03
     17.065  0.0000E+00  0.3600E+03
