       N       E                     dE             d eps       ncg     rms          rms(c)
RMM:   1     0.171275255084E+04    0.17128E+04   -0.58542E+04 22680   0.657E+02
RMM:   2     0.185281306678E+03   -0.15275E+04   -0.15858E+04 22680   0.234E+02
RMM:   3    -0.130667950838E+03   -0.31595E+03   -0.27520E+03 22680   0.103E+02
RMM:   4    -0.232052099663E+03   -0.10138E+03   -0.68026E+02 22680   0.689E+01
RMM:   5    -0.265327872874E+03   -0.33276E+02   -0.27432E+02 22680   0.402E+01
RMM:   6    -0.281754813682E+03   -0.16427E+02   -0.13558E+02 22680   0.293E+01
RMM:   7    -0.289908729160E+03   -0.81539E+01   -0.72235E+01 22680   0.197E+01
RMM:   8    -0.294537100699E+03   -0.46284E+01   -0.40708E+01 22680   0.151E+01
RMM:   9    -0.300413688318E+03   -0.58766E+01   -0.56483E+01 56568   0.106E+01
RMM:  10    -0.301244511722E+03   -0.83082E+00   -0.70487E+00 60821   0.204E+00
RMM:  11    -0.301446136771E+03   -0.20163E+00   -0.11858E+00 59827   0.613E-01
RMM:  12    -0.301488514298E+03   -0.42378E-01   -0.25620E-01 60081   0.186E-01    0.267E+01
RMM:  13    -0.297623591176E+03    0.38649E+01   -0.64089E+01 45558   0.219E+01    0.299E+01
RMM:  14    -0.285641987911E+03    0.11982E+02   -0.21443E+01 45362   0.113E+01    0.160E+01
RMM:  15    -0.282851248571E+03    0.27907E+01   -0.93173E+00 45638   0.753E+00    0.120E+01
RMM:  16    -0.280483999185E+03    0.23672E+01   -0.20175E+00 45638   0.319E+00    0.191E+00
RMM:  17    -0.280457268901E+03    0.26730E-01   -0.35485E-01 54326   0.874E-01    0.152E+00
RMM:  18    -0.280388945997E+03    0.68323E-01   -0.61393E-02 46710   0.613E-01    0.971E-01
RMM:  19    -0.280374782362E+03    0.14164E-01   -0.30892E-02 46416   0.388E-01    0.818E-01
RMM:  20    -0.280364624777E+03    0.10158E-01   -0.16763E-02 45939   0.312E-01    0.632E-01
RMM:  21    -0.280358483515E+03    0.61413E-02   -0.58751E-03 45929   0.172E-01    0.232E-01
RMM:  22    -0.280357828470E+03    0.65504E-03   -0.16373E-03 48268   0.765E-02    0.808E-02
RMM:  23    -0.280357915411E+03   -0.86941E-04   -0.55896E-04 48452   0.471E-02
   1 F= -.28035792E+03 E0= -.28035544E+03  d E =-.280358E+03
       N       E                     dE             d eps       ncg     rms          rms(c)
RMM:   1    -0.472085734964E+03   -0.19173E+03   -0.11066E+04 45360   0.377E+02    0.777E+01
RMM:   2    -0.287656667910E+03    0.18443E+03   -0.13796E+02 45360   0.321E+01    0.525E+01
RMM:   3    -0.230839409280E+03    0.56817E+02   -0.11368E+02 45360   0.336E+01    0.342E+01
RMM:   4    -0.195565333140E+03    0.35274E+02   -0.16009E+02 45360   0.463E+01    0.183E+01
RMM:   5    -0.188076889413E+03    0.74884E+01   -0.15231E+01 45363   0.111E+01    0.777E+00
RMM:   6    -0.187538811999E+03    0.53808E+00   -0.16979E+00 45370   0.488E+00    0.452E+00
RMM:   7    -0.188032073021E+03   -0.49326E+00   -0.28717E+00 45360   0.667E+00    0.285E+00
RMM:   8    -0.187988155995E+03    0.43917E-01   -0.36157E-01 45553   0.156E+00    0.179E+00
RMM:   9    -0.187896611721E+03    0.91544E-01   -0.40929E-01 45360   0.242E+00    0.415E-01
RMM:  10    -0.187899747813E+03   -0.31361E-02   -0.30322E-02 47241   0.316E-01    0.315E-01
RMM:  11    -0.187901930784E+03   -0.21830E-02   -0.99220E-03 45360   0.389E-01    0.158E-01
RMM:  12    -0.187903849764E+03   -0.19190E-02   -0.20060E-03 45361   0.124E-01    0.222E-01
RMM:  13    -0.187902609991E+03    0.12398E-02   -0.19865E-03 45360   0.174E-01    0.834E-02
RMM:  14    -0.187902448762E+03    0.16123E-03   -0.74904E-04 45362   0.907E-02    0.228E-02
RMM:  15    -0.187902460712E+03   -0.11951E-04   -0.18627E-04 45556   0.382E-02
   2 F= -.18790246E+03 E0= -.18790334E+03  d E =0.924555E+02
       N       E                     dE             d eps       ncg     rms          rms(c)
RMM:   1    -0.465158158204E+03   -0.27726E+03   -0.70018E+03 45360   0.326E+02    0.707E+01
RMM:   2    -0.428410144141E+03    0.36748E+02   -0.45822E+02 45360   0.800E+01    0.663E+01
RMM:   3    -0.319222769734E+03    0.10919E+03   -0.89451E+01 45360   0.259E+01    0.341E+01
RMM:   4    -0.314573409409E+03    0.46494E+01   -0.83878E+01 45360   0.224E+01    0.354E+01
RMM:   5    -0.294795347880E+03    0.19778E+02   -0.39731E+01 45360   0.171E+01    0.212E+01
RMM:   6    -0.287123719712E+03    0.76716E+01   -0.72615E+00 45369   0.659E+00    0.560E+00
RMM:   7    -0.286617490327E+03    0.50623E+00   -0.17491E+00 45363   0.379E+00    0.407E+00
RMM:   8    -0.286291428917E+03    0.32606E+00   -0.72780E-01 45360   0.263E+00    0.179E+00
RMM:   9    -0.286214499669E+03    0.76929E-01   -0.15491E-01 45923   0.898E-01    0.147E+00
RMM:  10    -0.286135607637E+03    0.78892E-01   -0.10773E-01 45549   0.667E-01    0.964E-01
RMM:  11    -0.286119305249E+03    0.16302E-01   -0.37516E-02 46359   0.358E-01    0.419E-01
RMM:  12    -0.286119206766E+03    0.98483E-04   -0.89505E-03 47760   0.186E-01    0.312E-01
RMM:  13    -0.286119723242E+03   -0.51648E-03   -0.65590E-03 45486   0.185E-01    0.162E-01
RMM:  14    -0.286120254084E+03   -0.53084E-03   -0.18129E-03 47797   0.805E-02    0.110E-01
RMM:  15    -0.286120691737E+03   -0.43765E-03   -0.52188E-04 45363   0.531E-02    0.693E-02
RMM:  16    -0.286120873459E+03   -0.18172E-03   -0.24975E-04 45380   0.416E-02    0.348E-02
RMM:  17    -0.286120927786E+03   -0.54327E-04   -0.81089E-05 48820   0.160E-02
   3 F= -.28612093E+03 E0= -.28611949E+03  d E =-.576301E+01
       N       E                     dE             d eps       ncg     rms          rms(c)
RMM:   1    -0.286320335518E+03   -0.19946E+00   -0.38660E+00 45360   0.750E+00    0.164E+00
RMM:   2    -0.286260543936E+03    0.59792E-01   -0.13299E-01 45360   0.138E+00    0.147E+00
RMM:   3    -0.286238613654E+03    0.21930E-01   -0.51951E-02 45360   0.610E-01    0.104E+00
RMM:   4    -0.286224809087E+03    0.13805E-01   -0.50952E-02 45360   0.659E-01    0.771E-01
RMM:   5    -0.286214122484E+03    0.10687E-01   -0.11600E-02 45360   0.272E-01    0.164E-01
RMM:   6    -0.286213908528E+03    0.21396E-03   -0.10172E-03 45740   0.688E-02    0.108E-01
RMM:   7    -0.286213909622E+03   -0.10935E-05   -0.10769E-03 45360   0.113E-01    0.731E-02
RMM:   8    -0.286213902820E+03    0.68017E-05   -0.18183E-04 45360   0.378E-02
   4 F= -.28621390E+03 E0= -.28621253E+03  d E =-.585599E+01
       N       E                     dE             d eps       ncg     rms          rms(c)
RMM:   1    -0.286340285358E+03   -0.12638E+00   -0.37025E+00 45360   0.738E+00    0.162E+00
RMM:   2    -0.286279781558E+03    0.60504E-01   -0.12646E-01 45360   0.137E+00    0.140E+00
RMM:   3    -0.286260967080E+03    0.18814E-01   -0.50639E-02 45360   0.604E-01    0.103E+00
RMM:   4    -0.286246431422E+03    0.14536E-01   -0.48523E-02 45360   0.645E-01    0.731E-01
RMM:   5    -0.286236812186E+03    0.96192E-02   -0.10812E-02 45360   0.262E-01    0.161E-01
RMM:   6    -0.286236611173E+03    0.20101E-03   -0.97453E-04 45860   0.671E-02    0.106E-01
RMM:   7    -0.286236634101E+03   -0.22928E-04   -0.10186E-03 45360   0.110E-01    0.721E-02
RMM:   8    -0.286236636515E+03   -0.24144E-05   -0.18235E-04 45360   0.383E-02
   5 F= -.28623664E+03 E0= -.28623535E+03  d E =-.587872E+01
       N       E                     dE             d eps       ncg     rms          rms(c)
RMM:   1    -0.286238326707E+03   -0.16926E-02   -0.41517E-02 45360   0.778E-01    0.150E-01
RMM:   2    -0.286238027726E+03    0.29898E-03   -0.13306E-03 45360   0.130E-01    0.163E-01
RMM:   3    -0.286237655819E+03    0.37191E-03   -0.45954E-04 45360   0.577E-02    0.843E-02
RMM:   4    -0.286237610435E+03    0.45383E-04   -0.48200E-04 45360   0.639E-02    0.864E-02
RMM:   5    -0.286237465908E+03    0.14453E-03   -0.14058E-04 45360   0.320E-02    0.158E-02
RMM:   6    -0.286237462127E+03    0.37811E-05   -0.95380E-06 44650   0.669E-03
   6 F= -.28623746E+03 E0= -.28623617E+03  d E =-.587955E+01
       N       E                     dE             d eps       ncg     rms          rms(c)
RMM:   1    -0.286239149606E+03   -0.16837E-02   -0.59276E-02 45360   0.934E-01    0.200E-01
RMM:   2    -0.286238178550E+03    0.97106E-03   -0.19515E-03 45360   0.171E-01    0.172E-01
RMM:   3    -0.286237903069E+03    0.27548E-03   -0.78220E-04 45360   0.750E-02    0.130E-01
RMM:   4    -0.286237654873E+03    0.24820E-03   -0.73631E-04 45360   0.792E-02    0.922E-02
RMM:   5    -0.286237497931E+03    0.15694E-03   -0.16957E-04 45360   0.327E-02    0.200E-02
RMM:   6    -0.286237493233E+03    0.46972E-05   -0.15531E-05 45647   0.873E-03
   7 F= -.28623749E+03 E0= -.28623619E+03  d E =-.587958E+01
       N       E                     dE             d eps       ncg     rms          rms(c)
RMM:   1    -0.286238015206E+03   -0.51728E-03   -0.16138E-02 45360   0.488E-01    0.107E-01
RMM:   2    -0.286237805328E+03    0.20988E-03   -0.60589E-04 45360   0.923E-02    0.102E-01
RMM:   3    -0.286237685611E+03    0.11972E-03   -0.22317E-04 45360   0.403E-02    0.647E-02
RMM:   4    -0.286237643390E+03    0.42220E-04   -0.21571E-04 45360   0.431E-02    0.496E-02
RMM:   5    -0.286237598726E+03    0.44664E-04   -0.51545E-05 45360   0.185E-02
   8 F= -.28623760E+03 E0= -.28623630E+03  d E =-.587968E+01
       N       E                     dE             d eps       ncg     rms          rms(c)
RMM:   1    -0.286237683526E+03   -0.40136E-04   -0.27226E-03 45360   0.200E-01    0.477E-02
RMM:   2    -0.286237637571E+03    0.45956E-04   -0.11649E-04 45360   0.408E-02    0.443E-02
RMM:   3    -0.286237616020E+03    0.21550E-04   -0.43337E-05 45360   0.176E-02    0.294E-02
RMM:   4    -0.286237604321E+03    0.11699E-04   -0.42581E-05 45360   0.192E-02    0.230E-02
RMM:   5    -0.286237593471E+03    0.10851E-04   -0.10337E-05 45350   0.843E-03
   9 F= -.28623759E+03 E0= -.28623630E+03  d E =-.587968E+01
       N       E                     dE             d eps       ncg     rms          rms(c)
RMM:   1    -0.286237613832E+03   -0.95102E-05   -0.51153E-04 45360   0.865E-02    0.205E-02
RMM:   2    -0.286237606569E+03    0.72626E-05   -0.20827E-05 45360   0.175E-02    0.181E-02
RMM:   3    -0.286237603599E+03    0.29700E-05   -0.80947E-06 42382   0.758E-03    0.133E-02
RMM:   4    -0.286237602671E+03    0.92767E-06   -0.78072E-06 44805   0.820E-03    0.987E-03
RMM:   5    -0.286237601281E+03    0.13903E-05   -0.16226E-06 23201   0.358E-03
  10 F= -.28623760E+03 E0= -.28623630E+03  d E =-.587969E+01
       N       E                     dE             d eps       ncg     rms          rms(c)
RMM:   1    -0.286521831096E+03   -0.28423E+00   -0.34464E+01 45360   0.132E+01    0.238E+00
RMM:   2    -0.286405475360E+03    0.11636E+00   -0.78906E-01 45369   0.293E+00    0.135E+00
RMM:   3    -0.286427314287E+03   -0.21839E-01   -0.25520E-01 45828   0.111E+00    0.200E+00
RMM:   4    -0.286356018592E+03    0.71296E-01   -0.77387E-02 45469   0.566E-01    0.765E-01
RMM:   5    -0.286347048312E+03    0.89703E-02   -0.17998E-02 46066   0.291E-01    0.340E-01
RMM:   6    -0.286347292973E+03   -0.24466E-03   -0.59044E-03 45787   0.171E-01    0.360E-01
RMM:   7    -0.286344982221E+03    0.23108E-02   -0.20227E-03 45461   0.104E-01    0.112E-01
RMM:   8    -0.286344827319E+03    0.15490E-03   -0.51653E-04 46778   0.497E-02    0.729E-02
RMM:   9    -0.286344768245E+03    0.59074E-04   -0.18268E-04 46141   0.303E-02
  11 F= -.28634477E+03 E0= -.28634421E+03  d E =-.107167E+00
       N       E                     dE             d eps       ncg     rms          rms(c)
RMM:   1    -0.286351902883E+03   -0.70756E-02   -0.72863E-01 45360   0.192E+00    0.349E-01
RMM:   2    -0.286349363717E+03    0.25392E-02   -0.16631E-02 45366   0.423E-01    0.187E-01
RMM:   3    -0.286349895681E+03   -0.53196E-03   -0.50285E-03 46194   0.152E-01    0.296E-01
RMM:   4    -0.286348322638E+03    0.15730E-02   -0.13721E-03 45443   0.734E-02    0.912E-02
RMM:   5    -0.286348187984E+03    0.13465E-03   -0.34596E-04 46155   0.403E-02    0.473E-02
RMM:   6    -0.286348194289E+03   -0.63045E-05   -0.10752E-04 45810   0.230E-02
  12 F= -.28634819E+03 E0= -.28634745E+03  d E =-.110593E+00
       N       E                     dE             d eps       ncg     rms          rms(c)
RMM:   1    -0.286358254612E+03   -0.10067E-01   -0.38484E+00 45360   0.422E+00    0.454E-01
RMM:   2    -0.286365217425E+03   -0.69628E-02   -0.11903E-01 45360   0.103E+00    0.503E-01
RMM:   3    -0.286363117459E+03    0.21000E-02   -0.18960E-02 52368   0.286E-01    0.333E-01
RMM:   4    -0.286360755563E+03    0.23619E-02   -0.67784E-03 45360   0.248E-01    0.217E-01
RMM:   5    -0.286360361628E+03    0.39393E-03   -0.34879E-03 45376   0.149E-01    0.188E-01
RMM:   6    -0.286359951034E+03    0.41059E-03   -0.74480E-04 45375   0.683E-02    0.100E-01
RMM:   7    -0.286359795832E+03    0.15520E-03   -0.18606E-04 45464   0.348E-02    0.414E-02
RMM:   8    -0.286359799615E+03   -0.37823E-05   -0.87904E-05 45963   0.215E-02
  13 F= -.28635980E+03 E0= -.28635883E+03  d E =-.116053E-01
       N       E                     dE             d eps       ncg     rms          rms(c)
RMM:   1    -0.286359759712E+03    0.36120E-04   -0.21591E-02 45360   0.317E-01    0.423E-02
RMM:   2    -0.286359810621E+03   -0.50909E-04   -0.70059E-04 45360   0.759E-02    0.609E-02
RMM:   3    -0.286359758768E+03    0.51853E-04   -0.11908E-04 46419   0.242E-02    0.278E-02
RMM:   4    -0.286359748834E+03    0.99347E-05   -0.46048E-05 45363   0.187E-02    0.246E-02
RMM:   5    -0.286359738246E+03    0.10588E-04   -0.37015E-05 45370   0.170E-02
  14 F= -.28635974E+03 E0= -.28635875E+03  d E =-.115440E-01
       N       E                     dE             d eps       ncg     rms          rms(c)
RMM:   1    -0.286381652252E+03   -0.21903E-01   -0.35831E+00 45360   0.530E+00    0.971E-01
RMM:   2    -0.286369607291E+03    0.12045E-01   -0.16171E-01 45364   0.890E-01    0.815E-01
RMM:   3    -0.286364992517E+03    0.46148E-02   -0.32095E-02 45397   0.482E-01    0.626E-01
RMM:   4    -0.286360207719E+03    0.47848E-02   -0.22527E-02 45368   0.440E-01    0.469E-01
RMM:   5    -0.286356106266E+03    0.41015E-02   -0.50797E-03 45363   0.177E-01    0.130E-01
RMM:   6    -0.286356059393E+03    0.46873E-04   -0.94757E-04 45382   0.858E-02
  15 F= -.28635606E+03 E0= -.28635499E+03  d E =0.367885E-02
       N       E                     dE             d eps       ncg     rms          rms(c)
RMM:   1    -0.286369926556E+03   -0.13820E-01   -0.11940E+00 45360   0.306E+00    0.547E-01
RMM:   2    -0.286367456790E+03    0.24698E-02   -0.54914E-02 45375   0.518E-01    0.497E-01
RMM:   3    -0.286365098621E+03    0.23582E-02   -0.10006E-02 45399   0.263E-01    0.332E-01
RMM:   4    -0.286363865838E+03    0.12328E-02   -0.72591E-03 45364   0.251E-01    0.264E-01
RMM:   5    -0.286362491335E+03    0.13745E-02   -0.17448E-03 45361   0.106E-01    0.731E-02
RMM:   6    -0.286362452263E+03    0.39073E-04   -0.26593E-04 45387   0.419E-02
  16 F= -.28636245E+03 E0= -.28636142E+03  d E =-.271402E-02
       N       E                     dE             d eps       ncg     rms          rms(c)
RMM:   1    -0.286363008728E+03   -0.51739E-03   -0.11379E-01 45360   0.747E-01    0.116E-01
RMM:   2    -0.286363036379E+03   -0.27651E-04   -0.33684E-03 45360   0.171E-01    0.112E-01
RMM:   3    -0.286362916775E+03    0.11960E-03   -0.65151E-04 47403   0.545E-02    0.803E-02
RMM:   4    -0.286362815441E+03    0.10133E-03   -0.34548E-04 45362   0.519E-02    0.573E-02
RMM:   5    -0.286362764983E+03    0.50458E-04   -0.12802E-04 45384   0.284E-02
  17 F= -.28636276E+03 E0= -.28636180E+03  d E =-.312720E-03
       N       E                     dE             d eps       ncg     rms          rms(c)
RMM:   1    -0.286362766139E+03    0.49302E-04   -0.12331E-03 45360   0.787E-02    0.261E-02
RMM:   2    -0.286362836333E+03   -0.70194E-04   -0.13794E-04 45506   0.262E-02    0.687E-02
RMM:   3    -0.286362753956E+03    0.82378E-04   -0.45676E-05 45363   0.150E-02    0.127E-02
RMM:   4    -0.286362752208E+03    0.17480E-05   -0.10486E-05 45487   0.769E-03    0.908E-03
RMM:   5    -0.286362751273E+03    0.93440E-06   -0.41141E-06 34335   0.571E-03
  18 F= -.28636275E+03 E0= -.28636178E+03  d E =-.299010E-03
       N       E                     dE             d eps       ncg     rms          rms(c)
RMM:   1    -0.286363261424E+03   -0.50922E-03   -0.73932E-02 45360   0.701E-01    0.113E-01
RMM:   2    -0.286363205160E+03    0.56263E-04   -0.30120E-03 45679   0.113E-01    0.108E-01
RMM:   3    -0.286363064699E+03    0.14046E-03   -0.36001E-04 45782   0.438E-02    0.681E-02
RMM:   4    -0.286362987124E+03    0.77575E-04   -0.38637E-04 45361   0.587E-02    0.538E-02
RMM:   5    -0.286362935500E+03    0.51624E-04   -0.85906E-05 45364   0.230E-02
  19 F= -.28636294E+03 E0= -.28636198E+03  d E =-.184226E-03
       N       E                     dE             d eps       ncg     rms          rms(c)
RMM:   1    -0.286362970572E+03    0.16552E-04   -0.57608E-03 45360   0.193E-01    0.395E-02
RMM:   2    -0.286363010376E+03   -0.39804E-04   -0.31159E-04 45777   0.375E-02    0.614E-02
RMM:   3    -0.286362949006E+03    0.61369E-04   -0.59764E-05 45361   0.155E-02    0.208E-02
RMM:   4    -0.286362948739E+03    0.26713E-06   -0.38436E-05 45360   0.172E-02    0.212E-02
RMM:   5    -0.286362941367E+03    0.73727E-05   -0.16124E-05 45360   0.116E-02
  20 F= -.28636294E+03 E0= -.28636198E+03  d E =-.190093E-03
       N       E                     dE             d eps       ncg     rms          rms(c)
RMM:   1    -0.286363046988E+03   -0.98248E-04   -0.53480E-03 45360   0.175E-01    0.323E-02
RMM:   2    -0.286363026535E+03    0.20453E-04   -0.13805E-04 45392   0.320E-02    0.246E-02
RMM:   3    -0.286363025084E+03    0.14510E-05   -0.37670E-05 45666   0.140E-02    0.256E-02
RMM:   4    -0.286363013249E+03    0.11835E-04   -0.22287E-05 45400   0.122E-02    0.148E-02
RMM:   5    -0.286363009130E+03    0.41181E-05   -0.51970E-06 38504   0.542E-03
  21 F= -.28636301E+03 E0= -.28636203E+03  d E =-.677639E-04
       N       E                     dE             d eps       ncg     rms          rms(c)
RMM:   1    -0.286363057838E+03   -0.44590E-04   -0.39619E-03 45360   0.151E-01    0.266E-02
RMM:   2    -0.286363046543E+03    0.11295E-04   -0.10457E-04 45384   0.284E-02    0.245E-02
RMM:   3    -0.286363041268E+03    0.52750E-05   -0.23727E-05 45936   0.109E-02    0.188E-02
RMM:   4    -0.286363034065E+03    0.72035E-05   -0.16355E-05 45412   0.104E-02    0.145E-02
RMM:   5    -0.286363030504E+03    0.35609E-05   -0.38094E-06 33163   0.478E-03
  22 F= -.28636303E+03 E0= -.28636204E+03  d E =-.891372E-04
       N       E                     dE             d eps       ncg     rms          rms(c)
RMM:   1    -0.286363105856E+03   -0.71792E-04   -0.85748E-03 45360   0.245E-01    0.422E-02
RMM:   2    -0.286363092369E+03    0.13487E-04   -0.37251E-04 45395   0.402E-02    0.344E-02
RMM:   3    -0.286363085273E+03    0.70961E-05   -0.62972E-05 45520   0.203E-02    0.291E-02
RMM:   4    -0.286363078018E+03    0.72550E-05   -0.43884E-05 45369   0.195E-02    0.213E-02
RMM:   5    -0.286363070649E+03    0.73691E-05   -0.10412E-05 45311   0.781E-03
  23 F= -.28636307E+03 E0= -.28636207E+03  d E =-.401450E-04
       N       E                     dE             d eps       ncg     rms          rms(c)
RMM:   1    -0.286363071083E+03    0.69352E-05   -0.53728E-05 45160   0.181E-02    0.739E-03
RMM:   2    -0.286363075113E+03   -0.40307E-05   -0.10645E-05 44843   0.751E-03    0.171E-02
RMM:   3    -0.286363070526E+03    0.45877E-05   -0.31328E-06 31273   0.441E-03    0.337E-03
RMM:   4    -0.286363070519E+03    0.70722E-08   -0.74544E-07 23092   0.223E-03    0.266E-03
RMM:   5    -0.286363070562E+03   -0.42957E-07   -0.39304E-07 23025   0.210E-03
  24 F= -.28636307E+03 E0= -.28636207E+03  d E =-.400578E-04
       N       E                     dE             d eps       ncg     rms          rms(c)
RMM:   1    -0.286363102034E+03   -0.31515E-04   -0.56668E-03 45360   0.148E-01    0.116E-02
RMM:   2    -0.286363113302E+03   -0.11269E-04   -0.14400E-04 45361   0.380E-02    0.142E-02
RMM:   3    -0.286363112462E+03    0.84007E-06   -0.22352E-05 49536   0.926E-03    0.909E-03
RMM:   4    -0.286363110634E+03    0.18283E-05   -0.21104E-06 26493   0.502E-03    0.594E-03
RMM:   5    -0.286363109930E+03    0.70384E-06   -0.23275E-06 25816   0.401E-03
  25 F= -.28636311E+03 E0= -.28636212E+03  d E =-.393686E-04
       N       E                     dE             d eps       ncg     rms          rms(c)
RMM:   1    -0.286363096689E+03    0.13945E-04   -0.31915E-02 45360   0.351E-01    0.279E-02
RMM:   2    -0.286363165287E+03   -0.68598E-04   -0.80421E-04 45361   0.898E-02    0.356E-02
RMM:   3    -0.286363158008E+03    0.72798E-05   -0.12634E-04 50846   0.221E-02    0.216E-02
RMM:   4    -0.286363147792E+03    0.10215E-04   -0.13776E-05 45386   0.118E-02    0.143E-02
RMM:   5    -0.286363146216E+03    0.15763E-05   -0.14587E-05 45361   0.946E-03
  26 F= -.28636315E+03 E0= -.28636216E+03  d E =-.756543E-04
       N       E                     dE             d eps       ncg     rms          rms(c)
RMM:   1    -0.286363145220E+03    0.25722E-05   -0.10286E-03 45360   0.684E-02    0.922E-03
RMM:   2    -0.286363154745E+03   -0.95246E-05   -0.42289E-05 45360   0.189E-02    0.208E-02
RMM:   3    -0.286363147652E+03    0.70926E-05   -0.75176E-06 43405   0.641E-03    0.636E-03
RMM:   4    -0.286363147148E+03    0.50436E-06   -0.11237E-06 24058   0.307E-03    0.428E-03
RMM:   5    -0.286363147090E+03    0.57193E-07   -0.16551E-06 23485   0.392E-03
  27 F= -.28636315E+03 E0= -.28636216E+03  d E =-.874508E-06
       N       E                     dE             d eps       ncg     rms          rms(c)
RMM:   1    -0.286363147355E+03   -0.20750E-06   -0.77386E-04 45360   0.586E-02    0.482E-03
RMM:   2    -0.286363151550E+03   -0.41947E-05   -0.25980E-05 45009   0.161E-02    0.935E-03
RMM:   3    -0.286363150415E+03    0.11346E-05   -0.34837E-06 31633   0.412E-03    0.407E-03
RMM:   4    -0.286363150317E+03    0.98273E-07   -0.66903E-07 23184   0.270E-03    0.288E-03
RMM:   5    -0.286363150449E+03   -0.13161E-06   -0.59262E-07 23093   0.218E-03
  28 F= -.28636315E+03 E0= -.28636217E+03  d E =-.423265E-05
