<?xml version="1.0" encoding="ISO-8859-1"?>
<modeling>
 <generator>
  <i name="program" type="string">vasp </i>
  <i name="version" type="string">5.4.1  </i>
  <i name="subversion" type="string">24Jun15 (build Feb 03 2017 16:24:58) complex                          parallel </i>
  <i name="platform" type="string">IFC91_ompi </i>
  <i name="date" type="string">2018 06 25 </i>
  <i name="time" type="string">14:10:54 </i>
 </generator>
 <incar>
  <i type="string" name="SYSTEM"> Ir_Ru</i>
  <i type="int" name="ISTART">     0</i>
  <i type="string" name="PREC">accurate</i>
  <i type="string" name="ALGO"> Very_Fast</i>
  <i type="int" name="ICHARG">     2</i>
  <i type="int" name="NELMIN">     5</i>
  <i type="int" name="IBRION">    -1</i>
  <i name="EDIFFG">      0.00001000</i>
  <i type="int" name="ISIF">     2</i>
  <i type="int" name="ISMEAR">    -5</i>
  <i name="SIGMA">      0.10000000</i>
  <v type="int" name="KPOINT_BSE">    -1     0     0     0</v>
 </incar>
 <kpoints>
  <generation param="Gamma">
   <v type="int" name="divisions">       5        5       10 </v>
   <v name="usershift">      0.00000000       0.00000000       0.00000000 </v>
   <v name="genvec1">      0.20000000       0.00000000      -0.00000000 </v>
   <v name="genvec2">     -0.00000000       0.20000000       0.00000000 </v>
   <v name="genvec3">      0.00000000       0.00000000       0.10000000 </v>
   <v name="shift">      0.00000000       0.00000000       0.00000000 </v>
  </generation>
  <varray name="kpointlist" >
   <v>       0.00000000       0.00000000       0.00000000 </v>
   <v>       0.20000000       0.00000000       0.00000000 </v>
   <v>       0.40000000       0.00000000       0.00000000 </v>
   <v>      -0.00000000       0.20000000       0.00000000 </v>
   <v>       0.20000000       0.20000000       0.00000000 </v>
   <v>       0.40000000       0.20000000       0.00000000 </v>
   <v>      -0.40000000       0.20000000      -0.00000000 </v>
   <v>      -0.20000000       0.20000000      -0.00000000 </v>
   <v>      -0.00000000       0.40000000       0.00000000 </v>
   <v>       0.20000000       0.40000000       0.00000000 </v>
   <v>       0.40000000       0.40000000       0.00000000 </v>
   <v>      -0.40000000       0.40000000      -0.00000000 </v>
   <v>      -0.20000000       0.40000000      -0.00000000 </v>
   <v>       0.00000000       0.00000000       0.10000000 </v>
   <v>       0.20000000       0.00000000       0.10000000 </v>
   <v>       0.40000000       0.00000000       0.10000000 </v>
   <v>      -0.40000000       0.00000000       0.10000000 </v>
   <v>      -0.20000000      -0.00000000       0.10000000 </v>
   <v>       0.00000000       0.20000000       0.10000000 </v>
   <v>       0.20000000       0.20000000       0.10000000 </v>
   <v>       0.40000000       0.20000000       0.10000000 </v>
   <v>      -0.40000000       0.20000000       0.10000000 </v>
   <v>      -0.20000000       0.20000000       0.10000000 </v>
   <v>       0.00000000       0.40000000       0.10000000 </v>
   <v>       0.20000000       0.40000000       0.10000000 </v>
   <v>       0.40000000       0.40000000       0.10000000 </v>
   <v>      -0.40000000       0.40000000       0.10000000 </v>
   <v>      -0.20000000       0.40000000       0.10000000 </v>
   <v>      -0.00000000      -0.40000000       0.10000000 </v>
   <v>       0.20000000      -0.40000000       0.10000000 </v>
   <v>       0.40000000      -0.40000000       0.10000000 </v>
   <v>      -0.40000000      -0.40000000       0.10000000 </v>
   <v>      -0.20000000      -0.40000000       0.10000000 </v>
   <v>      -0.00000000      -0.20000000       0.10000000 </v>
   <v>       0.20000000      -0.20000000       0.10000000 </v>
   <v>       0.40000000      -0.20000000       0.10000000 </v>
   <v>      -0.40000000      -0.20000000       0.10000000 </v>
   <v>      -0.20000000      -0.20000000       0.10000000 </v>
   <v>       0.00000000       0.00000000       0.20000000 </v>
   <v>       0.20000000      -0.00000000       0.20000000 </v>
   <v>       0.40000000       0.00000000       0.20000000 </v>
   <v>      -0.40000000       0.00000000       0.20000000 </v>
   <v>      -0.20000000      -0.00000000       0.20000000 </v>
   <v>       0.00000000       0.20000000       0.20000000 </v>
   <v>       0.20000000       0.20000000       0.20000000 </v>
   <v>       0.40000000       0.20000000       0.20000000 </v>
   <v>      -0.40000000       0.20000000       0.20000000 </v>
   <v>      -0.20000000       0.20000000       0.20000000 </v>
   <v>      -0.00000000       0.40000000       0.20000000 </v>
   <v>       0.20000000       0.40000000       0.20000000 </v>
   <v>       0.40000000       0.40000000       0.20000000 </v>
   <v>      -0.40000000       0.40000000       0.20000000 </v>
   <v>      -0.20000000       0.40000000       0.20000000 </v>
   <v>      -0.00000000      -0.40000000       0.20000000 </v>
   <v>       0.20000000      -0.40000000       0.20000000 </v>
   <v>       0.40000000      -0.40000000       0.20000000 </v>
   <v>      -0.40000000      -0.40000000       0.20000000 </v>
   <v>      -0.20000000      -0.40000000       0.20000000 </v>
   <v>      -0.00000000      -0.20000000       0.20000000 </v>
   <v>       0.20000000      -0.20000000       0.20000000 </v>
   <v>       0.40000000      -0.20000000       0.20000000 </v>
   <v>      -0.40000000      -0.20000000       0.20000000 </v>
   <v>      -0.20000000      -0.20000000       0.20000000 </v>
   <v>       0.00000000       0.00000000       0.30000000 </v>
   <v>       0.20000000       0.00000000       0.30000000 </v>
   <v>       0.40000000       0.00000000       0.30000000 </v>
   <v>      -0.40000000       0.00000000       0.30000000 </v>
   <v>      -0.20000000       0.00000000       0.30000000 </v>
   <v>       0.00000000       0.20000000       0.30000000 </v>
   <v>       0.20000000       0.20000000       0.30000000 </v>
   <v>       0.40000000       0.20000000       0.30000000 </v>
   <v>      -0.40000000       0.20000000       0.30000000 </v>
   <v>      -0.20000000       0.20000000       0.30000000 </v>
   <v>       0.00000000       0.40000000       0.30000000 </v>
   <v>       0.20000000       0.40000000       0.30000000 </v>
   <v>       0.40000000       0.40000000       0.30000000 </v>
   <v>      -0.40000000       0.40000000       0.30000000 </v>
   <v>      -0.20000000       0.40000000       0.30000000 </v>
   <v>      -0.00000000      -0.40000000       0.30000000 </v>
   <v>       0.20000000      -0.40000000       0.30000000 </v>
   <v>       0.40000000      -0.40000000       0.30000000 </v>
   <v>      -0.40000000      -0.40000000       0.30000000 </v>
   <v>      -0.20000000      -0.40000000       0.30000000 </v>
   <v>       0.00000000      -0.20000000       0.30000000 </v>
   <v>       0.20000000      -0.20000000       0.30000000 </v>
   <v>       0.40000000      -0.20000000       0.30000000 </v>
   <v>      -0.40000000      -0.20000000       0.30000000 </v>
   <v>      -0.20000000      -0.20000000       0.30000000 </v>
   <v>       0.00000000       0.00000000       0.40000000 </v>
   <v>       0.20000000       0.00000000       0.40000000 </v>
   <v>       0.40000000      -0.00000000       0.40000000 </v>
   <v>      -0.40000000      -0.00000000       0.40000000 </v>
   <v>      -0.20000000       0.00000000       0.40000000 </v>
   <v>       0.00000000       0.20000000       0.40000000 </v>
   <v>       0.20000000       0.20000000       0.40000000 </v>
   <v>       0.40000000       0.20000000       0.40000000 </v>
   <v>      -0.40000000       0.20000000       0.40000000 </v>
   <v>      -0.20000000       0.20000000       0.40000000 </v>
   <v>       0.00000000       0.40000000       0.40000000 </v>
   <v>       0.20000000       0.40000000       0.40000000 </v>
   <v>       0.40000000       0.40000000       0.40000000 </v>
   <v>      -0.40000000       0.40000000       0.40000000 </v>
   <v>      -0.20000000       0.40000000       0.40000000 </v>
   <v>      -0.00000000      -0.40000000       0.40000000 </v>
   <v>       0.20000000      -0.40000000       0.40000000 </v>
   <v>       0.40000000      -0.40000000       0.40000000 </v>
   <v>      -0.40000000      -0.40000000       0.40000000 </v>
   <v>      -0.20000000      -0.40000000       0.40000000 </v>
   <v>      -0.00000000      -0.20000000       0.40000000 </v>
   <v>       0.20000000      -0.20000000       0.40000000 </v>
   <v>       0.40000000      -0.20000000       0.40000000 </v>
   <v>      -0.40000000      -0.20000000       0.40000000 </v>
   <v>      -0.20000000      -0.20000000       0.40000000 </v>
   <v>      -0.00000000       0.00000000       0.50000000 </v>
   <v>       0.20000000       0.00000000       0.50000000 </v>
   <v>       0.40000000       0.00000000       0.50000000 </v>
   <v>       0.00000000       0.20000000       0.50000000 </v>
   <v>       0.20000000       0.20000000       0.50000000 </v>
   <v>       0.40000000       0.20000000       0.50000000 </v>
   <v>      -0.40000000       0.20000000       0.50000000 </v>
   <v>      -0.20000000       0.20000000       0.50000000 </v>
   <v>       0.00000000       0.40000000       0.50000000 </v>
   <v>       0.20000000       0.40000000       0.50000000 </v>
   <v>       0.40000000       0.40000000       0.50000000 </v>
   <v>      -0.40000000       0.40000000       0.50000000 </v>
   <v>      -0.20000000       0.40000000       0.50000000 </v>
  </varray>
  <varray name="weights" >
   <v>       0.00400000 </v>
   <v>       0.00800000 </v>
   <v>       0.00800000 </v>
   <v>       0.00800000 </v>
   <v>       0.00800000 </v>
   <v>       0.00800000 </v>
   <v>       0.00800000 </v>
   <v>       0.00800000 </v>
   <v>       0.00800000 </v>
   <v>       0.00800000 </v>
   <v>       0.00800000 </v>
   <v>       0.00800000 </v>
   <v>       0.00800000 </v>
   <v>       0.00800000 </v>
   <v>       0.00800000 </v>
   <v>       0.00800000 </v>
   <v>       0.00800000 </v>
   <v>       0.00800000 </v>
   <v>       0.00800000 </v>
   <v>       0.00800000 </v>
   <v>       0.00800000 </v>
   <v>       0.00800000 </v>
   <v>       0.00800000 </v>
   <v>       0.00800000 </v>
   <v>       0.00800000 </v>
   <v>       0.00800000 </v>
   <v>       0.00800000 </v>
   <v>       0.00800000 </v>
   <v>       0.00800000 </v>
   <v>       0.00800000 </v>
   <v>       0.00800000 </v>
   <v>       0.00800000 </v>
   <v>       0.00800000 </v>
   <v>       0.00800000 </v>
   <v>       0.00800000 </v>
   <v>       0.00800000 </v>
   <v>       0.00800000 </v>
   <v>       0.00800000 </v>
   <v>       0.00800000 </v>
   <v>       0.00800000 </v>
   <v>       0.00800000 </v>
   <v>       0.00800000 </v>
   <v>       0.00800000 </v>
   <v>       0.00800000 </v>
   <v>       0.00800000 </v>
   <v>       0.00800000 </v>
   <v>       0.00800000 </v>
   <v>       0.00800000 </v>
   <v>       0.00800000 </v>
   <v>       0.00800000 </v>
   <v>       0.00800000 </v>
   <v>       0.00800000 </v>
   <v>       0.00800000 </v>
   <v>       0.00800000 </v>
   <v>       0.00800000 </v>
   <v>       0.00800000 </v>
   <v>       0.00800000 </v>
   <v>       0.00800000 </v>
   <v>       0.00800000 </v>
   <v>       0.00800000 </v>
   <v>       0.00800000 </v>
   <v>       0.00800000 </v>
   <v>       0.00800000 </v>
   <v>       0.00800000 </v>
   <v>       0.00800000 </v>
   <v>       0.00800000 </v>
   <v>       0.00800000 </v>
   <v>       0.00800000 </v>
   <v>       0.00800000 </v>
   <v>       0.00800000 </v>
   <v>       0.00800000 </v>
   <v>       0.00800000 </v>
   <v>       0.00800000 </v>
   <v>       0.00800000 </v>
   <v>       0.00800000 </v>
   <v>       0.00800000 </v>
   <v>       0.00800000 </v>
   <v>       0.00800000 </v>
   <v>       0.00800000 </v>
   <v>       0.00800000 </v>
   <v>       0.00800000 </v>
   <v>       0.00800000 </v>
   <v>       0.00800000 </v>
   <v>       0.00800000 </v>
   <v>       0.00800000 </v>
   <v>       0.00800000 </v>
   <v>       0.00800000 </v>
   <v>       0.00800000 </v>
   <v>       0.00800000 </v>
   <v>       0.00800000 </v>
   <v>       0.00800000 </v>
   <v>       0.00800000 </v>
   <v>       0.00800000 </v>
   <v>       0.00800000 </v>
   <v>       0.00800000 </v>
   <v>       0.00800000 </v>
   <v>       0.00800000 </v>
   <v>       0.00800000 </v>
   <v>       0.00800000 </v>
   <v>       0.00800000 </v>
   <v>       0.00800000 </v>
   <v>       0.00800000 </v>
   <v>       0.00800000 </v>
   <v>       0.00800000 </v>
   <v>       0.00800000 </v>
   <v>       0.00800000 </v>
   <v>       0.00800000 </v>
   <v>       0.00800000 </v>
   <v>       0.00800000 </v>
   <v>       0.00800000 </v>
   <v>       0.00800000 </v>
   <v>       0.00800000 </v>
   <v>       0.00800000 </v>
   <v>       0.00400000 </v>
   <v>       0.00800000 </v>
   <v>       0.00800000 </v>
   <v>       0.00800000 </v>
   <v>       0.00800000 </v>
   <v>       0.00800000 </v>
   <v>       0.00800000 </v>
   <v>       0.00800000 </v>
   <v>       0.00800000 </v>
   <v>       0.00800000 </v>
   <v>       0.00800000 </v>
   <v>       0.00800000 </v>
   <v>       0.00800000 </v>
  </varray>
  <varray name="tetrahedronlist"  type="int" >
   <v type="int" >        2        1        2        5       14 </v>
   <v type="int" >        2        1        4        5       14 </v>
   <v type="int" >        2        4        5       14       19 </v>
   <v type="int" >        2        2        5       14       15 </v>
   <v type="int" >        2        5       14       15       20 </v>
   <v type="int" >        2        5       14       19       20 </v>
   <v type="int" >        2        2        3        6       15 </v>
   <v type="int" >        2        2        5        6       15 </v>
   <v type="int" >        2        5        6       15       20 </v>
   <v type="int" >        2        3        6       15       16 </v>
   <v type="int" >        2        6       15       16       21 </v>
   <v type="int" >        2        6       15       20       21 </v>
   <v type="int" >        2        3        3        7       16 </v>
   <v type="int" >        2        3        6        7       16 </v>
   <v type="int" >        2        6        7       16       21 </v>
   <v type="int" >        2        3        7       16       17 </v>
   <v type="int" >        2        7       16       17       22 </v>
   <v type="int" >        2        7       16       21       22 </v>
   <v type="int" >        2        2        3        8       17 </v>
   <v type="int" >        2        3        7        8       17 </v>
   <v type="int" >        2        7        8       17       22 </v>
   <v type="int" >        2        2        8       17       18 </v>
   <v type="int" >        2        8       17       18       23 </v>
   <v type="int" >        2        8       17       22       23 </v>
   <v type="int" >        2        1        2        4       18 </v>
   <v type="int" >        2        2        4        8       18 </v>
   <v type="int" >        2        4        8       18       23 </v>
   <v type="int" >        2        1        4       14       18 </v>
   <v type="int" >        2        4       14       18       19 </v>
   <v type="int" >        2        4       18       19       23 </v>
   <v type="int" >        2        4        5       10       19 </v>
   <v type="int" >        2        4        9       10       19 </v>
   <v type="int" >        2        9       10       19       24 </v>
   <v type="int" >        2        5       10       19       20 </v>
   <v type="int" >        2       10       19       20       25 </v>
   <v type="int" >        2       10       19       24       25 </v>
   <v type="int" >        2        5        6       11       20 </v>
   <v type="int" >        2        5       10       11       20 </v>
   <v type="int" >        2       10       11       20       25 </v>
   <v type="int" >        2        6       11       20       21 </v>
   <v type="int" >        2       11       20       21       26 </v>
   <v type="int" >        2       11       20       25       26 </v>
   <v type="int" >        2        6        7       12       21 </v>
   <v type="int" >        2        6       11       12       21 </v>
   <v type="int" >        2       11       12       21       26 </v>
   <v type="int" >        2        7       12       21       22 </v>
   <v type="int" >        2       12       21       22       27 </v>
   <v type="int" >        2       12       21       26       27 </v>
   <v type="int" >        2        7        8       13       22 </v>
   <v type="int" >        2        7       12       13       22 </v>
   <v type="int" >        2       12       13       22       27 </v>
   <v type="int" >        2        8       13       22       23 </v>
   <v type="int" >        2       13       22       23       28 </v>
   <v type="int" >        2       13       22       27       28 </v>
   <v type="int" >        2        4        8        9       23 </v>
   <v type="int" >        2        8        9       13       23 </v>
   <v type="int" >        2        9       13       23       28 </v>
   <v type="int" >        2        4        9       19       23 </v>
   <v type="int" >        2        9       19       23       24 </v>
   <v type="int" >        2        9       23       24       28 </v>
   <v type="int" >        2        9       10       13       24 </v>
   <v type="int" >        2        9        9       13       24 </v>
   <v type="int" >        2        9       13       24       29 </v>
   <v type="int" >        2       10       13       24       25 </v>
   <v type="int" >        2       13       24       25       30 </v>
   <v type="int" >        2       13       24       29       30 </v>
   <v type="int" >        2       10       11       12       25 </v>
   <v type="int" >        2       10       12       13       25 </v>
   <v type="int" >        2       12       13       25       30 </v>
   <v type="int" >        2       11       12       25       26 </v>
   <v type="int" >        2       12       25       26       31 </v>
   <v type="int" >        2       12       25       30       31 </v>
   <v type="int" >        4       11       11       12       26 </v>
   <v type="int" >        2       11       12       26       31 </v>
   <v type="int" >        2       11       12       26       27 </v>
   <v type="int" >        2       11       26       27       32 </v>
   <v type="int" >        2       11       26       31       32 </v>
   <v type="int" >        2       10       12       13       27 </v>
   <v type="int" >        2       10       11       12       27 </v>
   <v type="int" >        2       10       11       27       32 </v>
   <v type="int" >        2       10       13       27       28 </v>
   <v type="int" >        2       10       27       28       33 </v>
   <v type="int" >        2       10       27       32       33 </v>
   <v type="int" >        2        9        9       13       28 </v>
   <v type="int" >        2        9       10       13       28 </v>
   <v type="int" >        2        9       10       28       33 </v>
   <v type="int" >        2        9        9       24       28 </v>
   <v type="int" >        2        9       24       28       29 </v>
   <v type="int" >        2        9       28       29       33 </v>
   <v type="int" >        2        8        9       13       29 </v>
   <v type="int" >        2        4        8        9       29 </v>
   <v type="int" >        2        4        8       29       34 </v>
   <v type="int" >        2        8       13       29       30 </v>
   <v type="int" >        2        8       29       30       35 </v>
   <v type="int" >        2        8       29       34       35 </v>
   <v type="int" >        2        7       12       13       30 </v>
   <v type="int" >        2        7        8       13       30 </v>
   <v type="int" >        2        7        8       30       35 </v>
   <v type="int" >        2        7       12       30       31 </v>
   <v type="int" >        2        7       30       31       36 </v>
   <v type="int" >        2        7       30       35       36 </v>
   <v type="int" >        2        6       11       12       31 </v>
   <v type="int" >        2        6        7       12       31 </v>
   <v type="int" >        2        6        7       31       36 </v>
   <v type="int" >        2        6       11       31       32 </v>
   <v type="int" >        2        6       31       32       37 </v>
   <v type="int" >        2        6       31       36       37 </v>
   <v type="int" >        2        5       10       11       32 </v>
   <v type="int" >        2        5        6       11       32 </v>
   <v type="int" >        2        5        6       32       37 </v>
   <v type="int" >        2        5       10       32       33 </v>
   <v type="int" >        2        5       32       33       38 </v>
   <v type="int" >        2        5       32       37       38 </v>
   <v type="int" >        2        4        9       10       33 </v>
   <v type="int" >        2        4        5       10       33 </v>
   <v type="int" >        2        4        5       33       38 </v>
   <v type="int" >        2        4        9       29       33 </v>
   <v type="int" >        2        4       29       33       34 </v>
   <v type="int" >        2        4       33       34       38 </v>
   <v type="int" >        2        2        4        8       34 </v>
   <v type="int" >        2        1        2        4       34 </v>
   <v type="int" >        2        1        2       14       34 </v>
   <v type="int" >        2        2        8       34       35 </v>
   <v type="int" >        2        2       15       34       35 </v>
   <v type="int" >        2        2       14       15       34 </v>
   <v type="int" >        2        3        7        8       35 </v>
   <v type="int" >        2        2        3        8       35 </v>
   <v type="int" >        2        2        3       15       35 </v>
   <v type="int" >        2        3        7       35       36 </v>
   <v type="int" >        2        3       16       35       36 </v>
   <v type="int" >        2        3       15       16       35 </v>
   <v type="int" >        2        3        6        7       36 </v>
   <v type="int" >        2        3        3        7       36 </v>
   <v type="int" >        2        3        3       16       36 </v>
   <v type="int" >        2        3        6       36       37 </v>
   <v type="int" >        2        3       17       36       37 </v>
   <v type="int" >        2        3       16       17       36 </v>
   <v type="int" >        2        2        5        6       37 </v>
   <v type="int" >        2        2        3        6       37 </v>
   <v type="int" >        2        2        3       17       37 </v>
   <v type="int" >        2        2        5       37       38 </v>
   <v type="int" >        2        2       18       37       38 </v>
   <v type="int" >        2        2       17       18       37 </v>
   <v type="int" >        2        1        4        5       38 </v>
   <v type="int" >        2        1        2        5       38 </v>
   <v type="int" >        2        1        2       18       38 </v>
   <v type="int" >        2        1        4       34       38 </v>
   <v type="int" >        2        1       14       34       38 </v>
   <v type="int" >        2        1       14       18       38 </v>
   <v type="int" >        2       14       15       20       39 </v>
   <v type="int" >        2       14       19       20       39 </v>
   <v type="int" >        2       19       20       39       44 </v>
   <v type="int" >        2       15       20       39       40 </v>
   <v type="int" >        2       20       39       40       45 </v>
   <v type="int" >        2       20       39       44       45 </v>
   <v type="int" >        2       15       16       21       40 </v>
   <v type="int" >        2       15       20       21       40 </v>
   <v type="int" >        2       20       21       40       45 </v>
   <v type="int" >        2       16       21       40       41 </v>
   <v type="int" >        2       21       40       41       46 </v>
   <v type="int" >        2       21       40       45       46 </v>
   <v type="int" >        2       16       17       22       41 </v>
   <v type="int" >        2       16       21       22       41 </v>
   <v type="int" >        2       21       22       41       46 </v>
   <v type="int" >        2       17       22       41       42 </v>
   <v type="int" >        2       22       41       42       47 </v>
   <v type="int" >        2       22       41       46       47 </v>
   <v type="int" >        2       17       18       23       42 </v>
   <v type="int" >        2       17       22       23       42 </v>
   <v type="int" >        2       22       23       42       47 </v>
   <v type="int" >        2       18       23       42       43 </v>
   <v type="int" >        2       23       42       43       48 </v>
   <v type="int" >        2       23       42       47       48 </v>
   <v type="int" >        2       14       18       19       43 </v>
   <v type="int" >        2       18       19       23       43 </v>
   <v type="int" >        2       19       23       43       48 </v>
   <v type="int" >        2       14       19       39       43 </v>
   <v type="int" >        2       19       39       43       44 </v>
   <v type="int" >        2       19       43       44       48 </v>
   <v type="int" >        2       19       20       25       44 </v>
   <v type="int" >        2       19       24       25       44 </v>
   <v type="int" >        2       24       25       44       49 </v>
   <v type="int" >        2       20       25       44       45 </v>
   <v type="int" >        2       25       44       45       50 </v>
   <v type="int" >        2       25       44       49       50 </v>
   <v type="int" >        2       20       21       26       45 </v>
   <v type="int" >        2       20       25       26       45 </v>
   <v type="int" >        2       25       26       45       50 </v>
   <v type="int" >        2       21       26       45       46 </v>
   <v type="int" >        2       26       45       46       51 </v>
   <v type="int" >        2       26       45       50       51 </v>
   <v type="int" >        2       21       22       27       46 </v>
   <v type="int" >        2       21       26       27       46 </v>
   <v type="int" >        2       26       27       46       51 </v>
   <v type="int" >        2       22       27       46       47 </v>
   <v type="int" >        2       27       46       47       52 </v>
   <v type="int" >        2       27       46       51       52 </v>
   <v type="int" >        2       22       23       28       47 </v>
   <v type="int" >        2       22       27       28       47 </v>
   <v type="int" >        2       27       28       47       52 </v>
   <v type="int" >        2       23       28       47       48 </v>
   <v type="int" >        2       28       47       48       53 </v>
   <v type="int" >        2       28       47       52       53 </v>
   <v type="int" >        2       19       23       24       48 </v>
   <v type="int" >        2       23       24       28       48 </v>
   <v type="int" >        2       24       28       48       53 </v>
   <v type="int" >        2       19       24       44       48 </v>
   <v type="int" >        2       24       44       48       49 </v>
   <v type="int" >        2       24       48       49       53 </v>
   <v type="int" >        2       24       25       30       49 </v>
   <v type="int" >        2       24       29       30       49 </v>
   <v type="int" >        2       29       30       49       54 </v>
   <v type="int" >        2       25       30       49       50 </v>
   <v type="int" >        2       30       49       50       55 </v>
   <v type="int" >        2       30       49       54       55 </v>
   <v type="int" >        2       25       26       31       50 </v>
   <v type="int" >        2       25       30       31       50 </v>
   <v type="int" >        2       30       31       50       55 </v>
   <v type="int" >        2       26       31       50       51 </v>
   <v type="int" >        2       31       50       51       56 </v>
   <v type="int" >        2       31       50       55       56 </v>
   <v type="int" >        2       26       27       32       51 </v>
   <v type="int" >        2       26       31       32       51 </v>
   <v type="int" >        2       31       32       51       56 </v>
   <v type="int" >        2       27       32       51       52 </v>
   <v type="int" >        2       32       51       52       57 </v>
   <v type="int" >        2       32       51       56       57 </v>
   <v type="int" >        2       27       28       33       52 </v>
   <v type="int" >        2       27       32       33       52 </v>
   <v type="int" >        2       32       33       52       57 </v>
   <v type="int" >        2       28       33       52       53 </v>
   <v type="int" >        2       33       52       53       58 </v>
   <v type="int" >        2       33       52       57       58 </v>
   <v type="int" >        2       24       28       29       53 </v>
   <v type="int" >        2       28       29       33       53 </v>
   <v type="int" >        2       29       33       53       58 </v>
   <v type="int" >        2       24       29       49       53 </v>
   <v type="int" >        2       29       49       53       54 </v>
   <v type="int" >        2       29       53       54       58 </v>
   <v type="int" >        2       29       30       35       54 </v>
   <v type="int" >        2       29       34       35       54 </v>
   <v type="int" >        2       34       35       54       59 </v>
   <v type="int" >        2       30       35       54       55 </v>
   <v type="int" >        2       35       54       55       60 </v>
   <v type="int" >        2       35       54       59       60 </v>
   <v type="int" >        2       30       31       36       55 </v>
   <v type="int" >        2       30       35       36       55 </v>
   <v type="int" >        2       35       36       55       60 </v>
   <v type="int" >        2       31       36       55       56 </v>
   <v type="int" >        2       36       55       56       61 </v>
   <v type="int" >        2       36       55       60       61 </v>
   <v type="int" >        2       31       32       37       56 </v>
   <v type="int" >        2       31       36       37       56 </v>
   <v type="int" >        2       36       37       56       61 </v>
   <v type="int" >        2       32       37       56       57 </v>
   <v type="int" >        2       37       56       57       62 </v>
   <v type="int" >        2       37       56       61       62 </v>
   <v type="int" >        2       32       33       38       57 </v>
   <v type="int" >        2       32       37       38       57 </v>
   <v type="int" >        2       37       38       57       62 </v>
   <v type="int" >        2       33       38       57       58 </v>
   <v type="int" >        2       38       57       58       63 </v>
   <v type="int" >        2       38       57       62       63 </v>
   <v type="int" >        2       29       33       34       58 </v>
   <v type="int" >        2       33       34       38       58 </v>
   <v type="int" >        2       34       38       58       63 </v>
   <v type="int" >        2       29       34       54       58 </v>
   <v type="int" >        2       34       54       58       59 </v>
   <v type="int" >        2       34       58       59       63 </v>
   <v type="int" >        2       15       34       35       59 </v>
   <v type="int" >        2       14       15       34       59 </v>
   <v type="int" >        2       14       15       39       59 </v>
   <v type="int" >        2       15       35       59       60 </v>
   <v type="int" >        2       15       40       59       60 </v>
   <v type="int" >        2       15       39       40       59 </v>
   <v type="int" >        2       16       35       36       60 </v>
   <v type="int" >        2       15       16       35       60 </v>
   <v type="int" >        2       15       16       40       60 </v>
   <v type="int" >        2       16       36       60       61 </v>
   <v type="int" >        2       16       41       60       61 </v>
   <v type="int" >        2       16       40       41       60 </v>
   <v type="int" >        2       17       36       37       61 </v>
   <v type="int" >        2       16       17       36       61 </v>
   <v type="int" >        2       16       17       41       61 </v>
   <v type="int" >        2       17       37       61       62 </v>
   <v type="int" >        2       17       42       61       62 </v>
   <v type="int" >        2       17       41       42       61 </v>
   <v type="int" >        2       18       37       38       62 </v>
   <v type="int" >        2       17       18       37       62 </v>
   <v type="int" >        2       17       18       42       62 </v>
   <v type="int" >        2       18       38       62       63 </v>
   <v type="int" >        2       18       43       62       63 </v>
   <v type="int" >        2       18       42       43       62 </v>
   <v type="int" >        2       14       34       38       63 </v>
   <v type="int" >        2       14       18       38       63 </v>
   <v type="int" >        2       14       18       43       63 </v>
   <v type="int" >        2       14       34       59       63 </v>
   <v type="int" >        2       14       39       59       63 </v>
   <v type="int" >        2       14       39       43       63 </v>
   <v type="int" >        2       39       40       45       64 </v>
   <v type="int" >        2       39       44       45       64 </v>
   <v type="int" >        2       44       45       64       69 </v>
   <v type="int" >        2       40       45       64       65 </v>
   <v type="int" >        2       45       64       65       70 </v>
   <v type="int" >        2       45       64       69       70 </v>
   <v type="int" >        2       40       41       46       65 </v>
   <v type="int" >        2       40       45       46       65 </v>
   <v type="int" >        2       45       46       65       70 </v>
   <v type="int" >        2       41       46       65       66 </v>
   <v type="int" >        2       46       65       66       71 </v>
   <v type="int" >        2       46       65       70       71 </v>
   <v type="int" >        2       41       42       47       66 </v>
   <v type="int" >        2       41       46       47       66 </v>
   <v type="int" >        2       46       47       66       71 </v>
   <v type="int" >        2       42       47       66       67 </v>
   <v type="int" >        2       47       66       67       72 </v>
   <v type="int" >        2       47       66       71       72 </v>
   <v type="int" >        2       42       43       48       67 </v>
   <v type="int" >        2       42       47       48       67 </v>
   <v type="int" >        2       47       48       67       72 </v>
   <v type="int" >        2       43       48       67       68 </v>
   <v type="int" >        2       48       67       68       73 </v>
   <v type="int" >        2       48       67       72       73 </v>
   <v type="int" >        2       39       43       44       68 </v>
   <v type="int" >        2       43       44       48       68 </v>
   <v type="int" >        2       44       48       68       73 </v>
   <v type="int" >        2       39       44       64       68 </v>
   <v type="int" >        2       44       64       68       69 </v>
   <v type="int" >        2       44       68       69       73 </v>
   <v type="int" >        2       44       45       50       69 </v>
   <v type="int" >        2       44       49       50       69 </v>
   <v type="int" >        2       49       50       69       74 </v>
   <v type="int" >        2       45       50       69       70 </v>
   <v type="int" >        2       50       69       70       75 </v>
   <v type="int" >        2       50       69       74       75 </v>
   <v type="int" >        2       45       46       51       70 </v>
   <v type="int" >        2       45       50       51       70 </v>
   <v type="int" >        2       50       51       70       75 </v>
   <v type="int" >        2       46       51       70       71 </v>
   <v type="int" >        2       51       70       71       76 </v>
   <v type="int" >        2       51       70       75       76 </v>
   <v type="int" >        2       46       47       52       71 </v>
   <v type="int" >        2       46       51       52       71 </v>
   <v type="int" >        2       51       52       71       76 </v>
   <v type="int" >        2       47       52       71       72 </v>
   <v type="int" >        2       52       71       72       77 </v>
   <v type="int" >        2       52       71       76       77 </v>
   <v type="int" >        2       47       48       53       72 </v>
   <v type="int" >        2       47       52       53       72 </v>
   <v type="int" >        2       52       53       72       77 </v>
   <v type="int" >        2       48       53       72       73 </v>
   <v type="int" >        2       53       72       73       78 </v>
   <v type="int" >        2       53       72       77       78 </v>
   <v type="int" >        2       44       48       49       73 </v>
   <v type="int" >        2       48       49       53       73 </v>
   <v type="int" >        2       49       53       73       78 </v>
   <v type="int" >        2       44       49       69       73 </v>
   <v type="int" >        2       49       69       73       74 </v>
   <v type="int" >        2       49       73       74       78 </v>
   <v type="int" >        2       49       50       55       74 </v>
   <v type="int" >        2       49       54       55       74 </v>
   <v type="int" >        2       54       55       74       79 </v>
   <v type="int" >        2       50       55       74       75 </v>
   <v type="int" >        2       55       74       75       80 </v>
   <v type="int" >        2       55       74       79       80 </v>
   <v type="int" >        2       50       51       56       75 </v>
   <v type="int" >        2       50       55       56       75 </v>
   <v type="int" >        2       55       56       75       80 </v>
   <v type="int" >        2       51       56       75       76 </v>
   <v type="int" >        2       56       75       76       81 </v>
   <v type="int" >        2       56       75       80       81 </v>
   <v type="int" >        2       51       52       57       76 </v>
   <v type="int" >        2       51       56       57       76 </v>
   <v type="int" >        2       56       57       76       81 </v>
   <v type="int" >        2       52       57       76       77 </v>
   <v type="int" >        2       57       76       77       82 </v>
   <v type="int" >        2       57       76       81       82 </v>
   <v type="int" >        2       52       53       58       77 </v>
   <v type="int" >        2       52       57       58       77 </v>
   <v type="int" >        2       57       58       77       82 </v>
   <v type="int" >        2       53       58       77       78 </v>
   <v type="int" >        2       58       77       78       83 </v>
   <v type="int" >        2       58       77       82       83 </v>
   <v type="int" >        2       49       53       54       78 </v>
   <v type="int" >        2       53       54       58       78 </v>
   <v type="int" >        2       54       58       78       83 </v>
   <v type="int" >        2       49       54       74       78 </v>
   <v type="int" >        2       54       74       78       79 </v>
   <v type="int" >        2       54       78       79       83 </v>
   <v type="int" >        2       54       55       60       79 </v>
   <v type="int" >        2       54       59       60       79 </v>
   <v type="int" >        2       59       60       79       84 </v>
   <v type="int" >        2       55       60       79       80 </v>
   <v type="int" >        2       60       79       80       85 </v>
   <v type="int" >        2       60       79       84       85 </v>
   <v type="int" >        2       55       56       61       80 </v>
   <v type="int" >        2       55       60       61       80 </v>
   <v type="int" >        2       60       61       80       85 </v>
   <v type="int" >        2       56       61       80       81 </v>
   <v type="int" >        2       61       80       81       86 </v>
   <v type="int" >        2       61       80       85       86 </v>
   <v type="int" >        2       56       57       62       81 </v>
   <v type="int" >        2       56       61       62       81 </v>
   <v type="int" >        2       61       62       81       86 </v>
   <v type="int" >        2       57       62       81       82 </v>
   <v type="int" >        2       62       81       82       87 </v>
   <v type="int" >        2       62       81       86       87 </v>
   <v type="int" >        2       57       58       63       82 </v>
   <v type="int" >        2       57       62       63       82 </v>
   <v type="int" >        2       62       63       82       87 </v>
   <v type="int" >        2       58       63       82       83 </v>
   <v type="int" >        2       63       82       83       88 </v>
   <v type="int" >        2       63       82       87       88 </v>
   <v type="int" >        2       54       58       59       83 </v>
   <v type="int" >        2       58       59       63       83 </v>
   <v type="int" >        2       59       63       83       88 </v>
   <v type="int" >        2       54       59       79       83 </v>
   <v type="int" >        2       59       79       83       84 </v>
   <v type="int" >        2       59       83       84       88 </v>
   <v type="int" >        2       40       59       60       84 </v>
   <v type="int" >        2       39       40       59       84 </v>
   <v type="int" >        2       39       40       64       84 </v>
   <v type="int" >        2       40       60       84       85 </v>
   <v type="int" >        2       40       65       84       85 </v>
   <v type="int" >        2       40       64       65       84 </v>
   <v type="int" >        2       41       60       61       85 </v>
   <v type="int" >        2       40       41       60       85 </v>
   <v type="int" >        2       40       41       65       85 </v>
   <v type="int" >        2       41       61       85       86 </v>
   <v type="int" >        2       41       66       85       86 </v>
   <v type="int" >        2       41       65       66       85 </v>
   <v type="int" >        2       42       61       62       86 </v>
   <v type="int" >        2       41       42       61       86 </v>
   <v type="int" >        2       41       42       66       86 </v>
   <v type="int" >        2       42       62       86       87 </v>
   <v type="int" >        2       42       67       86       87 </v>
   <v type="int" >        2       42       66       67       86 </v>
   <v type="int" >        2       43       62       63       87 </v>
   <v type="int" >        2       42       43       62       87 </v>
   <v type="int" >        2       42       43       67       87 </v>
   <v type="int" >        2       43       63       87       88 </v>
   <v type="int" >        2       43       68       87       88 </v>
   <v type="int" >        2       43       67       68       87 </v>
   <v type="int" >        2       39       59       63       88 </v>
   <v type="int" >        2       39       43       63       88 </v>
   <v type="int" >        2       39       43       68       88 </v>
   <v type="int" >        2       39       59       84       88 </v>
   <v type="int" >        2       39       64       84       88 </v>
   <v type="int" >        2       39       64       68       88 </v>
   <v type="int" >        2       64       65       70       89 </v>
   <v type="int" >        2       64       69       70       89 </v>
   <v type="int" >        2       69       70       89       94 </v>
   <v type="int" >        2       65       70       89       90 </v>
   <v type="int" >        2       70       89       90       95 </v>
   <v type="int" >        2       70       89       94       95 </v>
   <v type="int" >        2       65       66       71       90 </v>
   <v type="int" >        2       65       70       71       90 </v>
   <v type="int" >        2       70       71       90       95 </v>
   <v type="int" >        2       66       71       90       91 </v>
   <v type="int" >        2       71       90       91       96 </v>
   <v type="int" >        2       71       90       95       96 </v>
   <v type="int" >        2       66       67       72       91 </v>
   <v type="int" >        2       66       71       72       91 </v>
   <v type="int" >        2       71       72       91       96 </v>
   <v type="int" >        2       67       72       91       92 </v>
   <v type="int" >        2       72       91       92       97 </v>
   <v type="int" >        2       72       91       96       97 </v>
   <v type="int" >        2       67       68       73       92 </v>
   <v type="int" >        2       67       72       73       92 </v>
   <v type="int" >        2       72       73       92       97 </v>
   <v type="int" >        2       68       73       92       93 </v>
   <v type="int" >        2       73       92       93       98 </v>
   <v type="int" >        2       73       92       97       98 </v>
   <v type="int" >        2       64       68       69       93 </v>
   <v type="int" >        2       68       69       73       93 </v>
   <v type="int" >        2       69       73       93       98 </v>
   <v type="int" >        2       64       69       89       93 </v>
   <v type="int" >        2       69       89       93       94 </v>
   <v type="int" >        2       69       93       94       98 </v>
   <v type="int" >        2       69       70       75       94 </v>
   <v type="int" >        2       69       74       75       94 </v>
   <v type="int" >        2       74       75       94       99 </v>
   <v type="int" >        2       70       75       94       95 </v>
   <v type="int" >        2       75       94       95      100 </v>
   <v type="int" >        2       75       94       99      100 </v>
   <v type="int" >        2       70       71       76       95 </v>
   <v type="int" >        2       70       75       76       95 </v>
   <v type="int" >        2       75       76       95      100 </v>
   <v type="int" >        2       71       76       95       96 </v>
   <v type="int" >        2       76       95       96      101 </v>
   <v type="int" >        2       76       95      100      101 </v>
   <v type="int" >        2       71       72       77       96 </v>
   <v type="int" >        2       71       76       77       96 </v>
   <v type="int" >        2       76       77       96      101 </v>
   <v type="int" >        2       72       77       96       97 </v>
   <v type="int" >        2       77       96       97      102 </v>
   <v type="int" >        2       77       96      101      102 </v>
   <v type="int" >        2       72       73       78       97 </v>
   <v type="int" >        2       72       77       78       97 </v>
   <v type="int" >        2       77       78       97      102 </v>
   <v type="int" >        2       73       78       97       98 </v>
   <v type="int" >        2       78       97       98      103 </v>
   <v type="int" >        2       78       97      102      103 </v>
   <v type="int" >        2       69       73       74       98 </v>
   <v type="int" >        2       73       74       78       98 </v>
   <v type="int" >        2       74       78       98      103 </v>
   <v type="int" >        2       69       74       94       98 </v>
   <v type="int" >        2       74       94       98       99 </v>
   <v type="int" >        2       74       98       99      103 </v>
   <v type="int" >        2       74       75       80       99 </v>
   <v type="int" >        2       74       79       80       99 </v>
   <v type="int" >        2       79       80       99      104 </v>
   <v type="int" >        2       75       80       99      100 </v>
   <v type="int" >        2       80       99      100      105 </v>
   <v type="int" >        2       80       99      104      105 </v>
   <v type="int" >        2       75       76       81      100 </v>
   <v type="int" >        2       75       80       81      100 </v>
   <v type="int" >        2       80       81      100      105 </v>
   <v type="int" >        2       76       81      100      101 </v>
   <v type="int" >        2       81      100      101      106 </v>
   <v type="int" >        2       81      100      105      106 </v>
   <v type="int" >        2       76       77       82      101 </v>
   <v type="int" >        2       76       81       82      101 </v>
   <v type="int" >        2       81       82      101      106 </v>
   <v type="int" >        2       77       82      101      102 </v>
   <v type="int" >        2       82      101      102      107 </v>
   <v type="int" >        2       82      101      106      107 </v>
   <v type="int" >        2       77       78       83      102 </v>
   <v type="int" >        2       77       82       83      102 </v>
   <v type="int" >        2       82       83      102      107 </v>
   <v type="int" >        2       78       83      102      103 </v>
   <v type="int" >        2       83      102      103      108 </v>
   <v type="int" >        2       83      102      107      108 </v>
   <v type="int" >        2       74       78       79      103 </v>
   <v type="int" >        2       78       79       83      103 </v>
   <v type="int" >        2       79       83      103      108 </v>
   <v type="int" >        2       74       79       99      103 </v>
   <v type="int" >        2       79       99      103      104 </v>
   <v type="int" >        2       79      103      104      108 </v>
   <v type="int" >        2       79       80       85      104 </v>
   <v type="int" >        2       79       84       85      104 </v>
   <v type="int" >        2       84       85      104      109 </v>
   <v type="int" >        2       80       85      104      105 </v>
   <v type="int" >        2       85      104      105      110 </v>
   <v type="int" >        2       85      104      109      110 </v>
   <v type="int" >        2       80       81       86      105 </v>
   <v type="int" >        2       80       85       86      105 </v>
   <v type="int" >        2       85       86      105      110 </v>
   <v type="int" >        2       81       86      105      106 </v>
   <v type="int" >        2       86      105      106      111 </v>
   <v type="int" >        2       86      105      110      111 </v>
   <v type="int" >        2       81       82       87      106 </v>
   <v type="int" >        2       81       86       87      106 </v>
   <v type="int" >        2       86       87      106      111 </v>
   <v type="int" >        2       82       87      106      107 </v>
   <v type="int" >        2       87      106      107      112 </v>
   <v type="int" >        2       87      106      111      112 </v>
   <v type="int" >        2       82       83       88      107 </v>
   <v type="int" >        2       82       87       88      107 </v>
   <v type="int" >        2       87       88      107      112 </v>
   <v type="int" >        2       83       88      107      108 </v>
   <v type="int" >        2       88      107      108      113 </v>
   <v type="int" >        2       88      107      112      113 </v>
   <v type="int" >        2       79       83       84      108 </v>
   <v type="int" >        2       83       84       88      108 </v>
   <v type="int" >        2       84       88      108      113 </v>
   <v type="int" >        2       79       84      104      108 </v>
   <v type="int" >        2       84      104      108      109 </v>
   <v type="int" >        2       84      108      109      113 </v>
   <v type="int" >        2       65       84       85      109 </v>
   <v type="int" >        2       64       65       84      109 </v>
   <v type="int" >        2       64       65       89      109 </v>
   <v type="int" >        2       65       85      109      110 </v>
   <v type="int" >        2       65       90      109      110 </v>
   <v type="int" >        2       65       89       90      109 </v>
   <v type="int" >        2       66       85       86      110 </v>
   <v type="int" >        2       65       66       85      110 </v>
   <v type="int" >        2       65       66       90      110 </v>
   <v type="int" >        2       66       86      110      111 </v>
   <v type="int" >        2       66       91      110      111 </v>
   <v type="int" >        2       66       90       91      110 </v>
   <v type="int" >        2       67       86       87      111 </v>
   <v type="int" >        2       66       67       86      111 </v>
   <v type="int" >        2       66       67       91      111 </v>
   <v type="int" >        2       67       87      111      112 </v>
   <v type="int" >        2       67       92      111      112 </v>
   <v type="int" >        2       67       91       92      111 </v>
   <v type="int" >        2       68       87       88      112 </v>
   <v type="int" >        2       67       68       87      112 </v>
   <v type="int" >        2       67       68       92      112 </v>
   <v type="int" >        2       68       88      112      113 </v>
   <v type="int" >        2       68       93      112      113 </v>
   <v type="int" >        2       68       92       93      112 </v>
   <v type="int" >        2       64       84       88      113 </v>
   <v type="int" >        2       64       68       88      113 </v>
   <v type="int" >        2       64       68       93      113 </v>
   <v type="int" >        2       64       84      109      113 </v>
   <v type="int" >        2       64       89      109      113 </v>
   <v type="int" >        2       64       89       93      113 </v>
   <v type="int" >        2       89       90       95      114 </v>
   <v type="int" >        2       89       94       95      114 </v>
   <v type="int" >        2       94       95      114      117 </v>
   <v type="int" >        2       90       95      114      115 </v>
   <v type="int" >        2       95      114      115      118 </v>
   <v type="int" >        2       95      114      117      118 </v>
   <v type="int" >        2       90       91       96      115 </v>
   <v type="int" >        2       90       95       96      115 </v>
   <v type="int" >        2       95       96      115      118 </v>
   <v type="int" >        2       91       96      115      116 </v>
   <v type="int" >        2       96      115      116      119 </v>
   <v type="int" >        2       96      115      118      119 </v>
   <v type="int" >        2       91       92       97      116 </v>
   <v type="int" >        2       91       96       97      116 </v>
   <v type="int" >        2       96       97      116      119 </v>
   <v type="int" >        2       92       97      116      116 </v>
   <v type="int" >        2       97      116      116      120 </v>
   <v type="int" >        2       97      116      119      120 </v>
   <v type="int" >        2       92       93       98      116 </v>
   <v type="int" >        2       92       97       98      116 </v>
   <v type="int" >        2       97       98      116      120 </v>
   <v type="int" >        2       93       98      115      116 </v>
   <v type="int" >        2       98      115      116      121 </v>
   <v type="int" >        2       98      116      120      121 </v>
   <v type="int" >        2       89       93       94      115 </v>
   <v type="int" >        2       93       94       98      115 </v>
   <v type="int" >        2       94       98      115      121 </v>
   <v type="int" >        2       89       94      114      115 </v>
   <v type="int" >        2       94      114      115      117 </v>
   <v type="int" >        2       94      115      117      121 </v>
   <v type="int" >        2       94       95      100      117 </v>
   <v type="int" >        2       94       99      100      117 </v>
   <v type="int" >        2       99      100      117      122 </v>
   <v type="int" >        2       95      100      117      118 </v>
   <v type="int" >        2      100      117      118      123 </v>
   <v type="int" >        2      100      117      122      123 </v>
   <v type="int" >        2       95       96      101      118 </v>
   <v type="int" >        2       95      100      101      118 </v>
   <v type="int" >        2      100      101      118      123 </v>
   <v type="int" >        2       96      101      118      119 </v>
   <v type="int" >        2      101      118      119      124 </v>
   <v type="int" >        2      101      118      123      124 </v>
   <v type="int" >        2       96       97      102      119 </v>
   <v type="int" >        2       96      101      102      119 </v>
   <v type="int" >        2      101      102      119      124 </v>
   <v type="int" >        2       97      102      119      120 </v>
   <v type="int" >        2      102      119      120      125 </v>
   <v type="int" >        2      102      119      124      125 </v>
   <v type="int" >        2       97       98      103      120 </v>
   <v type="int" >        2       97      102      103      120 </v>
   <v type="int" >        2      102      103      120      125 </v>
   <v type="int" >        2       98      103      120      121 </v>
   <v type="int" >        2      103      120      121      126 </v>
   <v type="int" >        2      103      120      125      126 </v>
   <v type="int" >        2       94       98       99      121 </v>
   <v type="int" >        2       98       99      103      121 </v>
   <v type="int" >        2       99      103      121      126 </v>
   <v type="int" >        2       94       99      117      121 </v>
   <v type="int" >        2       99      117      121      122 </v>
   <v type="int" >        2       99      121      122      126 </v>
   <v type="int" >        2       99      100      105      122 </v>
   <v type="int" >        2       99      104      105      122 </v>
   <v type="int" >        2      104      105      122      122 </v>
   <v type="int" >        2      100      105      122      123 </v>
   <v type="int" >        2      105      122      123      126 </v>
   <v type="int" >        2      105      122      122      126 </v>
   <v type="int" >        2      100      101      106      123 </v>
   <v type="int" >        2      100      105      106      123 </v>
   <v type="int" >        2      105      106      123      126 </v>
   <v type="int" >        2      101      106      123      124 </v>
   <v type="int" >        2      106      123      124      125 </v>
   <v type="int" >        2      106      123      125      126 </v>
   <v type="int" >        2      101      102      107      124 </v>
   <v type="int" >        2      101      106      107      124 </v>
   <v type="int" >        2      106      107      124      125 </v>
   <v type="int" >        2      102      107      124      125 </v>
   <v type="int" >        4      107      124      124      125 </v>
   <v type="int" >        2      102      103      108      125 </v>
   <v type="int" >        2      102      107      108      125 </v>
   <v type="int" >        2      107      108      124      125 </v>
   <v type="int" >        2      103      108      125      126 </v>
   <v type="int" >        2      108      123      125      126 </v>
   <v type="int" >        2      108      123      124      125 </v>
   <v type="int" >        2       99      103      104      126 </v>
   <v type="int" >        2      103      104      108      126 </v>
   <v type="int" >        2      104      108      123      126 </v>
   <v type="int" >        2       99      104      122      126 </v>
   <v type="int" >        2      104      122      122      126 </v>
   <v type="int" >        2      104      122      123      126 </v>
   <v type="int" >        2      104      105      110      122 </v>
   <v type="int" >        2      104      109      110      122 </v>
   <v type="int" >        2      109      110      117      122 </v>
   <v type="int" >        2      105      110      122      126 </v>
   <v type="int" >        2      110      121      122      126 </v>
   <v type="int" >        2      110      117      121      122 </v>
   <v type="int" >        2      105      106      111      126 </v>
   <v type="int" >        2      105      110      111      126 </v>
   <v type="int" >        2      110      111      121      126 </v>
   <v type="int" >        2      106      111      125      126 </v>
   <v type="int" >        2      111      120      125      126 </v>
   <v type="int" >        2      111      120      121      126 </v>
   <v type="int" >        2      106      107      112      125 </v>
   <v type="int" >        2      106      111      112      125 </v>
   <v type="int" >        2      111      112      120      125 </v>
   <v type="int" >        2      107      112      124      125 </v>
   <v type="int" >        2      112      119      124      125 </v>
   <v type="int" >        2      112      119      120      125 </v>
   <v type="int" >        2      107      108      113      124 </v>
   <v type="int" >        2      107      112      113      124 </v>
   <v type="int" >        2      112      113      119      124 </v>
   <v type="int" >        2      108      113      123      124 </v>
   <v type="int" >        2      113      118      123      124 </v>
   <v type="int" >        2      113      118      119      124 </v>
   <v type="int" >        2      104      108      109      123 </v>
   <v type="int" >        2      108      109      113      123 </v>
   <v type="int" >        2      109      113      118      123 </v>
   <v type="int" >        2      104      109      122      123 </v>
   <v type="int" >        2      109      117      122      123 </v>
   <v type="int" >        2      109      117      118      123 </v>
   <v type="int" >        2       90      109      110      117 </v>
   <v type="int" >        2       89       90      109      117 </v>
   <v type="int" >        2       89       90      114      117 </v>
   <v type="int" >        2       90      110      117      121 </v>
   <v type="int" >        2       90      115      117      121 </v>
   <v type="int" >        2       90      114      115      117 </v>
   <v type="int" >        2       91      110      111      121 </v>
   <v type="int" >        2       90       91      110      121 </v>
   <v type="int" >        2       90       91      115      121 </v>
   <v type="int" >        2       91      111      120      121 </v>
   <v type="int" >        2       91      116      120      121 </v>
   <v type="int" >        2       91      115      116      121 </v>
   <v type="int" >        2       92      111      112      120 </v>
   <v type="int" >        2       91       92      111      120 </v>
   <v type="int" >        2       91       92      116      120 </v>
   <v type="int" >        2       92      112      119      120 </v>
   <v type="int" >        2       92      116      119      120 </v>
   <v type="int" >        2       92      116      116      120 </v>
   <v type="int" >        2       93      112      113      119 </v>
   <v type="int" >        2       92       93      112      119 </v>
   <v type="int" >        2       92       93      116      119 </v>
   <v type="int" >        2       93      113      118      119 </v>
   <v type="int" >        2       93      115      118      119 </v>
   <v type="int" >        2       93      115      116      119 </v>
   <v type="int" >        2       89      109      113      118 </v>
   <v type="int" >        2       89       93      113      118 </v>
   <v type="int" >        2       89       93      115      118 </v>
   <v type="int" >        2       89      109      117      118 </v>
   <v type="int" >        2       89      114      117      118 </v>
   <v type="int" >        2       89      114      115      118 </v>
  </varray>
  <i name="volumeweight">      0.00066667 </i>
 </kpoints>
 <parameters>
  <separator name="general" >
   <i type="string" name="SYSTEM">Ir_Ru</i>
   <i type="logical" name="LCOMPAT"> F  </i>
  </separator>
  <separator name="electronic" >
   <i type="string" name="PREC">accura</i>
   <i name="ENMAX">    213.27600000</i>
   <i name="ENAUG">    333.49400000</i>
   <i name="EDIFF">      0.00010000</i>
   <i type="int" name="IALGO">    48</i>
   <i type="int" name="IWAVPR">    10</i>
   <i type="int" name="NBANDS">   180</i>
   <i name="NELECT">    280.00000000</i>
   <i type="int" name="TURBO">     0</i>
   <i type="int" name="IRESTART">     0</i>
   <i type="int" name="NREBOOT">     0</i>
   <i type="int" name="NMIN">     0</i>
   <i name="EREF">      0.00000000</i>
   <separator name="electronic smearing" >
    <i type="int" name="ISMEAR">    -5</i>
    <i name="SIGMA">      0.10000000</i>
    <i name="KSPACING">      0.50000000</i>
    <i type="logical" name="KGAMMA"> T  </i>
   </separator>
   <separator name="electronic projectors" >
    <i type="logical" name="LREAL"> F  </i>
    <v name="ROPT">      0.00000000      0.00000000</v>
    <i type="int" name="LMAXPAW">  -100</i>
    <i type="int" name="LMAXMIX">     2</i>
    <i type="logical" name="NLSPLINE"> F  </i>
   </separator>
   <separator name="electronic startup" >
    <i type="int" name="ISTART">     0</i>
    <i type="int" name="ICHARG">     2</i>
    <i type="int" name="INIWAV">     1</i>
   </separator>
   <separator name="electronic spin" >
    <i type="int" name="ISPIN">     1</i>
    <i type="logical" name="LNONCOLLINEAR"> F  </i>
    <v name="MAGMOM">      1.00000000      1.00000000      1.00000000      1.00000000      1.00000000      1.00000000      1.00000000      1.00000000      1.00000000      1.00000000      1.00000000      1.00000000      1.00000000      1.00000000      1.00000000      1.00000000      1.00000000      1.00000000      1.00000000      1.00000000
      1.00000000      1.00000000      1.00000000      1.00000000      1.00000000      1.00000000      1.00000000      1.00000000      1.00000000      1.00000000      1.00000000      1.00000000</v>
    <i name="NUPDOWN">     -1.00000000</i>
    <i type="logical" name="LSORBIT"> F  </i>
    <v name="SAXIS">      0.00000000      0.00000000      1.00000000</v>
    <i type="logical" name="LSPIRAL"> F  </i>
    <v name="QSPIRAL">      0.00000000      0.00000000      0.00000000</v>
    <i type="logical" name="LZEROZ"> F  </i>
   </separator>
   <separator name="electronic exchange-correlation" >
    <i type="logical" name="LASPH"> F  </i>
    <i type="logical" name="LMETAGGA"> F  </i>
   </separator>
   <separator name="electronic convergence" >
    <i type="int" name="NELM">    60</i>
    <i type="int" name="NELMDL">   -12</i>
    <i type="int" name="NELMIN">     5</i>
    <i name="ENINI">    213.27600000</i>
    <separator name="electronic convergence detail" >
     <i type="logical" name="LDIAG"> T  </i>
     <i type="logical" name="LSUBROT"> F  </i>
     <i name="WEIMIN">      0.00000000</i>
     <i name="EBREAK">      0.00000000</i>
     <i name="DEPER">      0.30000000</i>
     <i type="int" name="NRMM">     4</i>
     <i name="TIME">      0.40000000</i>
    </separator>
   </separator>
   <separator name="electronic mixer" >
    <i name="AMIX">      0.40000000</i>
    <i name="BMIX">      1.00000000</i>
    <i name="AMIN">      0.10000000</i>
    <i name="AMIX_MAG">      1.60000000</i>
    <i name="BMIX_MAG">      1.00000000</i>
    <separator name="electronic mixer details" >
     <i type="int" name="IMIX">     4</i>
     <i type="logical" name="MIXFIRST"> F  </i>
     <i type="int" name="MAXMIX">   -45</i>
     <i name="WC">    100.00000000</i>
     <i type="int" name="INIMIX">     1</i>
     <i type="int" name="MIXPRE">     1</i>
     <i type="int" name="MREMOVE">     5</i>
    </separator>
   </separator>
   <separator name="electronic dipolcorrection" >
    <i type="logical" name="LDIPOL"> F  </i>
    <i type="logical" name="LMONO"> F  </i>
    <i type="int" name="IDIPOL">     0</i>
    <i name="EPSILON">      1.00000000</i>
    <v name="DIPOL">   -100.00000000   -100.00000000   -100.00000000</v>
    <i name="EFIELD">      0.00000000</i>
   </separator>
  </separator>
  <separator name="grids" >
   <i type="int" name="NGX">    50</i>
   <i type="int" name="NGY">    50</i>
   <i type="int" name="NGZ">    28</i>
   <i type="int" name="NGXF">   100</i>
   <i type="int" name="NGYF">   100</i>
   <i type="int" name="NGZF">    56</i>
   <i type="logical" name="ADDGRID"> F  </i>
  </separator>
  <separator name="ionic" >
   <i type="int" name="NSW">     0</i>
   <i type="int" name="IBRION">    -1</i>
   <i type="int" name="ISIF">     2</i>
   <i name="PSTRESS">      0.00000000</i>
   <i name="EDIFFG">      0.00001000</i>
   <i type="int" name="NFREE">     0</i>
   <i name="POTIM">      0.50000000</i>
   <i name="SMASS">     -3.00000000</i>
   <i name="SCALEE">      1.00000000</i>
  </separator>
  <separator name="ionic md" >
   <i name="TEBEG">      0.00010000</i>
   <i name="TEEND">      0.00010000</i>
   <i type="int" name="NBLOCK">     1</i>
   <i type="int" name="KBLOCK">     1</i>
   <i type="int" name="NPACO">   256</i>
   <i name="APACO">     16.00000000</i>
  </separator>
  <separator name="symmetry" >
   <i type="int" name="ISYM">     2</i>
   <i name="SYMPREC">      0.00001000</i>
  </separator>
  <separator name="dos" >
   <i type="logical" name="LORBIT"> F  </i>
   <v name="RWIGS">     -1.00000000     -1.00000000</v>
   <i type="int" name="NEDOS">   301</i>
   <i name="EMIN">     10.00000000</i>
   <i name="EMAX">    -10.00000000</i>
   <i name="EFERMI">      0.00000000</i>
  </separator>
  <separator name="writing" >
   <i type="int" name="NWRITE">     2</i>
   <i type="logical" name="LWAVE"> T  </i>
   <i type="logical" name="LCHARG"> T  </i>
   <i type="logical" name="LPARD"> F  </i>
   <i type="logical" name="LVTOT"> F  </i>
   <i type="logical" name="LVHAR"> F  </i>
   <i type="logical" name="LELF"> F  </i>
   <i type="logical" name="LOPTICS"> F  </i>
   <v name="STM">      0.00000000      0.00000000      0.00000000      0.00000000      0.00000000      0.00000000      0.00000000</v>
  </separator>
  <separator name="performance" >
   <i type="int" name="NPAR">    20</i>
   <i type="int" name="NSIM">     4</i>
   <i type="int" name="NBLK">    -1</i>
   <i type="logical" name="LPLANE"> T  </i>
   <i type="logical" name="LSCALAPACK"> T  </i>
   <i type="logical" name="LSCAAWARE"> F  </i>
   <i type="logical" name="LSCALU"> F  </i>
   <i type="logical" name="LASYNC"> F  </i>
   <i type="logical" name="LORBITALREAL"> F  </i>
  </separator>
  <separator name="miscellaneous" >
   <i type="int" name="IDIOT">     3</i>
   <i type="logical" name="LMUSIC"> F  </i>
   <v name="POMASS">    192.22000000    101.07000000</v>
   <v name="DARWINR">      0.00000000      0.00000000</v>
   <v name="DARWINV">      1.00000000      1.00000000</v>
   <i type="logical" name="LCORR"> T  </i>
  </separator>
  <i type="logical" name="GGA_COMPAT"> T  </i>
  <i type="logical" name="LBERRY"> F  </i>
  <i type="int" name="ICORELEVEL">     0</i>
  <i type="logical" name="LDAU"> F  </i>
  <i type="int" name="I_CONSTRAINED_M">     0</i>
  <separator name="electronic exchange-correlation" >
   <i type="string" name="GGA">--</i>
   <i type="int" name="VOSKOWN">     0</i>
   <i type="logical" name="LHFCALC"> F  </i>
   <i type="string" name="PRECFOCK"></i>
   <i type="logical" name="LSYMGRAD"> F  </i>
   <i type="logical" name="LHFONE"> F  </i>
   <i type="logical" name="LRHFCALC"> F  </i>
   <i type="logical" name="LTHOMAS"> F  </i>
   <i type="logical" name="LMODELHF"> F  </i>
   <i name="ENCUT4O">     -1.00000000</i>
   <i type="int" name="EXXOEP">     0</i>
   <i type="int" name="FOURORBIT">     0</i>
   <i name="AEXX">      0.00000000</i>
   <i name="HFALPHA">      0.00000000</i>
   <i name="MCALPHA">      0.00000000</i>
   <i name="ALDAX">      1.00000000</i>
   <i name="AGGAX">      1.00000000</i>
   <i name="ALDAC">      1.00000000</i>
   <i name="AGGAC">      1.00000000</i>
   <i type="int" name="NKREDX">     1</i>
   <i type="int" name="NKREDY">     1</i>
   <i type="int" name="NKREDZ">     1</i>
   <i type="logical" name="SHIFTRED"> F  </i>
   <i type="logical" name="ODDONLY"> F  </i>
   <i type="logical" name="EVENONLY"> F  </i>
   <i type="int" name="LMAXFOCK">     0</i>
   <i type="int" name="NMAXFOCKAE">     0</i>
   <i type="logical" name="LFOCKAEDFT"> F  </i>
   <i name="HFSCREEN">      0.00000000</i>
   <i name="HFSCREENC">      0.00000000</i>
   <i type="int" name="NBANDSGWLOW">     0</i>
  </separator>
  <separator name="vdW DFT" >
   <i type="logical" name="LUSE_VDW"> F  </i>
   <i name="Zab_VDW">     -0.84910000</i>
   <i name="PARAM1">      0.12340000</i>
   <i name="PARAM2">      1.00000000</i>
   <i name="PARAM3">      0.00000000</i>
  </separator>
  <separator name="model GW" >
   <i type="int" name="MODEL_GW">     0</i>
   <i name="MODEL_EPS0">      8.63595382</i>
   <i name="MODEL_ALPHA">      1.00000000</i>
  </separator>
  <separator name="linear response parameters" >
   <i type="logical" name="LEPSILON"> F  </i>
   <i type="logical" name="LRPA"> F  </i>
   <i type="logical" name="LNABLA"> F  </i>
   <i type="logical" name="LVEL"> F  </i>
   <i type="int" name="KINTER">     0</i>
   <i name="CSHIFT">      0.10000000</i>
   <i name="OMEGAMAX">     -1.00000000</i>
   <i name="DEG_THRESHOLD">      0.00200000</i>
  </separator>
  <separator name="orbital magnetization" >
   <i type="logical" name="NUCIND"> F  </i>
   <v name="MAGPOS">      0.00000000      0.00000000      0.00000000</v>
   <i type="logical" name="LNICSALL"> T  </i>
   <i type="logical" name="ORBITALMAG"> F  </i>
   <i type="logical" name="LMAGBLOCH"> F  </i>
   <i type="logical" name="LCHIMAG"> F  </i>
   <i type="logical" name="LGAUGE"> T  </i>
   <i type="int" name="MAGATOM">     0</i>
   <v name="MAGDIPOL">      0.00000000      0.00000000      0.00000000</v>
   <v name="AVECCONST">      0.00000000      0.00000000      0.00000000</v>
  </separator>
  <separator name="response functions" >
   <i type="logical" name="LADDER"> F  </i>
   <i type="logical" name="LFXC"> F  </i>
   <i type="logical" name="LHARTREE"> T  </i>
   <i type="int" name="IBSE">     0</i>
   <v type="int" name="KPOINT">    -1     0     0     0</v>
   <i type="logical" name="LTCTE"> F  </i>
   <i type="logical" name="LTETE"> F  </i>
   <i type="logical" name="LTRIPLET"> F  </i>
   <i type="logical" name="LFXCEPS"> F  </i>
   <i type="logical" name="LFXHEG"> F  </i>
   <i type="int" name="NATURALO">     0</i>
   <i type="logical" name="L2ORDER"> F  </i>
   <i type="logical" name="LUSEW"> F  </i>
   <i name="ENCUTGW">     -2.00000000</i>
   <i name="ENCUTGWSOFT">     -2.00000000</i>
   <i name="ENCUTLF">     -1.00000000</i>
   <i type="int" name="LMAXMP2">    -1</i>
   <i name="SCISSOR">      0.00000000</i>
   <i type="int" name="NOMEGA">     0</i>
   <i type="int" name="NOMEGAR">     0</i>
   <i type="int" name="NBANDSGW">    -1</i>
   <i type="int" name="NBANDSO">    -1</i>
   <i type="int" name="NBANDSV">    -1</i>
   <i type="int" name="NELM">     1</i>
   <i type="int" name="NELMHF">     1</i>
   <i type="int" name="DIM">     3</i>
   <i type="int" name="ANTIRES">     0</i>
   <i name="OMEGAMAX">    -30.00000000</i>
   <i name="OMEGAMIN">    -30.00000000</i>
   <i name="OMEGATL">   -200.00000000</i>
   <i type="int" name="OMEGAGRID">     0</i>
   <i name="CSHIFT">     -0.10000000</i>
   <i type="logical" name="SELFENERGY"> F  </i>
   <i type="logical" name="LSPECTRAL"> F  </i>
   <i type="logical" name="LSPECTRALGW"> F  </i>
   <i type="logical" name="LSINGLES"> F  </i>
   <i type="logical" name="LFERMIGW"> F  </i>
   <i type="logical" name="ODDONLYGW"> F  </i>
   <i type="logical" name="EVENONLYGW"> F  </i>
   <i type="int" name="NKREDLFX">     1</i>
   <i type="int" name="NKREDLFY">     1</i>
   <i type="int" name="NKREDLFZ">     1</i>
   <i type="int" name="MAXMEM">  1800</i>
   <i type="int" name="TELESCOPE">     0</i>
   <i type="int" name="TAUPAR">     1</i>
   <i type="int" name="OMEGAPAR">    -1</i>
   <i name="LAMBDA">      1.00000000</i>
  </separator>
  <separator name="External order field" >
   <i name="OFIELD_KAPPA">      0.00000000</i>
   <v name="OFIELD_K">      0.00000000      0.00000000      0.00000000</v>
   <i name="OFIELD_Q6_NEAR">      0.00000000</i>
   <i name="OFIELD_Q6_FAR">      0.00000000</i>
   <i name="OFIELD_A">      0.00000000</i>
  </separator>
 </parameters>
 <atominfo>
  <atoms>      32 </atoms>
  <types>       2 </types>
  <array name="atoms" >
   <dimension dim="1">ion</dimension>
   <field type="string">element</field>
   <field type="int">atomtype</field>
   <set>
    <rc><c>Ir</c><c>   1</c></rc>
    <rc><c>Ir</c><c>   1</c></rc>
    <rc><c>Ir</c><c>   1</c></rc>
    <rc><c>Ir</c><c>   1</c></rc>
    <rc><c>Ir</c><c>   1</c></rc>
    <rc><c>Ir</c><c>   1</c></rc>
    <rc><c>Ir</c><c>   1</c></rc>
    <rc><c>Ir</c><c>   1</c></rc>
    <rc><c>Ir</c><c>   1</c></rc>
    <rc><c>Ir</c><c>   1</c></rc>
    <rc><c>Ir</c><c>   1</c></rc>
    <rc><c>Ir</c><c>   1</c></rc>
    <rc><c>Ir</c><c>   1</c></rc>
    <rc><c>Ir</c><c>   1</c></rc>
    <rc><c>Ir</c><c>   1</c></rc>
    <rc><c>Ir</c><c>   1</c></rc>
    <rc><c>Ir</c><c>   1</c></rc>
    <rc><c>Ir</c><c>   1</c></rc>
    <rc><c>Ir</c><c>   1</c></rc>
    <rc><c>Ir</c><c>   1</c></rc>
    <rc><c>Ir</c><c>   1</c></rc>
    <rc><c>Ir</c><c>   1</c></rc>
    <rc><c>Ir</c><c>   1</c></rc>
    <rc><c>Ir</c><c>   1</c></rc>
    <rc><c>Ru</c><c>   2</c></rc>
    <rc><c>Ru</c><c>   2</c></rc>
    <rc><c>Ru</c><c>   2</c></rc>
    <rc><c>Ru</c><c>   2</c></rc>
    <rc><c>Ru</c><c>   2</c></rc>
    <rc><c>Ru</c><c>   2</c></rc>
    <rc><c>Ru</c><c>   2</c></rc>
    <rc><c>Ru</c><c>   2</c></rc>
   </set>
  </array>
  <array name="atomtypes" >
   <dimension dim="1">type</dimension>
   <field type="int">atomspertype</field>
   <field type="string">element</field>
   <field>mass</field>
   <field>valence</field>
   <field type="string">pseudopotential</field>
   <set>
    <rc><c>  24</c><c>Ir</c><c>    192.22000000</c><c>      9.00000000</c><c> PAW_PBE Ir 06Sep2000                   </c></rc>
    <rc><c>   8</c><c>Ru</c><c>    101.07000000</c><c>      8.00000000</c><c> PAW_PBE Ru 06Sep2000                   </c></rc>
   </set>
  </array>
 </atominfo>
 <structure name="initialpos" >
  <crystal>
   <varray name="basis" >
    <v>      -8.24412030       4.76044433      -4.39919880 </v>
    <v>      -0.00065217       9.52042150      -4.39848395 </v>
    <v>       1.37445280      -2.38159340      -4.40144486 </v>
   </varray>
   <i name="volume">    460.58420373 </i>
   <varray name="rec_basis" >
    <v>      -0.11372299      -0.01313197      -0.02840700 </v>
    <v>       0.06823928       0.09191052      -0.02842290 </v>
    <v>       0.04547157      -0.07872342      -0.17040184 </v>
   </varray>
  </crystal>
  <varray name="positions" >
   <v>       0.81383084       0.31375074       0.87724308 </v>
[...]
       <r>    8.7542    1.0000 </r>
       <r>    8.8734    1.0000 </r>
       <r>    8.9197    1.0000 </r>
       <r>    9.0615    1.0000 </r>
       <r>    9.1433    1.0000 </r>
       <r>    9.2610    1.0000 </r>
       <r>    9.2759    1.0000 </r>
       <r>    9.3435    1.0000 </r>
       <r>    9.3852    1.0000 </r>
       <r>    9.4707    1.0000 </r>
       <r>    9.5139    1.0000 </r>
       <r>    9.5334    1.0000 </r>
       <r>    9.5480    1.0000 </r>
       <r>    9.5926    1.0000 </r>
       <r>    9.6147    1.0127 </r>
       <r>    9.6503    1.0832 </r>
       <r>    9.6860    1.1034 </r>
       <r>    9.7247    0.4233 </r>
       <r>    9.7876    0.0000 </r>
       <r>    9.7927    0.0000 </r>
       <r>    9.8228    0.0000 </r>
       <r>    9.8372    0.0000 </r>
       <r>    9.9194    0.0000 </r>
       <r>   10.0000    0.0000 </r>
       <r>   10.0555    0.0000 </r>
       <r>   10.1166    0.0000 </r>
       <r>   10.2223    0.0000 </r>
       <r>   10.3298    0.0000 </r>
       <r>   10.3397    0.0000 </r>
       <r>   10.3676    0.0000 </r>
       <r>   10.3837    0.0000 </r>
       <r>   10.4077    0.0000 </r>
       <r>   10.4309    0.0000 </r>
       <r>   10.5207    0.0000 </r>
       <r>   10.5438    0.0000 </r>
       <r>   10.5673    0.0000 </r>
       <r>   10.5893    0.0000 </r>
       <r>   10.6295    0.0000 </r>
       <r>   10.6618    0.0000 </r>
       <r>   10.6920    0.0000 </r>
       <r>   10.7119    0.0000 </r>
       <r>   10.7382    0.0000 </r>
       <r>   10.8154    0.0000 </r>
       <r>   10.8394    0.0000 </r>
       <r>   10.8610    0.0000 </r>
       <r>   10.9126    0.0000 </r>
       <r>   11.1569    0.0000 </r>
       <r>   11.3329    0.0000 </r>
       <r>   11.4026    0.0000 </r>
       <r>   11.5983    0.0000 </r>
       <r>   11.9382    0.0000 </r>
       <r>   12.2657    0.0000 </r>
       <r>   12.3258    0.0000 </r>
       <r>   12.9218    0.0000 </r>
       <r>   13.2978    0.0000 </r>
       <r>   16.0653    0.0000 </r>
      </set>
     </set>
    </set>
   </array>
  </eigenvalues>
  <separator name="orbital magnetization" >
   <v name="MAGDIPOLOUT">      0.00000000      0.00000000      0.00000000</v>
  </separator>
  <dos>
   <i name="efermi">      9.74391155 </i>
   <total>
    <array>
     <dimension dim="1">gridpoints</dimension>
     <dimension dim="2">spin</dimension>
     <field>energy</field>
     <field>total</field>
     <field>integrated</field>
     <set>
      <set comment="spin 1">
       <r>    -1.6316     0.0000     0.0000 </r>
       <r>    -1.5693     0.0000     0.0000 </r>
       <r>    -1.5070     0.0000     0.0000 </r>
       <r>    -1.4446     0.0000     0.0000 </r>
       <r>    -1.3823     0.0000     0.0000 </r>
       <r>    -1.3200     0.0000     0.0000 </r>
       <r>    -1.2577     0.0000     0.0000 </r>
       <r>    -1.1954     0.0000     0.0000 </r>
       <r>    -1.1330     0.0000     0.0000 </r>
       <r>    -1.0707     0.0000     0.0000 </r>
       <r>    -1.0084     0.0000     0.0000 </r>
       <r>    -0.9461     0.0000     0.0000 </r>
       <r>    -0.8837     0.0000     0.0000 </r>
       <r>    -0.8214     0.0000     0.0000 </r>
       <r>    -0.7591     0.0000     0.0000 </r>
       <r>    -0.6968     0.0000     0.0000 </r>
       <r>    -0.6344     0.0000     0.0000 </r>
       <r>    -0.5721     0.2167     0.0043 </r>
       <r>    -0.5098     0.6735     0.0337 </r>
       <r>    -0.4475     0.7913     0.0798 </r>
       <r>    -0.3851     0.9930     0.1351 </r>
       <r>    -0.3228     1.2925     0.2049 </r>
       <r>    -0.2605     1.5837     0.2960 </r>
       <r>    -0.1982     1.6219     0.3963 </r>
       <r>    -0.1359     1.8652     0.5046 </r>
       <r>    -0.0735     1.8904     0.6236 </r>
       <r>    -0.0112     1.7663     0.7380 </r>
       <r>     0.0511     1.4400     0.8378 </r>
       <r>     0.1134     1.3011     0.9224 </r>
       <r>     0.1758     1.1847     0.9997 </r>
       <r>     0.2381     1.3729     1.0766 </r>
       <r>     0.3004     1.8221     1.1759 </r>
       <r>     0.3627     1.9924     1.2994 </r>
       <r>     0.4251     2.2869     1.4312 </r>
       <r>     0.4874     2.2517     1.5736 </r>
       <r>     0.5497     2.2399     1.7134 </r>
       <r>     0.6120     2.2322     1.8526 </r>
       <r>     0.6743     2.2459     1.9923 </r>
       <r>     0.7367     2.9914     2.1512 </r>
       <r>     0.7990     3.1793     2.3453 </r>
       <r>     0.8613     3.3662     2.5481 </r>
       <r>     0.9236     3.6185     2.7661 </r>
       <r>     0.9860     3.7347     2.9962 </r>
       <r>     1.0483     3.8194     3.2307 </r>
       <r>     1.1106     3.9750     3.4744 </r>
       <r>     1.1729     3.7927     3.7171 </r>
       <r>     1.2353     3.5045     3.9442 </r>
       <r>     1.2976     3.3758     4.1585 </r>
       <r>     1.3599     3.8518     4.3778 </r>
       <r>     1.4222     4.5097     4.6459 </r>
       <r>     1.4845     4.3106     4.9200 </r>
       <r>     1.5469     4.4242     5.1857 </r>
       <r>     1.6092     5.3906     5.4855 </r>
       <r>     1.6715     6.0931     5.8646 </r>
       <r>     1.7338     5.4390     6.2245 </r>
       <r>     1.7962     4.8421     6.5493 </r>
       <r>     1.8585     4.5225     6.8242 </r>
       <r>     1.9208     7.2376     7.1960 </r>
       <r>     1.9831     8.8526     7.7124 </r>
       <r>     2.0455     6.3099     8.1653 </r>
       <r>     2.1078     8.9844     8.6148 </r>
       <r>     2.1701    14.3179     9.3471 </r>
       <r>     2.2324    17.3997    10.2594 </r>
       <r>     2.2947    20.1169    11.4548 </r>
       <r>     2.3571    21.4757    12.7293 </r>
       <r>     2.4194    25.0850    14.2184 </r>
       <r>     2.4817    23.7203    15.5540 </r>
       <r>     2.5440    23.0722    16.9993 </r>
       <r>     2.6064    20.9946    18.3209 </r>
       <r>     2.6687    23.4560    19.6612 </r>
       <r>     2.7310    27.8013    21.1913 </r>
       <r>     2.7933    27.2289    22.9790 </r>
       <r>     2.8557    28.8570    24.7890 </r>
       <r>     2.9180    31.8008    26.5685 </r>
       <r>     2.9803    30.3850    28.5676 </r>
       <r>     3.0426    38.2609    30.6268 </r>
       <r>     3.1049    30.8810    32.6094 </r>
       <r>     3.1673    37.5941    34.7384 </r>
       <r>     3.2296    40.7988    36.8659 </r>
       <r>     3.2919    41.3363    39.0656 </r>
       <r>     3.3542    33.5758    41.4952 </r>
       <r>     3.4166    46.2099    44.1145 </r>
       <r>     3.4789    40.6657    46.6027 </r>
       <r>     3.5412    37.4973    48.9612 </r>
       <r>     3.6035    37.9556    51.3152 </r>
       <r>     3.6659    34.5403    53.6631 </r>
       <r>     3.7282    35.8731    55.8855 </r>
       <r>     3.7905    35.3643    58.1536 </r>
       <r>     3.8528    32.6643    60.2229 </r>
       <r>     3.9151    30.0037    62.0695 </r>
       <r>     3.9775    28.3096    63.8881 </r>
       <r>     4.0398    33.2761    65.7857 </r>
       <r>     4.1021    36.9689    67.9233 </r>
       <r>     4.1644    35.2778    70.2788 </r>
       <r>     4.2268    42.0977    72.9174 </r>
       <r>     4.2891    41.8153    75.4816 </r>
       <r>     4.3514    40.2425    78.0875 </r>
       <r>     4.4137    45.5364    80.7095 </r>
       <r>     4.4761    36.5418    83.0088 </r>
       <r>     4.5384    31.4095    85.1128 </r>
       <r>     4.6007    37.7029    87.2811 </r>
       <r>     4.6630    36.4871    89.4507 </r>
       <r>     4.7253    37.9420    91.6891 </r>
       <r>     4.7877    37.3630    94.0865 </r>
       <r>     4.8500    43.6768    96.5928 </r>
       <r>     4.9123    41.4727    99.5087 </r>
       <r>     4.9746    46.1957   102.3016 </r>
       <r>     5.0370    44.6002   105.0607 </r>
       <r>     5.0993    44.8148   107.7494 </r>
       <r>     5.1616    42.6124   110.4163 </r>
       <r>     5.2239    43.7703   113.0588 </r>
       <r>     5.2863    33.9356   115.5023 </r>
       <r>     5.3486    29.8948   117.4835 </r>
       <r>     5.4109    22.8852   119.2070 </r>
       <r>     5.4732    22.9125   120.4914 </r>
       <r>     5.5355    21.8083   121.7464 </r>
       <r>     5.5979    25.4694   123.2109 </r>
       <r>     5.6602    40.9441   125.2099 </r>
       <r>     5.7225    45.7264   127.8015 </r>
       <r>     5.7848    51.8319   130.8401 </r>
       <r>     5.8472    56.0663   134.0789 </r>
       <r>     5.9095    50.8602   137.5759 </r>
       <r>     5.9718    47.7750   140.6740 </r>
       <r>     6.0341    48.5738   143.7639 </r>
       <r>     6.0965    48.2634   146.8648 </r>
       <r>     6.1588    48.8453   149.8415 </r>
       <r>     6.2211    47.3113   152.7968 </r>
       <r>     6.2834    49.1689   155.6534 </r>
       <r>     6.3457    47.6285   158.6626 </r>
       <r>     6.4081    48.2316   161.7331 </r>
       <r>     6.4704    46.8550   164.7583 </r>
       <r>     6.5327    50.4519   167.7328 </r>
       <r>     6.5950    56.4069   170.8913 </r>
       <r>     6.6574    52.6057   174.1825 </r>
       <r>     6.7197    47.9219   177.4179 </r>
       <r>     6.7820    49.9408   180.3856 </r>
       <r>     6.8443    45.0490   183.4204 </r>
       <r>     6.9067    47.7931   186.2820 </r>
       <r>     6.9690    52.9103   189.4279 </r>
       <r>     7.0313    45.7639   192.4978 </r>
       <r>     7.0936    48.4580   195.4431 </r>
       <r>     7.1559    53.3527   198.6958 </r>
       <r>     7.2183    49.9650   201.9636 </r>
       <r>     7.2806    50.3319   205.0800 </r>
       <r>     7.3429    49.3568   208.2001 </r>
       <r>     7.4052    41.8737   211.0051 </r>
       <r>     7.4676    40.3568   213.5434 </r>
       <r>     7.5299    38.1885   216.0249 </r>
       <r>     7.5922    38.7239   218.4749 </r>
       <r>     7.6545    38.8362   220.9277 </r>
       <r>     7.7169    35.9283   223.1671 </r>
       <r>     7.7792    35.3143   225.2273 </r>
       <r>     7.8415    30.6185   227.0742 </r>
       <r>     7.9038    31.7052   229.0011 </r>
       <r>     7.9661    32.5655   230.9674 </r>
       <r>     8.0285    28.2548   232.8695 </r>
       <r>     8.0908    28.2714   234.7382 </r>
       <r>     8.1531    29.1777   236.5578 </r>
       <r>     8.2154    29.2173   238.4003 </r>
       <r>     8.2778    28.6165   240.1272 </r>
       <r>     8.3401    25.0929   241.8177 </r>
       <r>     8.4024    25.5532   243.3764 </r>
       <r>     8.4647    26.3088   245.0560 </r>
       <r>     8.5271    24.7255   246.6042 </r>
       <r>     8.5894    26.9468   248.2021 </r>
       <r>     8.6517    25.9331   249.8814 </r>
       <r>     8.7140    26.9578   251.5189 </r>
       <r>     8.7763    26.8576   253.2127 </r>
       <r>     8.8387    25.2069   254.8536 </r>
       <r>     8.9010    26.0264   256.4344 </r>
       <r>     8.9633    25.5839   258.0328 </r>
       <r>     9.0256    22.9152   259.5205 </r>
       <r>     9.0880    22.1929   260.9108 </r>
       <r>     9.1503    24.8999   262.3633 </r>
       <r>     9.2126    27.5049   264.0076 </r>
       <r>     9.2749    26.4377   265.7414 </r>
       <r>     9.3373    26.2601   267.3614 </r>
       <r>     9.3996    28.0902   268.9733 </r>
       <r>     9.4619    26.7292   270.6494 </r>
       <r>     9.5242    30.4169   272.4169 </r>
       <r>     9.5865    33.5308   274.3232 </r>
       <r>     9.6489    36.2962   276.3841 </r>
       <r>     9.7112    42.2270   278.6572 </r>
       <r>     9.7735    40.7428   281.1959 </r>
       <r>     9.8358    38.6041   283.7405 </r>
       <r>     9.8982    35.6375   286.0639 </r>
       <r>     9.9605    38.3960   288.2788 </r>
       <r>    10.0228    39.4841   290.8590 </r>
       <r>    10.0851    41.3828   293.3726 </r>
       <r>    10.1475    48.9924   296.1510 </r>
       <r>    10.2098    53.7923   299.1360 </r>
       <r>    10.2721    54.5341   302.5758 </r>
       <r>    10.3344    59.2231   305.9792 </r>
       <r>    10.3967    55.2490   309.4984 </r>
       <r>    10.4591    57.2327   313.0240 </r>
       <r>    10.5214    69.1164   317.0074 </r>
       <r>    10.5837    57.4535   320.8603 </r>
       <r>    10.6460    54.8007   324.4745 </r>
       <r>    10.7084    63.8020   328.1288 </r>
       <r>    10.7707    49.1103   331.5460 </r>
       <r>    10.8330    41.6552   334.5301 </r>
       <r>    10.8953    26.9807   336.5909 </r>
       <r>    10.9577    18.2856   338.0240 </r>
       <r>    11.0200    14.7139   339.0538 </r>
       <r>    11.0823    11.6169   339.8846 </r>
       <r>    11.1446    10.0409   340.5499 </r>
       <r>    11.2069     8.8116   341.1359 </r>
       <r>    11.2693     8.1348   341.6583 </r>
       <r>    11.3316     8.3650   342.1683 </r>
       <r>    11.3939     8.5950   342.7096 </r>
       <r>    11.4562     9.3273   343.2530 </r>
       <r>    11.5186     9.9403   343.8285 </r>
       <r>    11.5809     9.5461   344.4329 </r>
       <r>    11.6432     8.9236   345.0227 </r>
       <r>    11.7055     8.7174   345.5699 </r>
       <r>    11.7679     8.0482   346.0900 </r>
       <r>    11.8302     8.2757   346.5971 </r>
       <r>    11.8925     9.0796   347.1331 </r>
       <r>    11.9548     9.2799   347.7073 </r>
       <r>    12.0171     8.0120   348.2562 </r>
       <r>    12.0795     7.3007   348.7290 </r>
       <r>    12.1418     7.3501   349.1814 </r>
       <r>    12.2041     8.2956   349.6691 </r>
       <r>    12.2664     9.3011   350.2349 </r>
       <r>    12.3288     9.4574   350.8193 </r>
       <r>    12.3911     9.4769   351.4213 </r>
       <r>    12.4534     8.7786   351.9925 </r>
       <r>    12.5157     8.4886   352.5322 </r>
       <r>    12.5781     7.7960   353.0384 </r>
       <r>    12.6404     7.0394   353.5059 </r>
       <r>    12.7027     6.1949   353.9155 </r>
       <r>    12.7650     5.8371   354.2893 </r>
       <r>    12.8273     5.6428   354.6444 </r>
       <r>    12.8897     5.7363   354.9979 </r>
       <r>    12.9520     5.5165   355.3579 </r>
       <r>    13.0143     5.1125   355.6827 </r>
       <r>    13.0766     4.7934   355.9949 </r>
       <r>    13.1390     4.4614   356.2813 </r>
       <r>    13.2013     4.1889   356.5500 </r>
       <r>    13.2636     3.6964   356.7955 </r>
       <r>    13.3259     3.6594   357.0251 </r>
       <r>    13.3883     3.4703   357.2488 </r>
       <r>    13.4506     3.1453   357.4544 </r>
       <r>    13.5129     2.9162   357.6430 </r>
       <r>    13.5752     2.7090   357.8181 </r>
       <r>    13.6375     2.5454   357.9816 </r>
       <r>    13.6999     2.4244   358.1363 </r>
       <r>    13.7622     2.3717   358.2851 </r>
       <r>    13.8245     2.2600   358.4311 </r>
       <r>    13.8868     2.1049   358.5671 </r>
       <r>    13.9492     1.9143   358.6920 </r>
       <r>    14.0115     1.8045   358.8076 </r>
       <r>    14.0738     1.6834   358.9164 </r>
       <r>    14.1361     1.5948   359.0183 </r>
       <r>    14.1985     1.5268   359.1156 </r>
       <r>    14.2608     1.5055   359.2100 </r>
       <r>    14.3231     1.4926   359.3035 </r>
       <r>    14.3854     1.4556   359.3955 </r>
       <r>    14.4477     1.4037   359.4846 </r>
       <r>    14.5101     1.3281   359.5697 </r>
       <r>    14.5724     1.2633   359.6506 </r>
       <r>    14.6347     1.0247   359.7247 </r>
       <r>    14.6970     0.7230   359.7776 </r>
       <r>    14.7594     0.5837   359.8179 </r>
       <r>    14.8217     0.4905   359.8513 </r>
       <r>    14.8840     0.4191   359.8795 </r>
       <r>    14.9463     0.3586   359.9037 </r>
       <r>    15.0087     0.3025   359.9243 </r>
       <r>    15.0710     0.2514   359.9415 </r>
       <r>    15.1333     0.2050   359.9558 </r>
       <r>    15.1956     0.1575   359.9670 </r>
       <r>    15.2579     0.1252   359.9758 </r>
       <r>    15.3203     0.0976   359.9827 </r>
       <r>    15.3826     0.0733   359.9880 </r>
       <r>    15.4449     0.0520   359.9919 </r>
       <r>    15.5072     0.0342   359.9945 </r>
       <r>    15.5696     0.0221   359.9963 </r>
       <r>    15.6319     0.0151   359.9974 </r>
       <r>    15.6942     0.0115   359.9982 </r>
       <r>    15.7565     0.0089   359.9989 </r>
       <r>    15.8189     0.0065   359.9993 </r>
       <r>    15.8812     0.0043   359.9997 </r>
       <r>    15.9435     0.0025   359.9999 </r>
       <r>    16.0058     0.0008   360.0000 </r>
       <r>    16.0681     0.0000   360.0000 </r>
       <r>    16.1305     0.0000   360.0000 </r>
       <r>    16.1928     0.0000   360.0000 </r>
       <r>    16.2551     0.0000   360.0000 </r>
       <r>    16.3174     0.0000   360.0000 </r>
       <r>    16.3798     0.0000   360.0000 </r>
       <r>    16.4421     0.0000   360.0000 </r>
       <r>    16.5044     0.0000   360.0000 </r>
       <r>    16.5667     0.0000   360.0000 </r>
       <r>    16.6291     0.0000   360.0000 </r>
       <r>    16.6914     0.0000   360.0000 </r>
       <r>    16.7537     0.0000   360.0000 </r>
       <r>    16.8160     0.0000   360.0000 </r>
       <r>    16.8783     0.0000   360.0000 </r>
       <r>    16.9407     0.0000   360.0000 </r>
       <r>    17.0030     0.0000   360.0000 </r>
       <r>    17.0653     0.0000   360.0000 </r>
      </set>
     </set>
    </array>
   </total>
  </dos>
 </calculation>
 <structure name="finalpos" >
  <crystal>
   <varray name="basis" >
    <v>      -8.24412030       4.76044433      -4.39919880 </v>
    <v>      -0.00065217       9.52042150      -4.39848395 </v>
    <v>       1.37445280      -2.38159340      -4.40144486 </v>
   </varray>
   <i name="volume">    460.58420373 </i>
   <varray name="rec_basis" >
    <v>      -0.11372299      -0.01313197      -0.02840700 </v>
    <v>       0.06823928       0.09191052      -0.02842290 </v>
    <v>       0.04547157      -0.07872342      -0.17040184 </v>
   </varray>
  </crystal>
  <varray name="positions" >
   <v>       0.81383084       0.31375074       0.87724308 </v>
   <v>       0.62527170       0.62548251       0.74783192 </v>
   <v>       0.31360707       0.81306408       0.87691127 </v>
   <v>       0.74959951       0.74889421       0.49851847 </v>
   <v>       0.87443323       0.87435599       0.25097711 </v>
   <v>       0.12570197       0.12585780       0.74982871 </v>
   <v>       0.24852902       0.24940229       0.49723256 </v>
   <v>       0.68756968       0.18755809       0.12537545 </v>
   <v>       0.37402298       0.37467538       0.25099712 </v>
   <v>       0.50068168       0.50163725       0.00282103 </v>
   <v>       0.18827026       0.68708574       0.12578993 </v>
   <v>       0.00108933       0.00052979       0.00145373 </v>
   <v>       0.58307865       0.41832078       0.49959087 </v>
   <v>       0.08517404       0.91635695       0.49936827 </v>
   <v>       0.52031946       0.85405253       0.12872832 </v>
   <v>       0.64494566       0.97913684       0.87229996 </v>
   <v>       0.89741825       0.23068557       0.37513910 </v>
   <v>       0.33203782       0.16657054       0.00063083 </v>
   <v>       0.45761609       0.29120882       0.74891224 </v>
   <v>       0.14401651       0.47811635       0.87426318 </v>
   <v>       0.83409500       0.66448715       0.00076415 </v>
   <v>       0.27078237       0.60450496       0.62233809 </v>
   <v>       0.95849617       0.79031530       0.74892219 </v>
   <v>       0.76969775       0.10356492       0.62410985 </v>
   <v>       0.93723582       0.43740596       0.62312851 </v>
   <v>       0.43651369       0.93711106       0.62306076 </v>
   <v>       0.56148240       0.06230385       0.37411134 </v>
   <v>       0.06202641       0.56146844       0.37359349 </v>
   <v>       0.70946000       0.54164854       0.25134458 </v>
   <v>       0.39632285       0.73009581       0.37679446 </v>
   <v>       0.20937678       0.04181660       0.25094655 </v>
   <v>       0.02062799       0.35520216       0.12697489 </v>
  </varray>
 </structure>
</modeling>
