  32  32   0   0
  0.1427248E+02  0.9427119E-09  0.9431451E-09  0.5446724E-09  0.5000000E-15
  1.000000000000000E-004
  CAR 
 Ir_Ru                                   
     17.80283731     -1.46904452  301      9.42399034      1.00000000
     -1.469  0.0000E+00  0.0000E+00
     -1.405  0.0000E+00  0.0000E+00
     -1.341  0.0000E+00  0.0000E+00
     -1.276  0.0000E+00  0.0000E+00
     -1.212  0.0000E+00  0.0000E+00
     -1.148  0.0000E+00  0.0000E+00
     -1.084  0.0000E+00  0.0000E+00
     -1.019  0.0000E+00  0.0000E+00
     -0.955  0.0000E+00  0.0000E+00
     -0.891  0.0000E+00  0.0000E+00
     -0.827  0.0000E+00  0.0000E+00
     -0.762  0.0000E+00  0.0000E+00
     -0.698  0.0000E+00  0.0000E+00
     -0.634  0.0000E+00  0.0000E+00
     -0.570  0.0000E+00  0.0000E+00
     -0.505  0.0000E+00  0.0000E+00
     -0.441  0.6030E-01  0.5594E-03
     -0.377  0.5411E+00  0.1906E-01
     -0.313  0.7472E+00  0.6229E-01
     -0.248  0.9522E+00  0.1163E+00
     -0.184  0.1200E+01  0.1853E+00
     -0.120  0.1483E+01  0.2712E+00
     -0.056  0.1750E+01  0.3776E+00
      0.008  0.1801E+01  0.4915E+00
      0.073  0.1902E+01  0.6123E+00
      0.137  0.1929E+01  0.7367E+00
      0.201  0.1623E+01  0.8521E+00
      0.265  0.1430E+01  0.9498E+00
      0.330  0.1314E+01  0.1038E+01
      0.394  0.1311E+01  0.1121E+01
      0.458  0.1442E+01  0.1208E+01
      0.522  0.1742E+01  0.1310E+01
      0.587  0.2039E+01  0.1431E+01
      0.651  0.2608E+01  0.1582E+01
      0.715  0.2513E+01  0.1749E+01
      0.779  0.2480E+01  0.1909E+01
      0.844  0.2993E+01  0.2078E+01
      0.908  0.2948E+01  0.2267E+01
      0.972  0.3092E+01  0.2461E+01
      1.036  0.3257E+01  0.2664E+01
      1.101  0.3562E+01  0.2890E+01
      1.165  0.3684E+01  0.3127E+01
      1.229  0.3144E+01  0.3348E+01
      1.293  0.3387E+01  0.3554E+01
      1.357  0.3996E+01  0.3788E+01
      1.422  0.6200E+01  0.4118E+01
      1.486  0.5555E+01  0.4492E+01
      1.550  0.4352E+01  0.4809E+01
      1.614  0.3712E+01  0.5037E+01
      1.679  0.4348E+01  0.5308E+01
      1.743  0.4556E+01  0.5590E+01
      1.807  0.5358E+01  0.5911E+01
      1.871  0.5697E+01  0.6272E+01
      1.936  0.6011E+01  0.6647E+01
      2.000  0.6589E+01  0.7048E+01
      2.064  0.8540E+01  0.7530E+01
      2.128  0.1166E+02  0.8177E+01
      2.193  0.1215E+02  0.8942E+01
      2.257  0.1294E+02  0.9738E+01
      2.321  0.1608E+02  0.1071E+02
      2.385  0.1726E+02  0.1179E+02
      2.450  0.2057E+02  0.1301E+02
      2.514  0.1762E+02  0.1424E+02
      2.578  0.2052E+02  0.1544E+02
      2.642  0.2276E+02  0.1687E+02
      2.707  0.2585E+02  0.1837E+02
      2.771  0.2596E+02  0.2006E+02
      2.835  0.3038E+02  0.2184E+02
      2.899  0.2916E+02  0.2373E+02
      2.963  0.3072E+02  0.2566E+02
      3.028  0.3073E+02  0.2757E+02
      3.092  0.3396E+02  0.2963E+02
      3.156  0.3601E+02  0.3187E+02
      3.220  0.3807E+02  0.3425E+02
      3.285  0.4009E+02  0.3675E+02
      3.349  0.4257E+02  0.3943E+02
      3.413  0.4439E+02  0.4228E+02
      3.477  0.4515E+02  0.4517E+02
      3.542  0.4219E+02  0.4803E+02
      3.606  0.4181E+02  0.5079E+02
      3.670  0.4405E+02  0.5347E+02
      3.734  0.3945E+02  0.5599E+02
      3.799  0.4065E+02  0.5854E+02
      3.863  0.4114E+02  0.6107E+02
      3.927  0.4062E+02  0.6368E+02
      3.991  0.4008E+02  0.6630E+02
      4.056  0.3843E+02  0.6887E+02
      4.120  0.3722E+02  0.7133E+02
      4.184  0.3626E+02  0.7367E+02
      4.248  0.3334E+02  0.7594E+02
      4.313  0.3281E+02  0.7804E+02
      4.377  0.2905E+02  0.8007E+02
      4.441  0.2503E+02  0.8179E+02
      4.505  0.3148E+02  0.8358E+02
      4.569  0.3678E+02  0.8576E+02
      4.634  0.2990E+02  0.8788E+02
      4.698  0.3983E+02  0.9011E+02
      4.762  0.3949E+02  0.9272E+02
      4.826  0.3972E+02  0.9528E+02
      4.891  0.3706E+02  0.9760E+02
      4.955  0.3996E+02  0.1001E+03
      5.019  0.3589E+02  0.1025E+03
      5.083  0.3362E+02  0.1048E+03
      5.148  0.3586E+02  0.1070E+03
      5.212  0.3869E+02  0.1094E+03
      5.276  0.3634E+02  0.1117E+03
      5.340  0.3854E+02  0.1141E+03
      5.405  0.3717E+02  0.1165E+03
      5.469  0.3795E+02  0.1189E+03
      5.533  0.4035E+02  0.1214E+03
      5.597  0.3960E+02  0.1240E+03
      5.662  0.4043E+02  0.1265E+03
      5.726  0.4099E+02  0.1291E+03
      5.790  0.4158E+02  0.1318E+03
      5.854  0.4436E+02  0.1346E+03
      5.919  0.4133E+02  0.1373E+03
      5.983  0.4297E+02  0.1399E+03
      6.047  0.4686E+02  0.1427E+03
      6.111  0.4487E+02  0.1456E+03
      6.175  0.4945E+02  0.1486E+03
      6.240  0.4979E+02  0.1518E+03
      6.304  0.4778E+02  0.1550E+03
      6.368  0.5064E+02  0.1581E+03
      6.432  0.5530E+02  0.1615E+03
      6.497  0.6170E+02  0.1653E+03
      6.561  0.5862E+02  0.1691E+03
      6.625  0.7119E+02  0.1730E+03
      6.689  0.6322E+02  0.1774E+03
      6.754  0.5565E+02  0.1812E+03
      6.818  0.4511E+02  0.1844E+03
      6.882  0.3893E+02  0.1871E+03
      6.946  0.3662E+02  0.1895E+03
      7.011  0.4084E+02  0.1920E+03
      7.075  0.4258E+02  0.1946E+03
      7.139  0.3582E+02  0.1971E+03
      7.203  0.3065E+02  0.1994E+03
      7.268  0.3677E+02  0.2015E+03
      7.332  0.3509E+02  0.2038E+03
      7.396  0.3534E+02  0.2061E+03
      7.460  0.3421E+02  0.2083E+03
      7.525  0.3169E+02  0.2104E+03
      7.589  0.3176E+02  0.2124E+03
      7.653  0.3246E+02  0.2144E+03
      7.717  0.3465E+02  0.2164E+03
      7.781  0.3404E+02  0.2185E+03
      7.846  0.3769E+02  0.2208E+03
      7.910  0.3790E+02  0.2233E+03
      7.974  0.3889E+02  0.2257E+03
      8.038  0.3650E+02  0.2282E+03
      8.103  0.3815E+02  0.2305E+03
      8.167  0.3930E+02  0.2330E+03
      8.231  0.4233E+02  0.2357E+03
      8.295  0.3943E+02  0.2383E+03
      8.360  0.3725E+02  0.2407E+03
      8.424  0.3754E+02  0.2431E+03
      8.488  0.3702E+02  0.2455E+03
      8.552  0.3530E+02  0.2478E+03
      8.617  0.3526E+02  0.2501E+03
      8.681  0.3683E+02  0.2524E+03
      8.745  0.3403E+02  0.2546E+03
      8.809  0.3346E+02  0.2568E+03
      8.874  0.3024E+02  0.2589E+03
      8.938  0.3155E+02  0.2608E+03
      9.002  0.3255E+02  0.2629E+03
      9.066  0.3109E+02  0.2649E+03
      9.130  0.3048E+02  0.2668E+03
      9.195  0.3137E+02  0.2688E+03
      9.259  0.3171E+02  0.2708E+03
      9.323  0.3261E+02  0.2729E+03
      9.387  0.2945E+02  0.2749E+03
      9.452  0.3230E+02  0.2769E+03
      9.516  0.3646E+02  0.2791E+03
      9.580  0.3427E+02  0.2814E+03
      9.644  0.2989E+02  0.2834E+03
      9.709  0.2628E+02  0.2852E+03
      9.773  0.2646E+02  0.2869E+03
      9.837  0.2869E+02  0.2886E+03
      9.901  0.3167E+02  0.2906E+03
      9.966  0.3416E+02  0.2927E+03
     10.030  0.3700E+02  0.2949E+03
     10.094  0.3962E+02  0.2973E+03
     10.158  0.3731E+02  0.2997E+03
     10.223  0.4256E+02  0.3022E+03
     10.287  0.4716E+02  0.3051E+03
     10.351  0.5378E+02  0.3084E+03
     10.415  0.5778E+02  0.3120E+03
     10.480  0.5823E+02  0.3158E+03
     10.544  0.5499E+02  0.3194E+03
     10.608  0.5007E+02  0.3228E+03
     10.672  0.4639E+02  0.3259E+03
     10.736  0.4095E+02  0.3287E+03
     10.801  0.3564E+02  0.3311E+03
     10.865  0.2645E+02  0.3331E+03
     10.929  0.2790E+02  0.3349E+03
     10.993  0.2372E+02  0.3365E+03
     11.058  0.1985E+02  0.3380E+03
     11.122  0.1372E+02  0.3391E+03
     11.186  0.1071E+02  0.3398E+03
     11.250  0.9929E+01  0.3405E+03
     11.315  0.8420E+01  0.3411E+03
     11.379  0.7957E+01  0.3416E+03
     11.443  0.7551E+01  0.3421E+03
     11.507  0.8182E+01  0.3426E+03
     11.572  0.8914E+01  0.3431E+03
     11.636  0.1036E+02  0.3437E+03
     11.700  0.1022E+02  0.3444E+03
     11.764  0.8819E+01  0.3450E+03
     11.829  0.8422E+01  0.3456E+03
     11.893  0.8038E+01  0.3461E+03
     11.957  0.7866E+01  0.3466E+03
     12.021  0.8095E+01  0.3471E+03
     12.086  0.8271E+01  0.3476E+03
     12.150  0.8422E+01  0.3482E+03
     12.214  0.8418E+01  0.3487E+03
     12.278  0.8691E+01  0.3493E+03
     12.342  0.8321E+01  0.3498E+03
     12.407  0.7580E+01  0.3503E+03
     12.471  0.7254E+01  0.3508E+03
     12.535  0.6849E+01  0.3512E+03
     12.599  0.7548E+01  0.3517E+03
     12.664  0.7253E+01  0.3522E+03
     12.728  0.6630E+01  0.3526E+03
     12.792  0.5811E+01  0.3530E+03
     12.856  0.6062E+01  0.3534E+03
     12.921  0.7195E+01  0.3538E+03
     12.985  0.7480E+01  0.3543E+03
     13.049  0.7510E+01  0.3548E+03
     13.113  0.6557E+01  0.3552E+03
     13.178  0.5655E+01  0.3556E+03
     13.242  0.5079E+01  0.3560E+03
     13.306  0.4588E+01  0.3563E+03
     13.370  0.4336E+01  0.3566E+03
     13.435  0.4199E+01  0.3568E+03
     13.499  0.3491E+01  0.3571E+03
     13.563  0.3364E+01  0.3573E+03
     13.627  0.3363E+01  0.3575E+03
     13.692  0.3410E+01  0.3577E+03
     13.756  0.3131E+01  0.3580E+03
     13.820  0.2904E+01  0.3581E+03
     13.884  0.2599E+01  0.3583E+03
     13.948  0.2456E+01  0.3585E+03
     14.013  0.2147E+01  0.3586E+03
     14.077  0.2000E+01  0.3588E+03
     14.141  0.1858E+01  0.3589E+03
     14.205  0.1735E+01  0.3590E+03
     14.270  0.1580E+01  0.3591E+03
     14.334  0.1428E+01  0.3592E+03
     14.398  0.1384E+01  0.3593E+03
     14.462  0.1292E+01  0.3594E+03
     14.527  0.1092E+01  0.3595E+03
     14.591  0.9948E+00  0.3595E+03
     14.655  0.9266E+00  0.3596E+03
     14.719  0.8669E+00  0.3596E+03
     14.784  0.8090E+00  0.3597E+03
     14.848  0.7377E+00  0.3598E+03
     14.912  0.6346E+00  0.3598E+03
     14.976  0.5053E+00  0.3598E+03
     15.041  0.4201E+00  0.3599E+03
     15.105  0.3400E+00  0.3599E+03
     15.169  0.2841E+00  0.3599E+03
     15.233  0.2356E+00  0.3599E+03
     15.297  0.1996E+00  0.3599E+03
     15.362  0.1589E+00  0.3599E+03
     15.426  0.1273E+00  0.3600E+03
     15.490  0.1096E+00  0.3600E+03
     15.554  0.9434E-01  0.3600E+03
     15.619  0.8113E-01  0.3600E+03
     15.683  0.6927E-01  0.3600E+03
     15.747  0.5817E-01  0.3600E+03
     15.811  0.4782E-01  0.3600E+03
     15.876  0.3823E-01  0.3600E+03
     15.940  0.2939E-01  0.3600E+03
     16.004  0.2167E-01  0.3600E+03
     16.068  0.1537E-01  0.3600E+03
     16.133  0.1049E-01  0.3600E+03
     16.197  0.6879E-02  0.3600E+03
     16.261  0.4417E-02  0.3600E+03
     16.325  0.3229E-02  0.3600E+03
     16.390  0.2381E-02  0.3600E+03
     16.454  0.1699E-02  0.3600E+03
     16.518  0.1131E-02  0.3600E+03
     16.582  0.6782E-03  0.3600E+03
     16.647  0.3407E-03  0.3600E+03
     16.711  0.1182E-03  0.3600E+03
     16.775  0.1080E-04  0.3600E+03
     16.839  0.0000E+00  0.3600E+03
     16.903  0.0000E+00  0.3600E+03
     16.968  0.0000E+00  0.3600E+03
     17.032  0.0000E+00  0.3600E+03
     17.096  0.0000E+00  0.3600E+03
     17.160  0.0000E+00  0.3600E+03
     17.225  0.0000E+00  0.3600E+03
     17.289  0.0000E+00  0.3600E+03
     17.353  0.0000E+00  0.3600E+03
     17.417  0.0000E+00  0.3600E+03
     17.482  0.0000E+00  0.3600E+03
     17.546  0.0000E+00  0.3600E+03
     17.610  0.0000E+00  0.3600E+03
     17.674  0.0000E+00  0.3600E+03
     17.739  0.0000E+00  0.3600E+03
     17.803  0.0000E+00  0.3600E+03
