<?xml version="1.0" encoding="ISO-8859-1"?>
<modeling>
 <generator>
  <i name="program" type="string">vasp </i>
  <i name="version" type="string">5.4.1  </i>
  <i name="subversion" type="string">24Jun15 (build Feb 03 2017 16:24:58) complex                          parallel </i>
  <i name="platform" type="string">IFC91_ompi </i>
  <i name="date" type="string">2018 06 22 </i>
  <i name="time" type="string">17:39:39 </i>
 </generator>
 <incar>
  <i type="string" name="SYSTEM"> Ir_Ru</i>
  <i type="int" name="ISTART">     0</i>
  <i type="string" name="PREC">accurate</i>
  <i type="string" name="ALGO"> Very_Fast</i>
  <i type="int" name="ICHARG">     2</i>
  <i type="int" name="NELMIN">     5</i>
  <i type="int" name="IBRION">    -1</i>
  <i name="EDIFFG">      0.00001000</i>
  <i type="int" name="ISIF">     2</i>
  <i type="int" name="ISMEAR">    -5</i>
  <i name="SIGMA">      0.10000000</i>
  <v type="int" name="KPOINT_BSE">    -1     0     0     0</v>
 </incar>
 <kpoints>
  <generation param="Gamma">
   <v type="int" name="divisions">       6        6        9 </v>
   <v name="usershift">      0.00000000       0.00000000       0.00000000 </v>
   <v name="genvec1">      0.16666667      -0.00000000       0.00000000 </v>
   <v name="genvec2">      0.00000000       0.16666667       0.00000000 </v>
   <v name="genvec3">     -0.00000000      -0.00000000       0.11111111 </v>
   <v name="shift">      0.00000000       0.00000000       0.00000000 </v>
  </generation>
  <varray name="kpointlist" >
   <v>       0.00000000       0.00000000       0.00000000 </v>
   <v>       0.16666667      -0.00000000      -0.00000000 </v>
   <v>       0.33333333       0.00000000       0.00000000 </v>
   <v>       0.50000000       0.00000000      -0.00000000 </v>
   <v>       0.00000000       0.16666667      -0.00000000 </v>
   <v>       0.16666667       0.16666667      -0.00000000 </v>
   <v>       0.33333333       0.16666667      -0.00000000 </v>
   <v>       0.50000000       0.16666667      -0.00000000 </v>
   <v>      -0.33333333       0.16666667       0.00000000 </v>
   <v>      -0.16666667       0.16666667      -0.00000000 </v>
   <v>       0.00000000       0.33333333      -0.00000000 </v>
   <v>       0.16666667       0.33333333      -0.00000000 </v>
   <v>       0.33333333       0.33333333      -0.00000000 </v>
   <v>       0.50000000       0.33333333      -0.00000000 </v>
   <v>      -0.33333333       0.33333333      -0.00000000 </v>
   <v>      -0.16666667       0.33333333      -0.00000000 </v>
   <v>       0.00000000       0.50000000      -0.00000000 </v>
   <v>       0.16666667       0.50000000      -0.00000000 </v>
   <v>       0.33333333       0.50000000      -0.00000000 </v>
   <v>       0.50000000       0.50000000      -0.00000000 </v>
   <v>       0.00000000       0.00000000       0.11111111 </v>
   <v>       0.16666667      -0.00000000       0.11111111 </v>
   <v>       0.33333333      -0.00000000       0.11111111 </v>
   <v>       0.50000000       0.00000000       0.11111111 </v>
   <v>      -0.33333333      -0.00000000       0.11111111 </v>
   <v>      -0.16666667       0.00000000       0.11111111 </v>
   <v>       0.00000000       0.16666667       0.11111111 </v>
   <v>       0.16666667       0.16666667       0.11111111 </v>
   <v>       0.33333333       0.16666667       0.11111111 </v>
   <v>       0.50000000       0.16666667       0.11111111 </v>
   <v>      -0.33333333       0.16666667       0.11111111 </v>
   <v>      -0.16666667       0.16666667       0.11111111 </v>
   <v>       0.00000000       0.33333333       0.11111111 </v>
   <v>       0.16666667       0.33333333       0.11111111 </v>
   <v>       0.33333333       0.33333333       0.11111111 </v>
   <v>       0.50000000       0.33333333       0.11111111 </v>
   <v>      -0.33333333       0.33333333       0.11111111 </v>
   <v>      -0.16666667       0.33333333       0.11111111 </v>
   <v>       0.00000000       0.50000000       0.11111111 </v>
   <v>       0.16666667       0.50000000       0.11111111 </v>
   <v>       0.33333333       0.50000000       0.11111111 </v>
   <v>       0.50000000       0.50000000       0.11111111 </v>
   <v>      -0.33333333       0.50000000       0.11111111 </v>
   <v>      -0.16666667       0.50000000       0.11111111 </v>
   <v>       0.00000000      -0.33333333       0.11111111 </v>
   <v>       0.16666667      -0.33333333       0.11111111 </v>
   <v>       0.33333333      -0.33333333       0.11111111 </v>
   <v>       0.50000000      -0.33333333       0.11111111 </v>
   <v>      -0.33333333      -0.33333333       0.11111111 </v>
   <v>      -0.16666667      -0.33333333       0.11111111 </v>
   <v>      -0.00000000      -0.16666667       0.11111111 </v>
   <v>       0.16666667      -0.16666667       0.11111111 </v>
   <v>       0.33333333      -0.16666667       0.11111111 </v>
   <v>       0.50000000      -0.16666667       0.11111111 </v>
   <v>      -0.33333333      -0.16666667       0.11111111 </v>
   <v>      -0.16666667      -0.16666667       0.11111111 </v>
   <v>       0.00000000      -0.00000000       0.22222222 </v>
   <v>       0.16666667      -0.00000000       0.22222222 </v>
   <v>       0.33333333       0.00000000       0.22222222 </v>
   <v>       0.50000000      -0.00000000       0.22222222 </v>
   <v>      -0.33333333       0.00000000       0.22222222 </v>
   <v>      -0.16666667      -0.00000000       0.22222222 </v>
   <v>       0.00000000       0.16666667       0.22222222 </v>
   <v>       0.16666667       0.16666667       0.22222222 </v>
   <v>       0.33333333       0.16666667       0.22222222 </v>
   <v>       0.50000000       0.16666667       0.22222222 </v>
   <v>      -0.33333333       0.16666667       0.22222222 </v>
   <v>      -0.16666667       0.16666667       0.22222222 </v>
   <v>       0.00000000       0.33333333       0.22222222 </v>
   <v>       0.16666667       0.33333333       0.22222222 </v>
   <v>       0.33333333       0.33333333       0.22222222 </v>
   <v>       0.50000000       0.33333333       0.22222222 </v>
   <v>      -0.33333333       0.33333333       0.22222222 </v>
   <v>      -0.16666667       0.33333333       0.22222222 </v>
   <v>       0.00000000       0.50000000       0.22222222 </v>
   <v>       0.16666667       0.50000000       0.22222222 </v>
   <v>       0.33333333       0.50000000       0.22222222 </v>
   <v>       0.50000000       0.50000000       0.22222222 </v>
   <v>      -0.33333333       0.50000000       0.22222222 </v>
   <v>      -0.16666667       0.50000000       0.22222222 </v>
   <v>      -0.00000000      -0.33333333       0.22222222 </v>
   <v>       0.16666667      -0.33333333       0.22222222 </v>
   <v>       0.33333333      -0.33333333       0.22222222 </v>
   <v>       0.50000000      -0.33333333       0.22222222 </v>
   <v>      -0.33333333      -0.33333333       0.22222222 </v>
   <v>      -0.16666667      -0.33333333       0.22222222 </v>
   <v>       0.00000000      -0.16666667       0.22222222 </v>
   <v>       0.16666667      -0.16666667       0.22222222 </v>
   <v>       0.33333333      -0.16666667       0.22222222 </v>
   <v>       0.50000000      -0.16666667       0.22222222 </v>
   <v>      -0.33333333      -0.16666667       0.22222222 </v>
   <v>      -0.16666667      -0.16666667       0.22222222 </v>
   <v>       0.00000000       0.00000000       0.33333333 </v>
   <v>       0.16666667       0.00000000       0.33333333 </v>
   <v>       0.33333333       0.00000000       0.33333333 </v>
   <v>       0.50000000      -0.00000000       0.33333333 </v>
   <v>      -0.33333333      -0.00000000       0.33333333 </v>
   <v>      -0.16666667       0.00000000       0.33333333 </v>
   <v>       0.00000000       0.16666667       0.33333333 </v>
   <v>       0.16666667       0.16666667       0.33333333 </v>
   <v>       0.33333333       0.16666667       0.33333333 </v>
   <v>       0.50000000       0.16666667       0.33333333 </v>
   <v>      -0.33333333       0.16666667       0.33333333 </v>
   <v>      -0.16666667       0.16666667       0.33333333 </v>
   <v>       0.00000000       0.33333333       0.33333333 </v>
   <v>       0.16666667       0.33333333       0.33333333 </v>
   <v>       0.33333333       0.33333333       0.33333333 </v>
   <v>       0.50000000       0.33333333       0.33333333 </v>
   <v>      -0.33333333       0.33333333       0.33333333 </v>
   <v>      -0.16666667       0.33333333       0.33333333 </v>
   <v>       0.00000000       0.50000000       0.33333333 </v>
   <v>       0.16666667       0.50000000       0.33333333 </v>
   <v>       0.33333333       0.50000000       0.33333333 </v>
   <v>       0.50000000       0.50000000       0.33333333 </v>
   <v>      -0.33333333       0.50000000       0.33333333 </v>
   <v>      -0.16666667       0.50000000       0.33333333 </v>
   <v>       0.00000000      -0.33333333       0.33333333 </v>
   <v>       0.16666667      -0.33333333       0.33333333 </v>
   <v>       0.33333333      -0.33333333       0.33333333 </v>
   <v>       0.50000000      -0.33333333       0.33333333 </v>
   <v>      -0.33333333      -0.33333333       0.33333333 </v>
   <v>      -0.16666667      -0.33333333       0.33333333 </v>
   <v>       0.00000000      -0.16666667       0.33333333 </v>
   <v>       0.16666667      -0.16666667       0.33333333 </v>
   <v>       0.33333333      -0.16666667       0.33333333 </v>
   <v>       0.50000000      -0.16666667       0.33333333 </v>
   <v>      -0.33333333      -0.16666667       0.33333333 </v>
   <v>      -0.16666667      -0.16666667       0.33333333 </v>
   <v>       0.00000000      -0.00000000       0.44444444 </v>
   <v>       0.16666667      -0.00000000       0.44444444 </v>
   <v>       0.33333333       0.00000000       0.44444444 </v>
   <v>       0.50000000      -0.00000000       0.44444444 </v>
   <v>      -0.33333333       0.00000000       0.44444444 </v>
   <v>      -0.16666667      -0.00000000       0.44444444 </v>
   <v>       0.00000000       0.16666667       0.44444444 </v>
   <v>       0.16666667       0.16666667       0.44444444 </v>
   <v>       0.33333333       0.16666667       0.44444444 </v>
   <v>       0.50000000       0.16666667       0.44444444 </v>
   <v>      -0.33333333       0.16666667       0.44444444 </v>
   <v>      -0.16666667       0.16666667       0.44444444 </v>
   <v>       0.00000000       0.33333333       0.44444444 </v>
   <v>       0.16666667       0.33333333       0.44444444 </v>
   <v>       0.33333333       0.33333333       0.44444444 </v>
   <v>       0.50000000       0.33333333       0.44444444 </v>
   <v>      -0.33333333       0.33333333       0.44444444 </v>
   <v>      -0.16666667       0.33333333       0.44444444 </v>
   <v>       0.00000000       0.50000000       0.44444444 </v>
   <v>       0.16666667       0.50000000       0.44444444 </v>
   <v>       0.33333333       0.50000000       0.44444444 </v>
   <v>       0.50000000       0.50000000       0.44444444 </v>
   <v>      -0.33333333       0.50000000       0.44444444 </v>
   <v>      -0.16666667       0.50000000       0.44444444 </v>
   <v>       0.00000000      -0.33333333       0.44444444 </v>
   <v>       0.16666667      -0.33333333       0.44444444 </v>
   <v>       0.33333333      -0.33333333       0.44444444 </v>
   <v>       0.50000000      -0.33333333       0.44444444 </v>
   <v>      -0.33333333      -0.33333333       0.44444444 </v>
   <v>      -0.16666667      -0.33333333       0.44444444 </v>
   <v>       0.00000000      -0.16666667       0.44444444 </v>
   <v>       0.16666667      -0.16666667       0.44444444 </v>
   <v>       0.33333333      -0.16666667       0.44444444 </v>
   <v>       0.50000000      -0.16666667       0.44444444 </v>
   <v>      -0.33333333      -0.16666667       0.44444444 </v>
   <v>      -0.16666667      -0.16666667       0.44444444 </v>
  </varray>
  <varray name="weights" >
   <v>       0.00308642 </v>
   <v>       0.00617284 </v>
   <v>       0.00617284 </v>
   <v>       0.00308642 </v>
   <v>       0.00617284 </v>
   <v>       0.00617284 </v>
   <v>       0.00617284 </v>
   <v>       0.00617284 </v>
   <v>       0.00617284 </v>
   <v>       0.00617284 </v>
   <v>       0.00617284 </v>
   <v>       0.00617284 </v>
   <v>       0.00617284 </v>
   <v>       0.00617284 </v>
   <v>       0.00617284 </v>
   <v>       0.00617284 </v>
   <v>       0.00308642 </v>
   <v>       0.00617284 </v>
   <v>       0.00617284 </v>
   <v>       0.00308642 </v>
   <v>       0.00617284 </v>
   <v>       0.00617284 </v>
   <v>       0.00617284 </v>
   <v>       0.00617284 </v>
   <v>       0.00617284 </v>
   <v>       0.00617284 </v>
   <v>       0.00617284 </v>
   <v>       0.00617284 </v>
   <v>       0.00617284 </v>
   <v>       0.00617284 </v>
   <v>       0.00617284 </v>
   <v>       0.00617284 </v>
   <v>       0.00617284 </v>
   <v>       0.00617284 </v>
   <v>       0.00617284 </v>
   <v>       0.00617284 </v>
   <v>       0.00617284 </v>
   <v>       0.00617284 </v>
   <v>       0.00617284 </v>
   <v>       0.00617284 </v>
   <v>       0.00617284 </v>
   <v>       0.00617284 </v>
   <v>       0.00617284 </v>
   <v>       0.00617284 </v>
   <v>       0.00617284 </v>
   <v>       0.00617284 </v>
   <v>       0.00617284 </v>
   <v>       0.00617284 </v>
   <v>       0.00617284 </v>
   <v>       0.00617284 </v>
   <v>       0.00617284 </v>
   <v>       0.00617284 </v>
   <v>       0.00617284 </v>
   <v>       0.00617284 </v>
   <v>       0.00617284 </v>
   <v>       0.00617284 </v>
   <v>       0.00617284 </v>
   <v>       0.00617284 </v>
   <v>       0.00617284 </v>
   <v>       0.00617284 </v>
   <v>       0.00617284 </v>
   <v>       0.00617284 </v>
   <v>       0.00617284 </v>
   <v>       0.00617284 </v>
   <v>       0.00617284 </v>
   <v>       0.00617284 </v>
   <v>       0.00617284 </v>
   <v>       0.00617284 </v>
   <v>       0.00617284 </v>
   <v>       0.00617284 </v>
   <v>       0.00617284 </v>
   <v>       0.00617284 </v>
   <v>       0.00617284 </v>
   <v>       0.00617284 </v>
   <v>       0.00617284 </v>
   <v>       0.00617284 </v>
   <v>       0.00617284 </v>
   <v>       0.00617284 </v>
   <v>       0.00617284 </v>
   <v>       0.00617284 </v>
   <v>       0.00617284 </v>
   <v>       0.00617284 </v>
   <v>       0.00617284 </v>
   <v>       0.00617284 </v>
   <v>       0.00617284 </v>
   <v>       0.00617284 </v>
   <v>       0.00617284 </v>
   <v>       0.00617284 </v>
   <v>       0.00617284 </v>
   <v>       0.00617284 </v>
   <v>       0.00617284 </v>
   <v>       0.00617284 </v>
   <v>       0.00617284 </v>
   <v>       0.00617284 </v>
   <v>       0.00617284 </v>
   <v>       0.00617284 </v>
   <v>       0.00617284 </v>
   <v>       0.00617284 </v>
   <v>       0.00617284 </v>
   <v>       0.00617284 </v>
   <v>       0.00617284 </v>
   <v>       0.00617284 </v>
   <v>       0.00617284 </v>
   <v>       0.00617284 </v>
   <v>       0.00617284 </v>
   <v>       0.00617284 </v>
   <v>       0.00617284 </v>
   <v>       0.00617284 </v>
   <v>       0.00617284 </v>
   <v>       0.00617284 </v>
   <v>       0.00617284 </v>
   <v>       0.00617284 </v>
   <v>       0.00617284 </v>
   <v>       0.00617284 </v>
   <v>       0.00617284 </v>
   <v>       0.00617284 </v>
   <v>       0.00617284 </v>
   <v>       0.00617284 </v>
   <v>       0.00617284 </v>
   <v>       0.00617284 </v>
   <v>       0.00617284 </v>
   <v>       0.00617284 </v>
   <v>       0.00617284 </v>
   <v>       0.00617284 </v>
   <v>       0.00617284 </v>
   <v>       0.00617284 </v>
   <v>       0.00617284 </v>
   <v>       0.00617284 </v>
   <v>       0.00617284 </v>
   <v>       0.00617284 </v>
   <v>       0.00617284 </v>
   <v>       0.00617284 </v>
   <v>       0.00617284 </v>
   <v>       0.00617284 </v>
   <v>       0.00617284 </v>
   <v>       0.00617284 </v>
   <v>       0.00617284 </v>
   <v>       0.00617284 </v>
   <v>       0.00617284 </v>
   <v>       0.00617284 </v>
   <v>       0.00617284 </v>
   <v>       0.00617284 </v>
   <v>       0.00617284 </v>
   <v>       0.00617284 </v>
   <v>       0.00617284 </v>
   <v>       0.00617284 </v>
   <v>       0.00617284 </v>
   <v>       0.00617284 </v>
   <v>       0.00617284 </v>
   <v>       0.00617284 </v>
   <v>       0.00617284 </v>
   <v>       0.00617284 </v>
   <v>       0.00617284 </v>
   <v>       0.00617284 </v>
   <v>       0.00617284 </v>
   <v>       0.00617284 </v>
   <v>       0.00617284 </v>
   <v>       0.00617284 </v>
   <v>       0.00617284 </v>
   <v>       0.00617284 </v>
   <v>       0.00617284 </v>
   <v>       0.00617284 </v>
   <v>       0.00617284 </v>
   <v>       0.00617284 </v>
  </varray>
  <varray name="tetrahedronlist"  type="int" >
   <v type="int" >        2        1        2        5       22 </v>
   <v type="int" >        2        2        5        6       22 </v>
   <v type="int" >        2        5        6       22       28 </v>
   <v type="int" >        2        1        5       21       22 </v>
   <v type="int" >        2        5       21       22       27 </v>
   <v type="int" >        2        5       22       27       28 </v>
   <v type="int" >        2        2        3        6       23 </v>
   <v type="int" >        2        3        6        7       23 </v>
   <v type="int" >        2        6        7       23       29 </v>
   <v type="int" >        2        2        6       22       23 </v>
   <v type="int" >        2        6       22       23       28 </v>
   <v type="int" >        2        6       23       28       29 </v>
   <v type="int" >        2        3        4        7       24 </v>
   <v type="int" >        2        4        7        8       24 </v>
   <v type="int" >        2        7        8       24       30 </v>
   <v type="int" >        2        3        7       23       24 </v>
   <v type="int" >        2        7       23       24       29 </v>
   <v type="int" >        2        7       24       29       30 </v>
   <v type="int" >        2        3        4        8       25 </v>
   <v type="int" >        2        3        8        9       25 </v>
   <v type="int" >        2        8        9       25       31 </v>
   <v type="int" >        2        4        8       24       25 </v>
   <v type="int" >        2        8       24       25       30 </v>
   <v type="int" >        2        8       25       30       31 </v>
   <v type="int" >        2        2        3        9       26 </v>
   <v type="int" >        2        2        9       10       26 </v>
   <v type="int" >        2        9       10       26       32 </v>
   <v type="int" >        2        3        9       25       26 </v>
   <v type="int" >        2        9       25       26       31 </v>
   <v type="int" >        2        9       26       31       32 </v>
   <v type="int" >        2        1        2       10       21 </v>
   <v type="int" >        2        1        5       10       21 </v>
   <v type="int" >        2        5       10       21       27 </v>
   <v type="int" >        2        2       10       21       26 </v>
   <v type="int" >        2       10       21       26       32 </v>
   <v type="int" >        2       10       21       27       32 </v>
   <v type="int" >        2        5        6       11       28 </v>
   <v type="int" >        2        6       11       12       28 </v>
   <v type="int" >        2       11       12       28       34 </v>
   <v type="int" >        2        5       11       27       28 </v>
   <v type="int" >        2       11       27       28       33 </v>
   <v type="int" >        2       11       28       33       34 </v>
   <v type="int" >        2        6        7       12       29 </v>
   <v type="int" >        2        7       12       13       29 </v>
   <v type="int" >        2       12       13       29       35 </v>
   <v type="int" >        2        6       12       28       29 </v>
   <v type="int" >        2       12       28       29       34 </v>
   <v type="int" >        2       12       29       34       35 </v>
   <v type="int" >        2        7        8       13       30 </v>
   <v type="int" >        2        8       13       14       30 </v>
   <v type="int" >        2       13       14       30       36 </v>
   <v type="int" >        2        7       13       29       30 </v>
   <v type="int" >        2       13       29       30       35 </v>
   <v type="int" >        2       13       30       35       36 </v>
   <v type="int" >        2        8        9       14       31 </v>
   <v type="int" >        2        9       14       15       31 </v>
   <v type="int" >        2       14       15       31       37 </v>
   <v type="int" >        2        8       14       30       31 </v>
   <v type="int" >        2       14       30       31       36 </v>
   <v type="int" >        2       14       31       36       37 </v>
   <v type="int" >        2        9       10       15       32 </v>
   <v type="int" >        2       10       15       16       32 </v>
   <v type="int" >        2       15       16       32       38 </v>
   <v type="int" >        2        9       15       31       32 </v>
   <v type="int" >        2       15       31       32       37 </v>
   <v type="int" >        2       15       32       37       38 </v>
   <v type="int" >        2        5       10       16       27 </v>
   <v type="int" >        2        5       11       16       27 </v>
   <v type="int" >        2       11       16       27       33 </v>
   <v type="int" >        2       10       16       27       32 </v>
   <v type="int" >        2       16       27       32       38 </v>
   <v type="int" >        2       16       27       33       38 </v>
   <v type="int" >        2       11       12       17       34 </v>
   <v type="int" >        2       12       17       18       34 </v>
   <v type="int" >        2       17       18       34       40 </v>
   <v type="int" >        2       11       17       33       34 </v>
   <v type="int" >        2       17       33       34       39 </v>
   <v type="int" >        2       17       34       39       40 </v>
   <v type="int" >        2       12       13       18       35 </v>
   <v type="int" >        2       13       18       19       35 </v>
   <v type="int" >        2       18       19       35       41 </v>
   <v type="int" >        2       12       18       34       35 </v>
   <v type="int" >        2       18       34       35       40 </v>
   <v type="int" >        2       18       35       40       41 </v>
   <v type="int" >        2       13       14       19       36 </v>
   <v type="int" >        2       14       19       20       36 </v>
   <v type="int" >        2       19       20       36       42 </v>
   <v type="int" >        2       13       19       35       36 </v>
   <v type="int" >        2       19       35       36       41 </v>
   <v type="int" >        2       19       36       41       42 </v>
   <v type="int" >        2       14       15       20       37 </v>
   <v type="int" >        2       15       19       20       37 </v>
   <v type="int" >        2       19       20       37       43 </v>
   <v type="int" >        2       14       20       36       37 </v>
   <v type="int" >        2       20       36       37       42 </v>
   <v type="int" >        2       20       37       42       43 </v>
   <v type="int" >        2       15       16       19       38 </v>
   <v type="int" >        2       16       18       19       38 </v>
   <v type="int" >        2       18       19       38       44 </v>
   <v type="int" >        2       15       19       37       38 </v>
   <v type="int" >        2       19       37       38       43 </v>
   <v type="int" >        2       19       38       43       44 </v>
   <v type="int" >        2       11       16       18       33 </v>
   <v type="int" >        2       11       17       18       33 </v>
   <v type="int" >        2       17       18       33       39 </v>
   <v type="int" >        2       16       18       33       38 </v>
   <v type="int" >        2       18       33       38       44 </v>
   <v type="int" >        2       18       33       39       44 </v>
   <v type="int" >        2       11       17       18       40 </v>
   <v type="int" >        2       11       16       18       40 </v>
   <v type="int" >        2       11       16       40       46 </v>
   <v type="int" >        2       11       17       39       40 </v>
   <v type="int" >        2       11       39       40       45 </v>
   <v type="int" >        2       11       40       45       46 </v>
   <v type="int" >        2       16       18       19       41 </v>
   <v type="int" >        2       15       16       19       41 </v>
   <v type="int" >        2       15       16       41       47 </v>
   <v type="int" >        2       16       18       40       41 </v>
   <v type="int" >        2       16       40       41       46 </v>
   <v type="int" >        2       16       41       46       47 </v>
   <v type="int" >        2       15       19       20       42 </v>
   <v type="int" >        2       14       15       20       42 </v>
   <v type="int" >        2       14       15       42       48 </v>
   <v type="int" >        2       15       19       41       42 </v>
   <v type="int" >        2       15       41       42       47 </v>
   <v type="int" >        2       15       42       47       48 </v>
   <v type="int" >        2       14       19       20       43 </v>
   <v type="int" >        2       13       14       19       43 </v>
   <v type="int" >        2       13       14       43       49 </v>
   <v type="int" >        2       14       20       42       43 </v>
   <v type="int" >        2       14       42       43       48 </v>
   <v type="int" >        2       14       43       48       49 </v>
   <v type="int" >        2       13       18       19       44 </v>
   <v type="int" >        2       12       13       18       44 </v>
   <v type="int" >        2       12       13       44       50 </v>
   <v type="int" >        2       13       19       43       44 </v>
   <v type="int" >        2       13       43       44       49 </v>
   <v type="int" >        2       13       44       49       50 </v>
   <v type="int" >        2       12       17       18       39 </v>
   <v type="int" >        2       11       12       17       39 </v>
   <v type="int" >        2       11       12       39       45 </v>
   <v type="int" >        2       12       18       39       44 </v>
   <v type="int" >        2       12       39       44       50 </v>
   <v type="int" >        2       12       39       45       50 </v>
   <v type="int" >        2        5       11       16       46 </v>
   <v type="int" >        2        5       10       16       46 </v>
   <v type="int" >        2        5       10       46       52 </v>
   <v type="int" >        2        5       11       45       46 </v>
   <v type="int" >        2        5       45       46       51 </v>
   <v type="int" >        2        5       46       51       52 </v>
   <v type="int" >        2       10       15       16       47 </v>
   <v type="int" >        2        9       10       15       47 </v>
   <v type="int" >        2        9       10       47       53 </v>
   <v type="int" >        2       10       16       46       47 </v>
   <v type="int" >        2       10       46       47       52 </v>
   <v type="int" >        2       10       47       52       53 </v>
   <v type="int" >        2        9       14       15       48 </v>
   <v type="int" >        2        8        9       14       48 </v>
   <v type="int" >        2        8        9       48       54 </v>
   <v type="int" >        2        9       15       47       48 </v>
   <v type="int" >        2        9       47       48       53 </v>
   <v type="int" >        2        9       48       53       54 </v>
   <v type="int" >        2        8       13       14       49 </v>
   <v type="int" >        2        7        8       13       49 </v>
   <v type="int" >        2        7        8       49       55 </v>
   <v type="int" >        2        8       14       48       49 </v>
   <v type="int" >        2        8       48       49       54 </v>
   <v type="int" >        2        8       49       54       55 </v>
   <v type="int" >        2        7       12       13       50 </v>
   <v type="int" >        2        6        7       12       50 </v>
   <v type="int" >        2        6        7       50       56 </v>
   <v type="int" >        2        7       13       49       50 </v>
   <v type="int" >        2        7       49       50       55 </v>
   <v type="int" >        2        7       50       55       56 </v>
   <v type="int" >        2        6       11       12       45 </v>
   <v type="int" >        2        5        6       11       45 </v>
   <v type="int" >        2        5        6       45       51 </v>
   <v type="int" >        2        6       12       45       50 </v>
   <v type="int" >        2        6       45       50       56 </v>
   <v type="int" >        2        6       45       51       56 </v>
   <v type="int" >        2        1        5       10       52 </v>
   <v type="int" >        2        1        2       10       52 </v>
   <v type="int" >        2        1        2       22       52 </v>
   <v type="int" >        2        1        5       51       52 </v>
   <v type="int" >        2        1       21       51       52 </v>
   <v type="int" >        2        1       21       22       52 </v>
   <v type="int" >        2        2        9       10       53 </v>
   <v type="int" >        2        2        3        9       53 </v>
   <v type="int" >        2        2        3       23       53 </v>
   <v type="int" >        2        2       10       52       53 </v>
   <v type="int" >        2        2       22       52       53 </v>
   <v type="int" >        2        2       22       23       53 </v>
   <v type="int" >        2        3        8        9       54 </v>
   <v type="int" >        2        3        4        8       54 </v>
   <v type="int" >        2        3        4       24       54 </v>
   <v type="int" >        2        3        9       53       54 </v>
   <v type="int" >        2        3       23       53       54 </v>
   <v type="int" >        2        3       23       24       54 </v>
   <v type="int" >        2        4        7        8       55 </v>
   <v type="int" >        2        3        4        7       55 </v>
   <v type="int" >        2        3        4       25       55 </v>
   <v type="int" >        2        4        8       54       55 </v>
   <v type="int" >        2        4       24       54       55 </v>
   <v type="int" >        2        4       24       25       55 </v>
   <v type="int" >        2        3        6        7       56 </v>
   <v type="int" >        2        2        3        6       56 </v>
   <v type="int" >        2        2        3       26       56 </v>
   <v type="int" >        2        3        7       55       56 </v>
   <v type="int" >        2        3       25       55       56 </v>
   <v type="int" >        2        3       25       26       56 </v>
   <v type="int" >        2        2        5        6       51 </v>
   <v type="int" >        2        1        2        5       51 </v>
   <v type="int" >        2        1        2       21       51 </v>
   <v type="int" >        2        2        6       51       56 </v>
   <v type="int" >        2        2       26       51       56 </v>
   <v type="int" >        2        2       21       26       51 </v>
   <v type="int" >        2       21       22       27       58 </v>
   <v type="int" >        2       22       27       28       58 </v>
   <v type="int" >        2       27       28       58       64 </v>
   <v type="int" >        2       21       27       57       58 </v>
   <v type="int" >        2       27       57       58       63 </v>
   <v type="int" >        2       27       58       63       64 </v>
   <v type="int" >        2       22       23       28       59 </v>
   <v type="int" >        2       23       28       29       59 </v>
   <v type="int" >        2       28       29       59       65 </v>
   <v type="int" >        2       22       28       58       59 </v>
   <v type="int" >        2       28       58       59       64 </v>
   <v type="int" >        2       28       59       64       65 </v>
   <v type="int" >        2       23       24       29       60 </v>
   <v type="int" >        2       24       29       30       60 </v>
   <v type="int" >        2       29       30       60       66 </v>
   <v type="int" >        2       23       29       59       60 </v>
   <v type="int" >        2       29       59       60       65 </v>
   <v type="int" >        2       29       60       65       66 </v>
   <v type="int" >        2       24       25       30       61 </v>
   <v type="int" >        2       25       30       31       61 </v>
   <v type="int" >        2       30       31       61       67 </v>
   <v type="int" >        2       24       30       60       61 </v>
   <v type="int" >        2       30       60       61       66 </v>
   <v type="int" >        2       30       61       66       67 </v>
   <v type="int" >        2       25       26       31       62 </v>
   <v type="int" >        2       26       31       32       62 </v>
   <v type="int" >        2       31       32       62       68 </v>
   <v type="int" >        2       25       31       61       62 </v>
   <v type="int" >        2       31       61       62       67 </v>
   <v type="int" >        2       31       62       67       68 </v>
   <v type="int" >        2       21       26       32       57 </v>
   <v type="int" >        2       21       27       32       57 </v>
   <v type="int" >        2       27       32       57       63 </v>
   <v type="int" >        2       26       32       57       62 </v>
   <v type="int" >        2       32       57       62       68 </v>
   <v type="int" >        2       32       57       63       68 </v>
   <v type="int" >        2       27       28       33       64 </v>
   <v type="int" >        2       28       33       34       64 </v>
   <v type="int" >        2       33       34       64       70 </v>
   <v type="int" >        2       27       33       63       64 </v>
   <v type="int" >        2       33       63       64       69 </v>
   <v type="int" >        2       33       64       69       70 </v>
   <v type="int" >        2       28       29       34       65 </v>
   <v type="int" >        2       29       34       35       65 </v>
   <v type="int" >        2       34       35       65       71 </v>
   <v type="int" >        2       28       34       64       65 </v>
   <v type="int" >        2       34       64       65       70 </v>
   <v type="int" >        2       34       65       70       71 </v>
   <v type="int" >        2       29       30       35       66 </v>
   <v type="int" >        2       30       35       36       66 </v>
   <v type="int" >        2       35       36       66       72 </v>
   <v type="int" >        2       29       35       65       66 </v>
   <v type="int" >        2       35       65       66       71 </v>
   <v type="int" >        2       35       66       71       72 </v>
   <v type="int" >        2       30       31       36       67 </v>
   <v type="int" >        2       31       36       37       67 </v>
   <v type="int" >        2       36       37       67       73 </v>
   <v type="int" >        2       30       36       66       67 </v>
   <v type="int" >        2       36       66       67       72 </v>
   <v type="int" >        2       36       67       72       73 </v>
   <v type="int" >        2       31       32       37       68 </v>
   <v type="int" >        2       32       37       38       68 </v>
   <v type="int" >        2       37       38       68       74 </v>
   <v type="int" >        2       31       37       67       68 </v>
   <v type="int" >        2       37       67       68       73 </v>
   <v type="int" >        2       37       68       73       74 </v>
   <v type="int" >        2       27       32       38       63 </v>
   <v type="int" >        2       27       33       38       63 </v>
   <v type="int" >        2       33       38       63       69 </v>
   <v type="int" >        2       32       38       63       68 </v>
   <v type="int" >        2       38       63       68       74 </v>
   <v type="int" >        2       38       63       69       74 </v>
   <v type="int" >        2       33       34       39       70 </v>
   <v type="int" >        2       34       39       40       70 </v>
   <v type="int" >        2       39       40       70       76 </v>
   <v type="int" >        2       33       39       69       70 </v>
   <v type="int" >        2       39       69       70       75 </v>
   <v type="int" >        2       39       70       75       76 </v>
   <v type="int" >        2       34       35       40       71 </v>
   <v type="int" >        2       35       40       41       71 </v>
   <v type="int" >        2       40       41       71       77 </v>
   <v type="int" >        2       34       40       70       71 </v>
   <v type="int" >        2       40       70       71       76 </v>
   <v type="int" >        2       40       71       76       77 </v>
   <v type="int" >        2       35       36       41       72 </v>
   <v type="int" >        2       36       41       42       72 </v>
   <v type="int" >        2       41       42       72       78 </v>
   <v type="int" >        2       35       41       71       72 </v>
   <v type="int" >        2       41       71       72       77 </v>
   <v type="int" >        2       41       72       77       78 </v>
   <v type="int" >        2       36       37       42       73 </v>
   <v type="int" >        2       37       42       43       73 </v>
   <v type="int" >        2       42       43       73       79 </v>
   <v type="int" >        2       36       42       72       73 </v>
   <v type="int" >        2       42       72       73       78 </v>
   <v type="int" >        2       42       73       78       79 </v>
   <v type="int" >        2       37       38       43       74 </v>
   <v type="int" >        2       38       43       44       74 </v>
   <v type="int" >        2       43       44       74       80 </v>
   <v type="int" >        2       37       43       73       74 </v>
   <v type="int" >        2       43       73       74       79 </v>
   <v type="int" >        2       43       74       79       80 </v>
   <v type="int" >        2       33       38       44       69 </v>
   <v type="int" >        2       33       39       44       69 </v>
   <v type="int" >        2       39       44       69       75 </v>
   <v type="int" >        2       38       44       69       74 </v>
   <v type="int" >        2       44       69       74       80 </v>
   <v type="int" >        2       44       69       75       80 </v>
   <v type="int" >        2       39       40       45       76 </v>
   <v type="int" >        2       40       45       46       76 </v>
   <v type="int" >        2       45       46       76       82 </v>
   <v type="int" >        2       39       45       75       76 </v>
   <v type="int" >        2       45       75       76       81 </v>
   <v type="int" >        2       45       76       81       82 </v>
   <v type="int" >        2       40       41       46       77 </v>
   <v type="int" >        2       41       46       47       77 </v>
   <v type="int" >        2       46       47       77       83 </v>
   <v type="int" >        2       40       46       76       77 </v>
   <v type="int" >        2       46       76       77       82 </v>
   <v type="int" >        2       46       77       82       83 </v>
   <v type="int" >        2       41       42       47       78 </v>
   <v type="int" >        2       42       47       48       78 </v>
   <v type="int" >        2       47       48       78       84 </v>
   <v type="int" >        2       41       47       77       78 </v>
   <v type="int" >        2       47       77       78       83 </v>
   <v type="int" >        2       47       78       83       84 </v>
   <v type="int" >        2       42       43       48       79 </v>
   <v type="int" >        2       43       48       49       79 </v>
   <v type="int" >        2       48       49       79       85 </v>
   <v type="int" >        2       42       48       78       79 </v>
   <v type="int" >        2       48       78       79       84 </v>
   <v type="int" >        2       48       79       84       85 </v>
   <v type="int" >        2       43       44       49       80 </v>
   <v type="int" >        2       44       49       50       80 </v>
   <v type="int" >        2       49       50       80       86 </v>
   <v type="int" >        2       43       49       79       80 </v>
   <v type="int" >        2       49       79       80       85 </v>
   <v type="int" >        2       49       80       85       86 </v>
   <v type="int" >        2       39       44       50       75 </v>
   <v type="int" >        2       39       45       50       75 </v>
   <v type="int" >        2       45       50       75       81 </v>
   <v type="int" >        2       44       50       75       80 </v>
   <v type="int" >        2       50       75       80       86 </v>
   <v type="int" >        2       50       75       81       86 </v>
   <v type="int" >        2       45       46       51       82 </v>
   <v type="int" >        2       46       51       52       82 </v>
   <v type="int" >        2       51       52       82       88 </v>
   <v type="int" >        2       45       51       81       82 </v>
   <v type="int" >        2       51       81       82       87 </v>
   <v type="int" >        2       51       82       87       88 </v>
   <v type="int" >        2       46       47       52       83 </v>
   <v type="int" >        2       47       52       53       83 </v>
   <v type="int" >        2       52       53       83       89 </v>
   <v type="int" >        2       46       52       82       83 </v>
   <v type="int" >        2       52       82       83       88 </v>
   <v type="int" >        2       52       83       88       89 </v>
   <v type="int" >        2       47       48       53       84 </v>
   <v type="int" >        2       48       53       54       84 </v>
   <v type="int" >        2       53       54       84       90 </v>
   <v type="int" >        2       47       53       83       84 </v>
   <v type="int" >        2       53       83       84       89 </v>
   <v type="int" >        2       53       84       89       90 </v>
   <v type="int" >        2       48       49       54       85 </v>
   <v type="int" >        2       49       54       55       85 </v>
   <v type="int" >        2       54       55       85       91 </v>
   <v type="int" >        2       48       54       84       85 </v>
   <v type="int" >        2       54       84       85       90 </v>
   <v type="int" >        2       54       85       90       91 </v>
   <v type="int" >        2       49       50       55       86 </v>
   <v type="int" >        2       50       55       56       86 </v>
   <v type="int" >        2       55       56       86       92 </v>
   <v type="int" >        2       49       55       85       86 </v>
   <v type="int" >        2       55       85       86       91 </v>
   <v type="int" >        2       55       86       91       92 </v>
   <v type="int" >        2       45       50       56       81 </v>
   <v type="int" >        2       45       51       56       81 </v>
   <v type="int" >        2       51       56       81       87 </v>
   <v type="int" >        2       50       56       81       86 </v>
   <v type="int" >        2       56       81       86       92 </v>
   <v type="int" >        2       56       81       87       92 </v>
   <v type="int" >        2       21       51       52       88 </v>
   <v type="int" >        2       21       22       52       88 </v>
   <v type="int" >        2       21       22       58       88 </v>
   <v type="int" >        2       21       51       87       88 </v>
   <v type="int" >        2       21       57       87       88 </v>
   <v type="int" >        2       21       57       58       88 </v>
   <v type="int" >        2       22       52       53       89 </v>
   <v type="int" >        2       22       23       53       89 </v>
   <v type="int" >        2       22       23       59       89 </v>
   <v type="int" >        2       22       52       88       89 </v>
   <v type="int" >        2       22       58       88       89 </v>
   <v type="int" >        2       22       58       59       89 </v>
   <v type="int" >        2       23       53       54       90 </v>
   <v type="int" >        2       23       24       54       90 </v>
   <v type="int" >        2       23       24       60       90 </v>
   <v type="int" >        2       23       53       89       90 </v>
   <v type="int" >        2       23       59       89       90 </v>
   <v type="int" >        2       23       59       60       90 </v>
   <v type="int" >        2       24       54       55       91 </v>
   <v type="int" >        2       24       25       55       91 </v>
   <v type="int" >        2       24       25       61       91 </v>
   <v type="int" >        2       24       54       90       91 </v>
   <v type="int" >        2       24       60       90       91 </v>
   <v type="int" >        2       24       60       61       91 </v>
   <v type="int" >        2       25       55       56       92 </v>
   <v type="int" >        2       25       26       56       92 </v>
   <v type="int" >        2       25       26       62       92 </v>
   <v type="int" >        2       25       55       91       92 </v>
   <v type="int" >        2       25       61       91       92 </v>
   <v type="int" >        2       25       61       62       92 </v>
   <v type="int" >        2       26       51       56       87 </v>
   <v type="int" >        2       21       26       51       87 </v>
   <v type="int" >        2       21       26       57       87 </v>
   <v type="int" >        2       26       56       87       92 </v>
   <v type="int" >        2       26       62       87       92 </v>
   <v type="int" >        2       26       57       62       87 </v>
   <v type="int" >        2       57       58       63       94 </v>
   <v type="int" >        2       58       63       64       94 </v>
   <v type="int" >        2       63       64       94      100 </v>
   <v type="int" >        2       57       63       93       94 </v>
   <v type="int" >        2       63       93       94       99 </v>
   <v type="int" >        2       63       94       99      100 </v>
   <v type="int" >        2       58       59       64       95 </v>
   <v type="int" >        2       59       64       65       95 </v>
   <v type="int" >        2       64       65       95      101 </v>
   <v type="int" >        2       58       64       94       95 </v>
   <v type="int" >        2       64       94       95      100 </v>
   <v type="int" >        2       64       95      100      101 </v>
   <v type="int" >        2       59       60       65       96 </v>
   <v type="int" >        2       60       65       66       96 </v>
   <v type="int" >        2       65       66       96      102 </v>
   <v type="int" >        2       59       65       95       96 </v>
   <v type="int" >        2       65       95       96      101 </v>
   <v type="int" >        2       65       96      101      102 </v>
   <v type="int" >        2       60       61       66       97 </v>
   <v type="int" >        2       61       66       67       97 </v>
   <v type="int" >        2       66       67       97      103 </v>
   <v type="int" >        2       60       66       96       97 </v>
   <v type="int" >        2       66       96       97      102 </v>
   <v type="int" >        2       66       97      102      103 </v>
   <v type="int" >        2       61       62       67       98 </v>
   <v type="int" >        2       62       67       68       98 </v>
   <v type="int" >        2       67       68       98      104 </v>
   <v type="int" >        2       61       67       97       98 </v>
   <v type="int" >        2       67       97       98      103 </v>
   <v type="int" >        2       67       98      103      104 </v>
   <v type="int" >        2       57       62       68       93 </v>
   <v type="int" >        2       57       63       68       93 </v>
   <v type="int" >        2       63       68       93       99 </v>
   <v type="int" >        2       62       68       93       98 </v>
   <v type="int" >        2       68       93       98      104 </v>
   <v type="int" >        2       68       93       99      104 </v>
   <v type="int" >        2       63       64       69      100 </v>
   <v type="int" >        2       64       69       70      100 </v>
   <v type="int" >        2       69       70      100      106 </v>
   <v type="int" >        2       63       69       99      100 </v>
   <v type="int" >        2       69       99      100      105 </v>
   <v type="int" >        2       69      100      105      106 </v>
   <v type="int" >        2       64       65       70      101 </v>
   <v type="int" >        2       65       70       71      101 </v>
   <v type="int" >        2       70       71      101      107 </v>
   <v type="int" >        2       64       70      100      101 </v>
   <v type="int" >        2       70      100      101      106 </v>
   <v type="int" >        2       70      101      106      107 </v>
   <v type="int" >        2       65       66       71      102 </v>
   <v type="int" >        2       66       71       72      102 </v>
   <v type="int" >        2       71       72      102      108 </v>
   <v type="int" >        2       65       71      101      102 </v>
   <v type="int" >        2       71      101      102      107 </v>
   <v type="int" >        2       71      102      107      108 </v>
   <v type="int" >        2       66       67       72      103 </v>
   <v type="int" >        2       67       72       73      103 </v>
   <v type="int" >        2       72       73      103      109 </v>
   <v type="int" >        2       66       72      102      103 </v>
   <v type="int" >        2       72      102      103      108 </v>
   <v type="int" >        2       72      103      108      109 </v>
   <v type="int" >        2       67       68       73      104 </v>
   <v type="int" >        2       68       73       74      104 </v>
   <v type="int" >        2       73       74      104      110 </v>
   <v type="int" >        2       67       73      103      104 </v>
   <v type="int" >        2       73      103      104      109 </v>
   <v type="int" >        2       73      104      109      110 </v>
   <v type="int" >        2       63       68       74       99 </v>
   <v type="int" >        2       63       69       74       99 </v>
   <v type="int" >        2       69       74       99      105 </v>
   <v type="int" >        2       68       74       99      104 </v>
   <v type="int" >        2       74       99      104      110 </v>
   <v type="int" >        2       74       99      105      110 </v>
   <v type="int" >        2       69       70       75      106 </v>
   <v type="int" >        2       70       75       76      106 </v>
   <v type="int" >        2       75       76      106      112 </v>
   <v type="int" >        2       69       75      105      106 </v>
   <v type="int" >        2       75      105      106      111 </v>
   <v type="int" >        2       75      106      111      112 </v>
   <v type="int" >        2       70       71       76      107 </v>
   <v type="int" >        2       71       76       77      107 </v>
   <v type="int" >        2       76       77      107      113 </v>
   <v type="int" >        2       70       76      106      107 </v>
   <v type="int" >        2       76      106      107      112 </v>
   <v type="int" >        2       76      107      112      113 </v>
   <v type="int" >        2       71       72       77      108 </v>
   <v type="int" >        2       72       77       78      108 </v>
   <v type="int" >        2       77       78      108      114 </v>
   <v type="int" >        2       71       77      107      108 </v>
   <v type="int" >        2       77      107      108      113 </v>
   <v type="int" >        2       77      108      113      114 </v>
   <v type="int" >        2       72       73       78      109 </v>
   <v type="int" >        2       73       78       79      109 </v>
   <v type="int" >        2       78       79      109      115 </v>
   <v type="int" >        2       72       78      108      109 </v>
   <v type="int" >        2       78      108      109      114 </v>
   <v type="int" >        2       78      109      114      115 </v>
   <v type="int" >        2       73       74       79      110 </v>
   <v type="int" >        2       74       79       80      110 </v>
   <v type="int" >        2       79       80      110      116 </v>
   <v type="int" >        2       73       79      109      110 </v>
   <v type="int" >        2       79      109      110      115 </v>
   <v type="int" >        2       79      110      115      116 </v>
   <v type="int" >        2       69       74       80      105 </v>
   <v type="int" >        2       69       75       80      105 </v>
   <v type="int" >        2       75       80      105      111 </v>
   <v type="int" >        2       74       80      105      110 </v>
   <v type="int" >        2       80      105      110      116 </v>
   <v type="int" >        2       80      105      111      116 </v>
   <v type="int" >        2       75       76       81      112 </v>
   <v type="int" >        2       76       81       82      112 </v>
   <v type="int" >        2       81       82      112      118 </v>
   <v type="int" >        2       75       81      111      112 </v>
   <v type="int" >        2       81      111      112      117 </v>
   <v type="int" >        2       81      112      117      118 </v>
   <v type="int" >        2       76       77       82      113 </v>
   <v type="int" >        2       77       82       83      113 </v>
   <v type="int" >        2       82       83      113      119 </v>
   <v type="int" >        2       76       82      112      113 </v>
   <v type="int" >        2       82      112      113      118 </v>
   <v type="int" >        2       82      113      118      119 </v>
   <v type="int" >        2       77       78       83      114 </v>
   <v type="int" >        2       78       83       84      114 </v>
   <v type="int" >        2       83       84      114      120 </v>
   <v type="int" >        2       77       83      113      114 </v>
   <v type="int" >        2       83      113      114      119 </v>
   <v type="int" >        2       83      114      119      120 </v>
   <v type="int" >        2       78       79       84      115 </v>
   <v type="int" >        2       79       84       85      115 </v>
   <v type="int" >        2       84       85      115      121 </v>
   <v type="int" >        2       78       84      114      115 </v>
   <v type="int" >        2       84      114      115      120 </v>
   <v type="int" >        2       84      115      120      121 </v>
   <v type="int" >        2       79       80       85      116 </v>
   <v type="int" >        2       80       85       86      116 </v>
   <v type="int" >        2       85       86      116      122 </v>
   <v type="int" >        2       79       85      115      116 </v>
   <v type="int" >        2       85      115      116      121 </v>
   <v type="int" >        2       85      116      121      122 </v>
   <v type="int" >        2       75       80       86      111 </v>
   <v type="int" >        2       75       81       86      111 </v>
   <v type="int" >        2       81       86      111      117 </v>
   <v type="int" >        2       80       86      111      116 </v>
   <v type="int" >        2       86      111      116      122 </v>
   <v type="int" >        2       86      111      117      122 </v>
   <v type="int" >        2       81       82       87      118 </v>
   <v type="int" >        2       82       87       88      118 </v>
   <v type="int" >        2       87       88      118      124 </v>
   <v type="int" >        2       81       87      117      118 </v>
   <v type="int" >        2       87      117      118      123 </v>
   <v type="int" >        2       87      118      123      124 </v>
   <v type="int" >        2       82       83       88      119 </v>
   <v type="int" >        2       83       88       89      119 </v>
   <v type="int" >        2       88       89      119      125 </v>
   <v type="int" >        2       82       88      118      119 </v>
   <v type="int" >        2       88      118      119      124 </v>
   <v type="int" >        2       88      119      124      125 </v>
   <v type="int" >        2       83       84       89      120 </v>
   <v type="int" >        2       84       89       90      120 </v>
   <v type="int" >        2       89       90      120      126 </v>
   <v type="int" >        2       83       89      119      120 </v>
   <v type="int" >        2       89      119      120      125 </v>
   <v type="int" >        2       89      120      125      126 </v>
   <v type="int" >        2       84       85       90      121 </v>
   <v type="int" >        2       85       90       91      121 </v>
   <v type="int" >        2       90       91      121      127 </v>
   <v type="int" >        2       84       90      120      121 </v>
   <v type="int" >        2       90      120      121      126 </v>
   <v type="int" >        2       90      121      126      127 </v>
   <v type="int" >        2       85       86       91      122 </v>
   <v type="int" >        2       86       91       92      122 </v>
   <v type="int" >        2       91       92      122      128 </v>
   <v type="int" >        2       85       91      121      122 </v>
   <v type="int" >        2       91      121      122      127 </v>
   <v type="int" >        2       91      122      127      128 </v>
   <v type="int" >        2       81       86       92      117 </v>
   <v type="int" >        2       81       87       92      117 </v>
   <v type="int" >        2       87       92      117      123 </v>
   <v type="int" >        2       86       92      117      122 </v>
   <v type="int" >        2       92      117      122      128 </v>
   <v type="int" >        2       92      117      123      128 </v>
   <v type="int" >        2       57       87       88      124 </v>
   <v type="int" >        2       57       58       88      124 </v>
   <v type="int" >        2       57       58       94      124 </v>
   <v type="int" >        2       57       87      123      124 </v>
   <v type="int" >        2       57       93      123      124 </v>
   <v type="int" >        2       57       93       94      124 </v>
   <v type="int" >        2       58       88       89      125 </v>
   <v type="int" >        2       58       59       89      125 </v>
   <v type="int" >        2       58       59       95      125 </v>
   <v type="int" >        2       58       88      124      125 </v>
   <v type="int" >        2       58       94      124      125 </v>
   <v type="int" >        2       58       94       95      125 </v>
   <v type="int" >        2       59       89       90      126 </v>
   <v type="int" >        2       59       60       90      126 </v>
   <v type="int" >        2       59       60       96      126 </v>
   <v type="int" >        2       59       89      125      126 </v>
   <v type="int" >        2       59       95      125      126 </v>
   <v type="int" >        2       59       95       96      126 </v>
   <v type="int" >        2       60       90       91      127 </v>
   <v type="int" >        2       60       61       91      127 </v>
   <v type="int" >        2       60       61       97      127 </v>
   <v type="int" >        2       60       90      126      127 </v>
   <v type="int" >        2       60       96      126      127 </v>
   <v type="int" >        2       60       96       97      127 </v>
   <v type="int" >        2       61       91       92      128 </v>
   <v type="int" >        2       61       62       92      128 </v>
   <v type="int" >        2       61       62       98      128 </v>
   <v type="int" >        2       61       91      127      128 </v>
   <v type="int" >        2       61       97      127      128 </v>
   <v type="int" >        2       61       97       98      128 </v>
   <v type="int" >        2       62       87       92      123 </v>
   <v type="int" >        2       57       62       87      123 </v>
   <v type="int" >        2       57       62       93      123 </v>
   <v type="int" >        2       62       92      123      128 </v>
   <v type="int" >        2       62       98      123      128 </v>
   <v type="int" >        2       62       93       98      123 </v>
   <v type="int" >        2       93       94       99      130 </v>
   <v type="int" >        2       94       99      100      130 </v>
   <v type="int" >        2       99      100      130      136 </v>
   <v type="int" >        2       93       99      129      130 </v>
   <v type="int" >        2       99      129      130      135 </v>
   <v type="int" >        2       99      130      135      136 </v>
   <v type="int" >        2       94       95      100      131 </v>
   <v type="int" >        2       95      100      101      131 </v>
   <v type="int" >        2      100      101      131      137 </v>
   <v type="int" >        2       94      100      130      131 </v>
   <v type="int" >        2      100      130      131      136 </v>
   <v type="int" >        2      100      131      136      137 </v>
   <v type="int" >        2       95       96      101      132 </v>
   <v type="int" >        2       96      101      102      132 </v>
   <v type="int" >        2      101      102      132      138 </v>
   <v type="int" >        2       95      101      131      132 </v>
   <v type="int" >        2      101      131      132      137 </v>
   <v type="int" >        2      101      132      137      138 </v>
   <v type="int" >        2       96       97      102      133 </v>
   <v type="int" >        2       97      102      103      133 </v>
   <v type="int" >        2      102      103      133      139 </v>
   <v type="int" >        2       96      102      132      133 </v>
   <v type="int" >        2      102      132      133      138 </v>
   <v type="int" >        2      102      133      138      139 </v>
   <v type="int" >        2       97       98      103      134 </v>
   <v type="int" >        2       98      103      104      134 </v>
   <v type="int" >        2      103      104      134      140 </v>
   <v type="int" >        2       97      103      133      134 </v>
   <v type="int" >        2      103      133      134      139 </v>
   <v type="int" >        2      103      134      139      140 </v>
   <v type="int" >        2       93       98      104      129 </v>
   <v type="int" >        2       93       99      104      129 </v>
   <v type="int" >        2       99      104      129      135 </v>
   <v type="int" >        2       98      104      129      134 </v>
   <v type="int" >        2      104      129      134      140 </v>
   <v type="int" >        2      104      129      135      140 </v>
   <v type="int" >        2       99      100      105      136 </v>
   <v type="int" >        2      100      105      106      136 </v>
   <v type="int" >        2      105      106      136      142 </v>
   <v type="int" >        2       99      105      135      136 </v>
   <v type="int" >        2      105      135      136      141 </v>
   <v type="int" >        2      105      136      141      142 </v>
   <v type="int" >        2      100      101      106      137 </v>
   <v type="int" >        2      101      106      107      137 </v>
   <v type="int" >        2      106      107      137      143 </v>
   <v type="int" >        2      100      106      136      137 </v>
   <v type="int" >        2      106      136      137      142 </v>
   <v type="int" >        2      106      137      142      143 </v>
   <v type="int" >        2      101      102      107      138 </v>
   <v type="int" >        2      102      107      108      138 </v>
   <v type="int" >        2      107      108      138      144 </v>
   <v type="int" >        2      101      107      137      138 </v>
   <v type="int" >        2      107      137      138      143 </v>
   <v type="int" >        2      107      138      143      144 </v>
   <v type="int" >        2      102      103      108      139 </v>
   <v type="int" >        2      103      108      109      139 </v>
   <v type="int" >        2      108      109      139      145 </v>
   <v type="int" >        2      102      108      138      139 </v>
   <v type="int" >        2      108      138      139      144 </v>
   <v type="int" >        2      108      139      144      145 </v>
   <v type="int" >        2      103      104      109      140 </v>
   <v type="int" >        2      104      109      110      140 </v>
   <v type="int" >        2      109      110      140      146 </v>
   <v type="int" >        2      103      109      139      140 </v>
   <v type="int" >        2      109      139      140      145 </v>
   <v type="int" >        2      109      140      145      146 </v>
   <v type="int" >        2       99      104      110      135 </v>
   <v type="int" >        2       99      105      110      135 </v>
   <v type="int" >        2      105      110      135      141 </v>
   <v type="int" >        2      104      110      135      140 </v>
   <v type="int" >        2      110      135      140      146 </v>
   <v type="int" >        2      110      135      141      146 </v>
   <v type="int" >        2      105      106      111      142 </v>
   <v type="int" >        2      106      111      112      142 </v>
   <v type="int" >        2      111      112      142      148 </v>
   <v type="int" >        2      105      111      141      142 </v>
   <v type="int" >        2      111      141      142      147 </v>
   <v type="int" >        2      111      142      147      148 </v>
   <v type="int" >        2      106      107      112      143 </v>
   <v type="int" >        2      107      112      113      143 </v>
   <v type="int" >        2      112      113      143      149 </v>
   <v type="int" >        2      106      112      142      143 </v>
   <v type="int" >        2      112      142      143      148 </v>
   <v type="int" >        2      112      143      148      149 </v>
   <v type="int" >        2      107      108      113      144 </v>
   <v type="int" >        2      108      113      114      144 </v>
   <v type="int" >        2      113      114      144      150 </v>
   <v type="int" >        2      107      113      143      144 </v>
   <v type="int" >        2      113      143      144      149 </v>
   <v type="int" >        2      113      144      149      150 </v>
   <v type="int" >        2      108      109      114      145 </v>
   <v type="int" >        2      109      114      115      145 </v>
   <v type="int" >        2      114      115      145      151 </v>
   <v type="int" >        2      108      114      144      145 </v>
   <v type="int" >        2      114      144      145      150 </v>
   <v type="int" >        2      114      145      150      151 </v>
   <v type="int" >        2      109      110      115      146 </v>
   <v type="int" >        2      110      115      116      146 </v>
   <v type="int" >        2      115      116      146      152 </v>
   <v type="int" >        2      109      115      145      146 </v>
   <v type="int" >        2      115      145      146      151 </v>
   <v type="int" >        2      115      146      151      152 </v>
   <v type="int" >        2      105      110      116      141 </v>
   <v type="int" >        2      105      111      116      141 </v>
   <v type="int" >        2      111      116      141      147 </v>
   <v type="int" >        2      110      116      141      146 </v>
   <v type="int" >        2      116      141      146      152 </v>
   <v type="int" >        2      116      141      147      152 </v>
   <v type="int" >        2      111      112      117      148 </v>
   <v type="int" >        2      112      117      118      148 </v>
   <v type="int" >        2      117      118      148      154 </v>
   <v type="int" >        2      111      117      147      148 </v>
   <v type="int" >        2      117      147      148      153 </v>
   <v type="int" >        2      117      148      153      154 </v>
   <v type="int" >        2      112      113      118      149 </v>
   <v type="int" >        2      113      118      119      149 </v>
   <v type="int" >        2      118      119      149      155 </v>
   <v type="int" >        2      112      118      148      149 </v>
   <v type="int" >        2      118      148      149      154 </v>
   <v type="int" >        2      118      149      154      155 </v>
   <v type="int" >        2      113      114      119      150 </v>
   <v type="int" >        2      114      119      120      150 </v>
   <v type="int" >        2      119      120      150      156 </v>
   <v type="int" >        2      113      119      149      150 </v>
   <v type="int" >        2      119      149      150      155 </v>
   <v type="int" >        2      119      150      155      156 </v>
   <v type="int" >        2      114      115      120      151 </v>
   <v type="int" >        2      115      120      121      151 </v>
   <v type="int" >        2      120      121      151      157 </v>
   <v type="int" >        2      114      120      150      151 </v>
   <v type="int" >        2      120      150      151      156 </v>
   <v type="int" >        2      120      151      156      157 </v>
   <v type="int" >        2      115      116      121      152 </v>
   <v type="int" >        2      116      121      122      152 </v>
   <v type="int" >        2      121      122      152      158 </v>
   <v type="int" >        2      115      121      151      152 </v>
   <v type="int" >        2      121      151      152      157 </v>
   <v type="int" >        2      121      152      157      158 </v>
   <v type="int" >        2      111      116      122      147 </v>
   <v type="int" >        2      111      117      122      147 </v>
   <v type="int" >        2      117      122      147      153 </v>
   <v type="int" >        2      116      122      147      152 </v>
   <v type="int" >        2      122      147      152      158 </v>
   <v type="int" >        2      122      147      153      158 </v>
   <v type="int" >        2      117      118      123      154 </v>
   <v type="int" >        2      118      123      124      154 </v>
   <v type="int" >        2      123      124      154      160 </v>
   <v type="int" >        2      117      123      153      154 </v>
   <v type="int" >        2      123      153      154      159 </v>
   <v type="int" >        2      123      154      159      160 </v>
   <v type="int" >        2      118      119      124      155 </v>
   <v type="int" >        2      119      124      125      155 </v>
   <v type="int" >        2      124      125      155      161 </v>
   <v type="int" >        2      118      124      154      155 </v>
   <v type="int" >        2      124      154      155      160 </v>
   <v type="int" >        2      124      155      160      161 </v>
   <v type="int" >        2      119      120      125      156 </v>
   <v type="int" >        2      120      125      126      156 </v>
   <v type="int" >        2      125      126      156      162 </v>
   <v type="int" >        2      119      125      155      156 </v>
   <v type="int" >        2      125      155      156      161 </v>
   <v type="int" >        2      125      156      161      162 </v>
   <v type="int" >        2      120      121      126      157 </v>
   <v type="int" >        2      121      126      127      157 </v>
   <v type="int" >        2      126      127      157      163 </v>
   <v type="int" >        2      120      126      156      157 </v>
   <v type="int" >        2      126      156      157      162 </v>
   <v type="int" >        2      126      157      162      163 </v>
   <v type="int" >        2      121      122      127      158 </v>
   <v type="int" >        2      122      127      128      158 </v>
   <v type="int" >        2      127      128      158      164 </v>
   <v type="int" >        2      121      127      157      158 </v>
   <v type="int" >        2      127      157      158      163 </v>
   <v type="int" >        2      127      158      163      164 </v>
   <v type="int" >        2      117      122      128      153 </v>
   <v type="int" >        2      117      123      128      153 </v>
   <v type="int" >        2      123      128      153      159 </v>
   <v type="int" >        2      122      128      153      158 </v>
   <v type="int" >        2      128      153      158      164 </v>
   <v type="int" >        2      128      153      159      164 </v>
   <v type="int" >        2       93      123      124      160 </v>
   <v type="int" >        2       93       94      124      160 </v>
   <v type="int" >        2       93       94      130      160 </v>
   <v type="int" >        2       93      123      159      160 </v>
   <v type="int" >        2       93      129      159      160 </v>
   <v type="int" >        2       93      129      130      160 </v>
   <v type="int" >        2       94      124      125      161 </v>
   <v type="int" >        2       94       95      125      161 </v>
   <v type="int" >        2       94       95      131      161 </v>
   <v type="int" >        2       94      124      160      161 </v>
   <v type="int" >        2       94      130      160      161 </v>
   <v type="int" >        2       94      130      131      161 </v>
   <v type="int" >        2       95      125      126      162 </v>
   <v type="int" >        2       95       96      126      162 </v>
   <v type="int" >        2       95       96      132      162 </v>
   <v type="int" >        2       95      125      161      162 </v>
   <v type="int" >        2       95      131      161      162 </v>
   <v type="int" >        2       95      131      132      162 </v>
   <v type="int" >        2       96      126      127      163 </v>
   <v type="int" >        2       96       97      127      163 </v>
   <v type="int" >        2       96       97      133      163 </v>
   <v type="int" >        2       96      126      162      163 </v>
   <v type="int" >        2       96      132      162      163 </v>
   <v type="int" >        2       96      132      133      163 </v>
   <v type="int" >        2       97      127      128      164 </v>
   <v type="int" >        2       97       98      128      164 </v>
   <v type="int" >        2       97       98      134      164 </v>
   <v type="int" >        2       97      127      163      164 </v>
   <v type="int" >        2       97      133      163      164 </v>
   <v type="int" >        2       97      133      134      164 </v>
   <v type="int" >        2       98      123      128      159 </v>
   <v type="int" >        2       93       98      123      159 </v>
   <v type="int" >        2       93       98      129      159 </v>
   <v type="int" >        2       98      128      159      164 </v>
   <v type="int" >        2       98      134      159      164 </v>
   <v type="int" >        2       98      129      134      159 </v>
   <v type="int" >        2      129      130      134      135 </v>
   <v type="int" >        2      130      134      135      136 </v>
   <v type="int" >        2      134      135      136      164 </v>
   <v type="int" >        2      129      129      134      135 </v>
   <v type="int" >        2      129      134      135      159 </v>
   <v type="int" >        2      134      135      159      164 </v>
   <v type="int" >        2      130      131      133      136 </v>
   <v type="int" >        2      131      133      136      137 </v>
   <v type="int" >        2      133      136      137      163 </v>
   <v type="int" >        2      130      133      134      136 </v>
   <v type="int" >        2      133      134      136      164 </v>
   <v type="int" >        2      133      136      163      164 </v>
   <v type="int" >        2      131      132      132      137 </v>
   <v type="int" >        2      132      132      137      138 </v>
   <v type="int" >        2      132      137      138      162 </v>
   <v type="int" >        2      131      132      133      137 </v>
   <v type="int" >        2      132      133      137      163 </v>
   <v type="int" >        2      132      137      162      163 </v>
   <v type="int" >        2      131      132      133      138 </v>
   <v type="int" >        2      131      133      138      139 </v>
   <v type="int" >        2      131      138      139      161 </v>
   <v type="int" >        2      131      132      132      138 </v>
   <v type="int" >        2      131      132      138      162 </v>
   <v type="int" >        2      131      138      161      162 </v>
   <v type="int" >        2      130      133      134      139 </v>
   <v type="int" >        2      130      134      139      140 </v>
   <v type="int" >        2      130      139      140      160 </v>
   <v type="int" >        2      130      131      133      139 </v>
   <v type="int" >        2      130      131      139      161 </v>
   <v type="int" >        2      130      139      160      161 </v>
   <v type="int" >        2      129      129      134      140 </v>
   <v type="int" >        2      129      129      135      140 </v>
   <v type="int" >        2      129      135      140      159 </v>
   <v type="int" >        2      129      130      134      140 </v>
   <v type="int" >        2      129      130      140      160 </v>
   <v type="int" >        2      129      140      159      160 </v>
   <v type="int" >        2      135      136      141      164 </v>
   <v type="int" >        2      136      141      142      164 </v>
   <v type="int" >        2      141      142      158      164 </v>
   <v type="int" >        2      135      141      159      164 </v>
   <v type="int" >        2      141      153      159      164 </v>
   <v type="int" >        2      141      153      158      164 </v>
   <v type="int" >        2      136      137      142      163 </v>
   <v type="int" >        2      137      142      143      163 </v>
   <v type="int" >        2      142      143      157      163 </v>
   <v type="int" >        2      136      142      163      164 </v>
   <v type="int" >        2      142      158      163      164 </v>
   <v type="int" >        2      142      157      158      163 </v>
   <v type="int" >        2      137      138      143      162 </v>
   <v type="int" >        2      138      143      144      162 </v>
   <v type="int" >        2      143      144      156      162 </v>
   <v type="int" >        2      137      143      162      163 </v>
   <v type="int" >        2      143      157      162      163 </v>
[...]
       <r>    8.4962    1.0000 </r>
       <r>    8.5632    1.0000 </r>
       <r>    8.5806    1.0000 </r>
       <r>    8.6171    1.0000 </r>
       <r>    8.7163    1.0000 </r>
       <r>    8.9312    1.0000 </r>
       <r>    9.0523    1.0000 </r>
       <r>    9.0786    1.0000 </r>
       <r>    9.1018    1.0000 </r>
       <r>    9.1139    1.0000 </r>
       <r>    9.1216    1.0000 </r>
       <r>    9.1487    1.0000 </r>
       <r>    9.2131    1.0000 </r>
       <r>    9.3041    1.0019 </r>
       <r>    9.3266    1.0910 </r>
       <r>    9.3608    0.9635 </r>
       <r>    9.4001    0.6751 </r>
       <r>    9.4139    0.0893 </r>
       <r>    9.4326    0.0000 </r>
       <r>    9.5010    0.0000 </r>
       <r>    9.5409    0.0000 </r>
       <r>    9.6317    0.0000 </r>
       <r>    9.8522    0.0000 </r>
       <r>    9.8658    0.0000 </r>
       <r>    9.9316    0.0000 </r>
       <r>    9.9472    0.0000 </r>
       <r>   10.0005    0.0000 </r>
       <r>   10.0129    0.0000 </r>
       <r>   10.0406    0.0000 </r>
       <r>   10.0735    0.0000 </r>
       <r>   10.1196    0.0000 </r>
       <r>   10.1210    0.0000 </r>
       <r>   10.1363    0.0000 </r>
       <r>   10.1544    0.0000 </r>
       <r>   10.1700    0.0000 </r>
       <r>   10.1846    0.0000 </r>
       <r>   10.2003    0.0000 </r>
       <r>   10.2242    0.0000 </r>
       <r>   10.3871    0.0000 </r>
       <r>   10.4885    0.0000 </r>
       <r>   10.7101    0.0000 </r>
       <r>   10.7834    0.0000 </r>
       <r>   10.8191    0.0000 </r>
       <r>   10.8745    0.0000 </r>
       <r>   10.9499    0.0000 </r>
       <r>   11.0085    0.0000 </r>
       <r>   11.0314    0.0000 </r>
       <r>   11.1488    0.0000 </r>
       <r>   11.2314    0.0000 </r>
       <r>   11.3223    0.0000 </r>
       <r>   11.4584    0.0000 </r>
       <r>   13.7249    0.0000 </r>
       <r>   13.9058    0.0000 </r>
       <r>   14.2685    0.0000 </r>
       <r>   14.4810    0.0000 </r>
       <r>   14.9081    0.0000 </r>
      </set>
     </set>
    </set>
   </array>
  </eigenvalues>
  <separator name="orbital magnetization" >
   <v name="MAGDIPOLOUT">      0.00000000      0.00000000      0.00000000</v>
  </separator>
  <dos>
   <i name="efermi">      9.42399034 </i>
   <total>
    <array>
     <dimension dim="1">gridpoints</dimension>
     <dimension dim="2">spin</dimension>
     <field>energy</field>
     <field>total</field>
     <field>integrated</field>
     <set>
      <set comment="spin 1">
       <r>    -1.4690     0.0000     0.0000 </r>
       <r>    -1.4048     0.0000     0.0000 </r>
       <r>    -1.3406     0.0000     0.0000 </r>
       <r>    -1.2763     0.0000     0.0000 </r>
       <r>    -1.2121     0.0000     0.0000 </r>
       <r>    -1.1478     0.0000     0.0000 </r>
       <r>    -1.0836     0.0000     0.0000 </r>
       <r>    -1.0194     0.0000     0.0000 </r>
       <r>    -0.9551     0.0000     0.0000 </r>
       <r>    -0.8909     0.0000     0.0000 </r>
       <r>    -0.8266     0.0000     0.0000 </r>
       <r>    -0.7624     0.0000     0.0000 </r>
       <r>    -0.6982     0.0000     0.0000 </r>
       <r>    -0.6339     0.0000     0.0000 </r>
       <r>    -0.5697     0.0000     0.0000 </r>
       <r>    -0.5055     0.0000     0.0000 </r>
       <r>    -0.4412     0.0603     0.0006 </r>
       <r>    -0.3770     0.5411     0.0191 </r>
       <r>    -0.3127     0.7472     0.0623 </r>
       <r>    -0.2485     0.9522     0.1163 </r>
       <r>    -0.1843     1.2003     0.1853 </r>
       <r>    -0.1200     1.4830     0.2712 </r>
       <r>    -0.0558     1.7495     0.3776 </r>
       <r>     0.0085     1.8010     0.4915 </r>
       <r>     0.0727     1.9021     0.6123 </r>
       <r>     0.1369     1.9292     0.7367 </r>
       <r>     0.2012     1.6227     0.8521 </r>
       <r>     0.2654     1.4304     0.9498 </r>
       <r>     0.3297     1.3142     1.0377 </r>
       <r>     0.3939     1.3105     1.1210 </r>
       <r>     0.4581     1.4416     1.2083 </r>
       <r>     0.5224     1.7420     1.3104 </r>
       <r>     0.5866     2.0388     1.4312 </r>
       <r>     0.6509     2.6082     1.5819 </r>
       <r>     0.7151     2.5132     1.7490 </r>
       <r>     0.7793     2.4797     1.9086 </r>
       <r>     0.8436     2.9928     2.0780 </r>
       <r>     0.9078     2.9476     2.2673 </r>
       <r>     0.9721     3.0923     2.4612 </r>
       <r>     1.0363     3.2570     2.6643 </r>
       <r>     1.1005     3.5619     2.8899 </r>
       <r>     1.1648     3.6839     3.1266 </r>
       <r>     1.2290     3.1436     3.3475 </r>
       <r>     1.2933     3.3869     3.5545 </r>
       <r>     1.3575     3.9965     3.7881 </r>
       <r>     1.4217     6.2000     4.1181 </r>
       <r>     1.4860     5.5548     4.4915 </r>
       <r>     1.5502     4.3517     4.8092 </r>
       <r>     1.6145     3.7120     5.0371 </r>
       <r>     1.6787     4.3478     5.3076 </r>
       <r>     1.7429     4.5561     5.5904 </r>
       <r>     1.8072     5.3585     5.9110 </r>
       <r>     1.8714     5.6970     6.2724 </r>
       <r>     1.9357     6.0113     6.6475 </r>
       <r>     1.9999     6.5888     7.0480 </r>
       <r>     2.0641     8.5403     7.5298 </r>
       <r>     2.1284    11.6553     8.1770 </r>
       <r>     2.1926    12.1476     8.9421 </r>
       <r>     2.2569    12.9425     9.7382 </r>
       <r>     2.3211    16.0842    10.7121 </r>
       <r>     2.3853    17.2584    11.7887 </r>
       <r>     2.4496    20.5664    13.0113 </r>
       <r>     2.5138    17.6172    14.2357 </r>
       <r>     2.5781    20.5189    15.4417 </r>
       <r>     2.6423    22.7555    16.8689 </r>
       <r>     2.7065    25.8549    18.3662 </r>
       <r>     2.7708    25.9555    20.0594 </r>
       <r>     2.8350    30.3829    21.8447 </r>
       <r>     2.8992    29.1642    23.7275 </r>
       <r>     2.9635    30.7159    25.6590 </r>
       <r>     3.0277    30.7307    27.5749 </r>
       <r>     3.0920    33.9633    29.6324 </r>
       <r>     3.1562    36.0060    31.8695 </r>
       <r>     3.2204    38.0673    34.2500 </r>
       <r>     3.2847    40.0886    36.7501 </r>
       <r>     3.3489    42.5739    39.4290 </r>
       <r>     3.4132    44.3910    42.2806 </r>
       <r>     3.4774    45.1478    45.1688 </r>
       <r>     3.5416    42.1933    48.0257 </r>
       <r>     3.6059    41.8148    50.7932 </r>
       <r>     3.6701    44.0548    53.4694 </r>
       <r>     3.7344    39.4481    55.9888 </r>
       <r>     3.7986    40.6524    58.5385 </r>
       <r>     3.8628    41.1363    61.0728 </r>
       <r>     3.9271    40.6180    63.6831 </r>
       <r>     3.9913    40.0801    66.3030 </r>
       <r>     4.0556    38.4342    68.8708 </r>
       <r>     4.1198    37.2243    71.3337 </r>
       <r>     4.1840    36.2595    73.6673 </r>
       <r>     4.2483    33.3391    75.9390 </r>
       <r>     4.3125    32.8126    78.0418 </r>
       <r>     4.3768    29.0498    80.0726 </r>
       <r>     4.4410    25.0274    81.7914 </r>
       <r>     4.5052    31.4830    83.5837 </r>
       <r>     4.5695    36.7836    85.7647 </r>
       <r>     4.6337    29.9005    87.8794 </r>
       <r>     4.6980    39.8286    90.1142 </r>
       <r>     4.7622    39.4882    92.7161 </r>
       <r>     4.8264    39.7184    95.2843 </r>
       <r>     4.8907    37.0607    97.5971 </r>
       <r>     4.9549    39.9631   100.0602 </r>
       <r>     5.0192    35.8939   102.5081 </r>
       <r>     5.0834    33.6199   104.7549 </r>
       <r>     5.1476    35.8588   107.0436 </r>
       <r>     5.2119    38.6898   109.3864 </r>
       <r>     5.2761    36.3413   111.6967 </r>
       <r>     5.3404    38.5401   114.0506 </r>
       <r>     5.4046    37.1693   116.4824 </r>
       <r>     5.4688    37.9450   118.8957 </r>
       <r>     5.5331    40.3514   121.3797 </r>
       <r>     5.5973    39.6019   123.9649 </r>
       <r>     5.6616    40.4302   126.5373 </r>
       <r>     5.7258    40.9932   129.1422 </r>
       <r>     5.7900    41.5835   131.7944 </r>
       <r>     5.8543    44.3586   134.6117 </r>
       <r>     5.9185    41.3348   137.2792 </r>
       <r>     5.9827    42.9692   139.9164 </r>
       <r>     6.0470    46.8619   142.7241 </r>
       <r>     6.1112    44.8734   145.6119 </r>
       <r>     6.1755    49.4542   148.6139 </r>
       <r>     6.2397    49.7904   151.8060 </r>
       <r>     6.3039    47.7800   154.9815 </r>
       <r>     6.3682    50.6442   158.1312 </r>
       <r>     6.4324    55.3033   161.5300 </r>
       <r>     6.4967    61.6971   165.2849 </r>
       <r>     6.5609    58.6249   169.0784 </r>
       <r>     6.6251    71.1930   172.9594 </r>
       <r>     6.6894    63.2199   177.3801 </r>
       <r>     6.7536    55.6523   181.2275 </r>
       <r>     6.8179    45.1071   184.3636 </r>
       <r>     6.8821    38.9303   187.0847 </r>
       <r>     6.9463    36.6240   189.5187 </r>
       <r>     7.0106    40.8360   191.9705 </r>
       <r>     7.0748    42.5824   194.6304 </r>
       <r>     7.1391    35.8173   197.1274 </r>
       <r>     7.2033    30.6481   199.3631 </r>
       <r>     7.2675    36.7726   201.4778 </r>
       <r>     7.3318    35.0896   203.7728 </r>
       <r>     7.3960    35.3406   206.0599 </r>
       <r>     7.4603    34.2115   208.2948 </r>
       <r>     7.5245    31.6917   210.3948 </r>
       <r>     7.5887    31.7632   212.4116 </r>
       <r>     7.6530    32.4583   214.4008 </r>
       <r>     7.7172    34.6544   216.3818 </r>
       <r>     7.7815    34.0373   218.4827 </r>
       <r>     7.8457    37.6891   220.8462 </r>
       <r>     7.9099    37.9005   223.3311 </r>
       <r>     7.9742    38.8892   225.6802 </r>
       <r>     8.0384    36.5033   228.1904 </r>
       <r>     8.1027    38.1543   230.4938 </r>
       <r>     8.1669    39.3034   233.0029 </r>
       <r>     8.2311    42.3317   235.6724 </r>
       <r>     8.2954    39.4298   238.3178 </r>
       <r>     8.3596    37.2462   240.7198 </r>
       <r>     8.4239    37.5376   243.1317 </r>
       <r>     8.4881    37.0191   245.5459 </r>
       <r>     8.5523    35.3040   247.8310 </r>
       <r>     8.6166    35.2633   250.1061 </r>
       <r>     8.6808    36.8260   252.3957 </r>
       <r>     8.7451    34.0347   254.6445 </r>
       <r>     8.8093    33.4583   256.8378 </r>
       <r>     8.8735    30.2430   258.8636 </r>
       <r>     8.9378    31.5465   260.8165 </r>
       <r>     9.0020    32.5542   262.8520 </r>
       <r>     9.0663    31.0877   264.8887 </r>
       <r>     9.1305    30.4753   266.8255 </r>
       <r>     9.1947    31.3722   268.8280 </r>
       <r>     9.2590    31.7091   270.8323 </r>
       <r>     9.3232    32.6057   272.8778 </r>
       <r>     9.3874    29.4499   274.8930 </r>
       <r>     9.4517    32.3045   276.8722 </r>
       <r>     9.5159    36.4611   279.0788 </r>
       <r>     9.5802    34.2730   281.3639 </r>
       <r>     9.6444    29.8900   283.3791 </r>
       <r>     9.7086    26.2774   285.1605 </r>
       <r>     9.7729    26.4569   286.8862 </r>
       <r>     9.8371    28.6874   288.6337 </r>
       <r>     9.9014    31.6676   290.5730 </r>
       <r>     9.9656    34.1558   292.7380 </r>
       <r>    10.0298    36.9966   294.8517 </r>
       <r>    10.0941    39.6216   297.2839 </r>
       <r>    10.1583    37.3065   299.7138 </r>
       <r>    10.2226    42.5624   302.2341 </r>
       <r>    10.2868    47.1554   305.1058 </r>
       <r>    10.3510    53.7802   308.3690 </r>
       <r>    10.4153    57.7830   311.9970 </r>
       <r>    10.4795    58.2253   315.7531 </r>
       <r>    10.5438    54.9908   319.4418 </r>
       <r>    10.6080    50.0708   322.8090 </r>
       <r>    10.6722    46.3889   325.9273 </r>
       <r>    10.7365    40.9505   328.7148 </r>
       <r>    10.8007    35.6447   331.1419 </r>
       <r>    10.8650    26.4473   333.0709 </r>
       <r>    10.9292    27.9011   334.8696 </r>
       <r>    10.9934    23.7245   336.5250 </r>
       <r>    11.0577    19.8483   337.9592 </r>
       <r>    11.1219    13.7238   339.0527 </r>
       <r>    11.1862    10.7075   339.8054 </r>
       <r>    11.2504     9.9294   340.4658 </r>
       <r>    11.3146     8.4205   341.0724 </r>
       <r>    11.3789     7.9566   341.5969 </r>
       <r>    11.4431     7.5508   342.0913 </r>
       <r>    11.5074     8.1817   342.5912 </r>
       <r>    11.5716     8.9143   343.1414 </r>
       <r>    11.6358    10.3610   343.7367 </r>
       <r>    11.7001    10.2195   344.4148 </r>
       <r>    11.7643     8.8195   345.0112 </r>
       <r>    11.8286     8.4219   345.5693 </r>
       <r>    11.8928     8.0385   346.0945 </r>
       <r>    11.9570     7.8659   346.5973 </r>
       <r>    12.0213     8.0949   347.1102 </r>
       <r>    12.0855     8.2711   347.6348 </r>
       <r>    12.1498     8.4218   348.1720 </r>
       <r>    12.2140     8.4176   348.7134 </r>
       <r>    12.2782     8.6913   349.2614 </r>
       <r>    12.3425     8.3215   349.8103 </r>
       <r>    12.4067     7.5798   350.3186 </r>
       <r>    12.4710     7.2540   350.7971 </r>
       <r>    12.5352     6.8492   351.2477 </r>
       <r>    12.5994     7.5481   351.7029 </r>
       <r>    12.6637     7.2533   352.1886 </r>
       <r>    12.7279     6.6301   352.6343 </r>
       <r>    12.7921     5.8107   353.0330 </r>
       <r>    12.8564     6.0623   353.4085 </r>
       <r>    12.9206     7.1952   353.8277 </r>
       <r>    12.9849     7.4799   354.2967 </r>
       <r>    13.0491     7.5102   354.7810 </r>
       <r>    13.1133     6.5566   355.2344 </r>
       <r>    13.1776     5.6547   355.6307 </r>
       <r>    13.2418     5.0792   355.9735 </r>
       <r>    13.3061     4.5885   356.2832 </r>
       <r>    13.3703     4.3358   356.5677 </r>
       <r>    13.4345     4.1994   356.8458 </r>
       <r>    13.4988     3.4912   357.0889 </r>
       <r>    13.5630     3.3640   357.3086 </r>
       <r>    13.6273     3.3625   357.5234 </r>
       <r>    13.6915     3.4095   357.7419 </r>
       <r>    13.7557     3.1313   357.9539 </r>
       <r>    13.8200     2.9038   358.1482 </r>
       <r>    13.8842     2.5991   358.3245 </r>
       <r>    13.9485     2.4562   358.4899 </r>
       <r>    14.0127     2.1467   358.6348 </r>
       <r>    14.0769     1.9996   358.7680 </r>
       <r>    14.1412     1.8578   358.8918 </r>
       <r>    14.2054     1.7350   359.0072 </r>
       <r>    14.2697     1.5802   359.1143 </r>
       <r>    14.3339     1.4279   359.2101 </r>
       <r>    14.3981     1.3842   359.3005 </r>
       <r>    14.4624     1.2923   359.3867 </r>
       <r>    14.5266     1.0919   359.4627 </r>
       <r>    14.5909     0.9948   359.5293 </r>
       <r>    14.6551     0.9266   359.5910 </r>
       <r>    14.7193     0.8669   359.6485 </r>
       <r>    14.7836     0.8090   359.7024 </r>
       <r>    14.8478     0.7377   359.7522 </r>
       <r>    14.9121     0.6346   359.7965 </r>
       <r>    14.9763     0.5053   359.8326 </r>
       <r>    15.0405     0.4201   359.8623 </r>
       <r>    15.1048     0.3400   359.8866 </r>
       <r>    15.1690     0.2841   359.9066 </r>
       <r>    15.2333     0.2356   359.9231 </r>
       <r>    15.2975     0.1996   359.9371 </r>
       <r>    15.3617     0.1589   359.9488 </r>
       <r>    15.4260     0.1273   359.9577 </r>
       <r>    15.4902     0.1096   359.9653 </r>
       <r>    15.5545     0.0943   359.9718 </r>
       <r>    15.6187     0.0811   359.9775 </r>
       <r>    15.6829     0.0693   359.9823 </r>
       <r>    15.7472     0.0582   359.9864 </r>
       <r>    15.8114     0.0478   359.9898 </r>
       <r>    15.8756     0.0382   359.9925 </r>
       <r>    15.9399     0.0294   359.9947 </r>
       <r>    16.0041     0.0217   359.9963 </r>
       <r>    16.0684     0.0154   359.9975 </r>
       <r>    16.1326     0.0105   359.9983 </r>
       <r>    16.1968     0.0069   359.9989 </r>
       <r>    16.2611     0.0044   359.9993 </r>
       <r>    16.3253     0.0032   359.9995 </r>
       <r>    16.3896     0.0024   359.9997 </r>
       <r>    16.4538     0.0017   359.9998 </r>
       <r>    16.5180     0.0011   359.9999 </r>
       <r>    16.5823     0.0007   360.0000 </r>
       <r>    16.6465     0.0003   360.0000 </r>
       <r>    16.7108     0.0001   360.0000 </r>
       <r>    16.7750     0.0000   360.0000 </r>
       <r>    16.8392     0.0000   360.0000 </r>
       <r>    16.9035     0.0000   360.0000 </r>
       <r>    16.9677     0.0000   360.0000 </r>
       <r>    17.0320     0.0000   360.0000 </r>
       <r>    17.0962     0.0000   360.0000 </r>
       <r>    17.1604     0.0000   360.0000 </r>
       <r>    17.2247     0.0000   360.0000 </r>
       <r>    17.2889     0.0000   360.0000 </r>
       <r>    17.3532     0.0000   360.0000 </r>
       <r>    17.4174     0.0000   360.0000 </r>
       <r>    17.4816     0.0000   360.0000 </r>
       <r>    17.5459     0.0000   360.0000 </r>
       <r>    17.6101     0.0000   360.0000 </r>
       <r>    17.6744     0.0000   360.0000 </r>
       <r>    17.7386     0.0000   360.0000 </r>
       <r>    17.8028     0.0000   360.0000 </r>
      </set>
     </set>
    </array>
   </total>
  </dos>
 </calculation>
 <structure name="finalpos" >
  <crystal>
   <varray name="basis" >
    <v>      -7.69529516      -3.84976088       3.85127810 </v>
    <v>       7.69794704      -3.85311052       3.85323399 </v>
    <v>      -0.00034847       3.85100508       3.85182546 </v>
   </varray>
   <i name="volume">    456.71924793 </i>
   <varray name="rec_basis" >
    <v>      -0.06498595      -0.06492499       0.06490528 </v>
    <v>       0.06494121      -0.06489674       0.06488880 </v>
    <v>       0.00001176       0.12983624       0.12980858 </v>
   </varray>
  </crystal>
  <varray name="positions" >
   <v>       0.49970084       0.49834261       0.49939755 </v>
   <v>       0.25130310       0.75056229       0.49789593 </v>
   <v>       0.99970429       0.49837938       0.99936223 </v>
   <v>       0.74904600       0.75045774       0.99937815 </v>
   <v>       0.99947079       0.75042875       0.74932530 </v>
   <v>       0.24944151       0.49785194       0.75079103 </v>
   <v>       0.00089809       0.24966651       0.25077613 </v>
   <v>       0.74863922       0.49751419       0.25080486 </v>
   <v>       0.00074486       0.75178654       0.25056042 </v>
   <v>       0.74909659       0.00066649       0.25086297 </v>
   <v>       0.50075981       0.75178304       0.75058894 </v>
   <v>       0.25139272       0.00253243       0.75092167 </v>
   <v>       0.00092448       0.00211189       0.99928317 </v>
   <v>       0.74816532       0.24883777       0.99776715 </v>
   <v>       0.49911593       0.49796934       0.00059386 </v>
   <v>       0.25179755       0.75114630       0.00157255 </v>
   <v>       0.50090698       0.00205237       0.49931960 </v>
   <v>       0.25005866       0.24908389       0.49907789 </v>
   <v>       0.99911050       0.49790691       0.50057819 </v>
   <v>       0.74961847       0.75093634       0.50033517 </v>
   <v>       0.00005307       0.00134723       0.50100973 </v>
   <v>       0.74892177       0.24955456       0.50262756 </v>
   <v>       0.50009120       0.00134137       0.00092389 </v>
   <v>       0.25097640       0.24973927       0.00097351 </v>
   <v>       0.75055026       0.00188066       0.74926757 </v>
   <v>       0.50078318       0.24958633       0.75092995 </v>
   <v>       0.49958670       0.75049750       0.24927239 </v>
   <v>       0.25144888       0.00206704       0.24916006 </v>
   <v>       0.49905823       0.24839925       0.24890797 </v>
   <v>       0.25071030       0.49944292       0.24936098 </v>
   <v>       0.99905423       0.24827927       0.74902915 </v>
   <v>       0.74887010       0.49784786       0.74934450 </v>
  </varray>
 </structure>
</modeling>
