 256 256   0   0
  0.1418917E+02  0.1588033E-08  0.1692661E-08  0.1693229E-08  0.5000000E-15
  1.000000000000000E-004
  CAR 
 Ir_Ru                                   
     14.28086637     -1.29214079  301      9.45705615      1.00000000
     -1.292  0.0000E+00  0.0000E+00
     -1.240  0.0000E+00  0.0000E+00
     -1.188  0.0000E+00  0.0000E+00
     -1.136 -0.2820E-30 -0.1464E-31
     -1.085 -0.1295E-26 -0.6723E-28
     -1.033 -0.3455E-23 -0.1794E-24
     -0.981 -0.5350E-20 -0.2779E-21
     -0.929 -0.4806E-17 -0.2497E-18
     -0.877 -0.2442E-14 -0.1270E-15
     -0.825 -0.7275E-12 -0.3789E-13
     -0.773 -0.1256E-09 -0.6559E-11
     -0.721 -0.1248E-07 -0.6542E-09
     -0.669 -0.7095E-06 -0.3748E-07
     -0.617 -0.2298E-04 -0.1230E-05
     -0.565 -0.4208E-03 -0.2307E-04
     -0.513 -0.4314E-02 -0.2470E-03
     -0.462 -0.2450E-01 -0.1519E-02
     -0.410 -0.7555E-01 -0.5441E-02
     -0.358 -0.1017E+00 -0.1072E-01
     -0.306  0.2107E+00  0.2221E-03
     -0.254  0.1656E+01  0.8620E-01
     -0.202  0.4421E+01  0.3157E+00
     -0.150  0.6361E+01  0.6459E+00
     -0.098  0.6421E+01  0.9792E+00
     -0.046  0.6976E+01  0.1341E+01
      0.006  0.8882E+01  0.1802E+01
      0.058  0.1121E+02  0.2384E+01
      0.109  0.1363E+02  0.3092E+01
      0.161  0.1433E+02  0.3836E+01
      0.213  0.1166E+02  0.4441E+01
      0.265  0.1009E+02  0.4965E+01
      0.317  0.1436E+02  0.5710E+01
      0.369  0.2041E+02  0.6769E+01
      0.421  0.2252E+02  0.7938E+01
      0.473  0.2271E+02  0.9117E+01
      0.525  0.2352E+02  0.1034E+02
      0.577  0.2249E+02  0.1151E+02
      0.629  0.2043E+02  0.1257E+02
      0.680  0.2103E+02  0.1366E+02
      0.732  0.2033E+02  0.1471E+02
      0.784  0.1447E+02  0.1546E+02
      0.836  0.8802E+01  0.1592E+02
      0.888  0.8043E+01  0.1634E+02
      0.940  0.1178E+02  0.1695E+02
      0.992  0.1904E+02  0.1794E+02
      1.044  0.2798E+02  0.1939E+02
      1.096  0.3340E+02  0.2113E+02
      1.148  0.3304E+02  0.2284E+02
      1.200  0.2872E+02  0.2433E+02
      1.251  0.2273E+02  0.2551E+02
      1.303  0.1946E+02  0.2652E+02
      1.355  0.2176E+02  0.2765E+02
      1.407  0.2725E+02  0.2907E+02
      1.459  0.3035E+02  0.3064E+02
      1.511  0.2980E+02  0.3219E+02
      1.563  0.2935E+02  0.3371E+02
      1.615  0.3044E+02  0.3529E+02
      1.667  0.3113E+02  0.3691E+02
      1.719  0.3206E+02  0.3857E+02
      1.771  0.3506E+02  0.4039E+02
      1.822  0.3918E+02  0.4242E+02
      1.874  0.4565E+02  0.4479E+02
      1.926  0.5482E+02  0.4764E+02
      1.978  0.5933E+02  0.5072E+02
      2.030  0.5463E+02  0.5356E+02
      2.082  0.5057E+02  0.5618E+02
      2.134  0.6203E+02  0.5940E+02
      2.186  0.8745E+02  0.6394E+02
      2.238  0.1091E+03  0.6960E+02
      2.290  0.1198E+03  0.7582E+02
      2.342  0.1258E+03  0.8236E+02
      2.393  0.1316E+03  0.8919E+02
      2.445  0.1376E+03  0.9633E+02
      2.497  0.1474E+03  0.1040E+03
      2.549  0.1648E+03  0.1125E+03
      2.601  0.1833E+03  0.1220E+03
      2.653  0.1951E+03  0.1322E+03
      2.705  0.2070E+03  0.1429E+03
      2.757  0.2239E+03  0.1545E+03
      2.809  0.2307E+03  0.1665E+03
      2.861  0.2245E+03  0.1782E+03
      2.913  0.2281E+03  0.1900E+03
      2.964  0.2457E+03  0.2028E+03
      3.016  0.2581E+03  0.2162E+03
      3.068  0.2599E+03  0.2297E+03
      3.120  0.2605E+03  0.2432E+03
      3.172  0.2642E+03  0.2569E+03
      3.224  0.2733E+03  0.2711E+03
      3.276  0.2883E+03  0.2860E+03
      3.328  0.3076E+03  0.3020E+03
      3.380  0.3244E+03  0.3189E+03
      3.432  0.3307E+03  0.3360E+03
      3.484  0.3277E+03  0.3530E+03
      3.535  0.3212E+03  0.3697E+03
      3.587  0.3181E+03  0.3862E+03
      3.639  0.3164E+03  0.4026E+03
      3.691  0.3107E+03  0.4188E+03
      3.743  0.3049E+03  0.4346E+03
      3.795  0.3010E+03  0.4502E+03
      3.847  0.2967E+03  0.4656E+03
      3.899  0.2931E+03  0.4808E+03
      3.951  0.2883E+03  0.4958E+03
      4.003  0.2757E+03  0.5101E+03
      4.055  0.2664E+03  0.5239E+03
      4.107  0.2762E+03  0.5383E+03
      4.158  0.2947E+03  0.5536E+03
      4.210  0.3028E+03  0.5693E+03
      4.262  0.3052E+03  0.5851E+03
      4.314  0.3123E+03  0.6014E+03
      4.366  0.3188E+03  0.6179E+03
      4.418  0.3214E+03  0.6346E+03
      4.470  0.3237E+03  0.6514E+03
      4.522  0.3208E+03  0.6680E+03
      4.574  0.3091E+03  0.6841E+03
      4.626  0.2969E+03  0.6995E+03
      4.678  0.2935E+03  0.7147E+03
      4.729  0.2984E+03  0.7302E+03
      4.781  0.3063E+03  0.7461E+03
      4.833  0.3183E+03  0.7626E+03
      4.885  0.3316E+03  0.7799E+03
      4.937  0.3377E+03  0.7974E+03
      4.989  0.3454E+03  0.8153E+03
      5.041  0.3586E+03  0.8339E+03
      5.093  0.3656E+03  0.8529E+03
      5.145  0.3638E+03  0.8718E+03
      5.197  0.3543E+03  0.8902E+03
      5.249  0.3335E+03  0.9075E+03
      5.300  0.3009E+03  0.9231E+03
      5.352  0.2597E+03  0.9366E+03
      5.404  0.2167E+03  0.9478E+03
      5.456  0.1836E+03  0.9574E+03
      5.508  0.1730E+03  0.9664E+03
      5.560  0.1908E+03  0.9763E+03
      5.612  0.2297E+03  0.9882E+03
      5.664  0.2781E+03  0.1003E+04
      5.716  0.3278E+03  0.1020E+04
      5.768  0.3690E+03  0.1039E+04
      5.820  0.3959E+03  0.1059E+04
      5.871  0.4108E+03  0.1081E+04
      5.923  0.4195E+03  0.1102E+04
      5.975  0.4259E+03  0.1125E+04
      6.027  0.4279E+03  0.1147E+04
      6.079  0.4154E+03  0.1168E+04
      6.131  0.3909E+03  0.1189E+04
      6.183  0.3711E+03  0.1208E+04
      6.235  0.3608E+03  0.1227E+04
      6.287  0.3553E+03  0.1245E+04
      6.339  0.3570E+03  0.1264E+04
      6.391  0.3701E+03  0.1283E+04
      6.442  0.3822E+03  0.1303E+04
      6.494  0.3842E+03  0.1323E+04
      6.546  0.3922E+03  0.1343E+04
      6.598  0.4107E+03  0.1364E+04
      6.650  0.4243E+03  0.1386E+04
      6.702  0.4282E+03  0.1409E+04
      6.754  0.4250E+03  0.1431E+04
      6.806  0.4125E+03  0.1452E+04
      6.858  0.3910E+03  0.1472E+04
      6.910  0.3728E+03  0.1492E+04
      6.962  0.3662E+03  0.1511E+04
      7.013  0.3635E+03  0.1530E+04
      7.065  0.3688E+03  0.1549E+04
      7.117  0.3925E+03  0.1569E+04
      7.169  0.4155E+03  0.1591E+04
      7.221  0.4225E+03  0.1613E+04
      7.273  0.4223E+03  0.1634E+04
      7.325  0.4125E+03  0.1656E+04
      7.377  0.3864E+03  0.1676E+04
      7.429  0.3576E+03  0.1694E+04
      7.481  0.3396E+03  0.1712E+04
      7.533  0.3323E+03  0.1729E+04
      7.584  0.3283E+03  0.1746E+04
      7.636  0.3160E+03  0.1763E+04
      7.688  0.2945E+03  0.1778E+04
      7.740  0.2768E+03  0.1792E+04
      7.792  0.2683E+03  0.1806E+04
      7.844  0.2633E+03  0.1820E+04
      7.896  0.2571E+03  0.1833E+04
      7.948  0.2480E+03  0.1846E+04
      8.000  0.2428E+03  0.1859E+04
      8.052  0.2432E+03  0.1872E+04
      8.104  0.2388E+03  0.1884E+04
      8.155  0.2310E+03  0.1896E+04
      8.207  0.2292E+03  0.1908E+04
      8.259  0.2337E+03  0.1920E+04
      8.311  0.2379E+03  0.1932E+04
      8.363  0.2391E+03  0.1945E+04
      8.415  0.2367E+03  0.1957E+04
      8.467  0.2282E+03  0.1969E+04
      8.519  0.2180E+03  0.1980E+04
      8.571  0.2117E+03  0.1991E+04
      8.623  0.2067E+03  0.2002E+04
      8.675  0.1994E+03  0.2012E+04
      8.726  0.1910E+03  0.2022E+04
      8.778  0.1827E+03  0.2032E+04
      8.830  0.1794E+03  0.2041E+04
      8.882  0.1893E+03  0.2051E+04
      8.934  0.2148E+03  0.2062E+04
      8.986  0.2362E+03  0.2074E+04
      9.038  0.2358E+03  0.2086E+04
      9.090  0.2226E+03  0.2098E+04
      9.142  0.2053E+03  0.2109E+04
      9.194  0.1859E+03  0.2118E+04
      9.246  0.1792E+03  0.2128E+04
      9.298  0.1993E+03  0.2138E+04
      9.349  0.2299E+03  0.2150E+04
      9.401  0.2432E+03  0.2162E+04
      9.453  0.2429E+03  0.2175E+04
      9.505  0.2450E+03  0.2188E+04
      9.557  0.2442E+03  0.2200E+04
      9.609  0.2473E+03  0.2213E+04
      9.661  0.2774E+03  0.2228E+04
      9.713  0.3198E+03  0.2244E+04
      9.765  0.3355E+03  0.2262E+04
      9.817  0.3256E+03  0.2279E+04
      9.869  0.3163E+03  0.2295E+04
      9.920  0.3153E+03  0.2311E+04
      9.972  0.3225E+03  0.2328E+04
     10.024  0.3454E+03  0.2346E+04
     10.076  0.3828E+03  0.2366E+04
     10.128  0.4147E+03  0.2387E+04
     10.180  0.4290E+03  0.2410E+04
     10.232  0.4370E+03  0.2432E+04
     10.284  0.4502E+03  0.2456E+04
     10.336  0.4689E+03  0.2480E+04
     10.388  0.4874E+03  0.2505E+04
     10.440  0.4977E+03  0.2531E+04
     10.491  0.4884E+03  0.2557E+04
     10.543  0.4486E+03  0.2580E+04
     10.595  0.3870E+03  0.2600E+04
     10.647  0.3172E+03  0.2616E+04
     10.699  0.2320E+03  0.2629E+04
     10.751  0.1308E+03  0.2635E+04
     10.803  0.4433E+02  0.2638E+04
     10.855  0.1563E+01  0.2638E+04
     10.907 -0.5648E+01  0.2637E+04
     10.959 -0.2472E+01  0.2637E+04
     11.011 -0.5166E+00  0.2637E+04
     11.062 -0.6440E-01  0.2637E+04
     11.114 -0.5302E-02  0.2637E+04
     11.166 -0.2996E-03  0.2637E+04
     11.218 -0.1129E-04  0.2637E+04
     11.270 -0.2678E-06  0.2637E+04
     11.322 -0.3832E-08  0.2637E+04
     11.374 -0.3229E-10  0.2637E+04
     11.426 -0.1582E-12  0.2637E+04
     11.478 -0.2980E-12  0.2637E+04
     11.530 -0.6015E-10  0.2637E+04
     11.582 -0.6992E-08  0.2637E+04
     11.633 -0.4649E-06  0.2637E+04
     11.685 -0.1756E-04  0.2637E+04
     11.737 -0.3716E-03  0.2637E+04
     11.789 -0.4302E-02  0.2637E+04
     11.841 -0.2574E-01  0.2637E+04
     11.893 -0.6527E-01  0.2637E+04
     11.945  0.2897E-01  0.2637E+04
     11.997  0.5433E+00  0.2637E+04
     12.049  0.1355E+01  0.2637E+04
     12.101  0.1841E+01  0.2637E+04
     12.153  0.1655E+01  0.2637E+04
     12.204  0.1333E+01  0.2638E+04
     12.256  0.1900E+01  0.2638E+04
     12.308  0.3130E+01  0.2638E+04
     12.360  0.3520E+01  0.2638E+04
     12.412  0.2822E+01  0.2638E+04
     12.464  0.2136E+01  0.2638E+04
     12.516  0.1949E+01  0.2638E+04
     12.568  0.2281E+01  0.2638E+04
     12.620  0.3102E+01  0.2639E+04
     12.672  0.4149E+01  0.2639E+04
     12.724  0.4312E+01  0.2639E+04
     12.775  0.2986E+01  0.2639E+04
     12.827  0.1983E+01  0.2639E+04
     12.879  0.2192E+01  0.2639E+04
     12.931  0.2154E+01  0.2640E+04
     12.983  0.1509E+01  0.2640E+04
     13.035  0.1099E+01  0.2640E+04
     13.087  0.9412E+00  0.2640E+04
     13.139  0.8451E+00  0.2640E+04
     13.191  0.9566E+00  0.2640E+04
     13.243  0.1091E+01  0.2640E+04
     13.295  0.1046E+01  0.2640E+04
     13.346  0.6637E+00  0.2640E+04
     13.398  0.1645E+00  0.2640E+04
     13.450 -0.4158E-01  0.2640E+04
     13.502 -0.3284E-01  0.2640E+04
     13.554 -0.7304E-02  0.2640E+04
     13.606 -0.7795E-03  0.2640E+04
     13.658 -0.4428E-04  0.2640E+04
     13.710 -0.1393E-05  0.2640E+04
     13.762 -0.2471E-07  0.2640E+04
     13.814 -0.2500E-09  0.2640E+04
     13.866 -0.1451E-11  0.2640E+04
     13.917 -0.5228E-14  0.2640E+04
     13.969  0.0000E+00  0.2640E+04
     14.021  0.0000E+00  0.2640E+04
     14.073  0.0000E+00  0.2640E+04
     14.125  0.0000E+00  0.2640E+04
     14.177  0.0000E+00  0.2640E+04
     14.229  0.0000E+00  0.2640E+04
     14.281  0.0000E+00  0.2640E+04
