 256 256   0   0
  0.1419206E+02  0.1537080E-08  0.1537218E-08  0.1537636E-08  0.5000000E-15
  1.000000000000000E-004
  CAR 
 Ir_Ru                                   
     12.68490283     -1.29501019  301      9.24210223      1.00000000
     -1.295  0.0000E+00  0.0000E+00
     -1.248  0.0000E+00  0.0000E+00
     -1.202  0.0000E+00  0.0000E+00
     -1.155  0.0000E+00  0.0000E+00
     -1.109 -0.2750E-28 -0.1281E-29
     -1.062 -0.4102E-25 -0.1913E-26
     -1.015 -0.3948E-22 -0.1842E-23
     -0.969 -0.2452E-19 -0.1144E-20
     -0.922 -0.9822E-17 -0.4589E-18
     -0.876 -0.2464E-14 -0.1153E-15
     -0.829 -0.4086E-12 -0.1916E-13
     -0.782 -0.4364E-10 -0.2053E-11
     -0.736 -0.3003E-08 -0.1420E-09
     -0.689 -0.1332E-06 -0.6351E-08
     -0.643 -0.3818E-05 -0.1843E-06
     -0.596 -0.7083E-04 -0.3485E-05
     -0.549 -0.8534E-03 -0.4325E-04
     -0.503 -0.6679E-02 -0.3545E-03
     -0.456 -0.3355E-01 -0.1918E-02
     -0.410 -0.1020E+00 -0.6672E-02
     -0.363 -0.1377E+00 -0.1309E-01
     -0.316  0.2238E+00 -0.2661E-02
     -0.270  0.1509E+01  0.6766E-01
     -0.223  0.3539E+01  0.2326E+00
     -0.177  0.5071E+01  0.4688E+00
     -0.130  0.5732E+01  0.7360E+00
     -0.083  0.7326E+01  0.1077E+01
     -0.037  0.1020E+02  0.1552E+01
      0.010  0.1102E+02  0.2066E+01
      0.056  0.9152E+01  0.2493E+01
      0.103  0.9381E+01  0.2930E+01
      0.150  0.1315E+02  0.3542E+01
      0.196  0.1591E+02  0.4284E+01
      0.243  0.1605E+02  0.5032E+01
      0.289  0.1673E+02  0.5811E+01
      0.336  0.1849E+02  0.6673E+01
      0.383  0.1834E+02  0.7528E+01
      0.429  0.1742E+02  0.8339E+01
      0.476  0.1977E+02  0.9260E+01
      0.522  0.2335E+02  0.1035E+02
      0.569  0.2406E+02  0.1147E+02
      0.616  0.2229E+02  0.1251E+02
      0.662  0.1874E+02  0.1338E+02
      0.709  0.1410E+02  0.1404E+02
      0.755  0.1115E+02  0.1456E+02
      0.802  0.1071E+02  0.1506E+02
      0.849  0.1116E+02  0.1558E+02
      0.895  0.1220E+02  0.1615E+02
      0.942  0.1468E+02  0.1683E+02
      0.988  0.1836E+02  0.1769E+02
      1.035  0.2288E+02  0.1875E+02
      1.082  0.2805E+02  0.2006E+02
      1.128  0.3123E+02  0.2151E+02
      1.175  0.2974E+02  0.2290E+02
      1.221  0.2592E+02  0.2411E+02
      1.268  0.2307E+02  0.2518E+02
      1.315  0.2095E+02  0.2616E+02
      1.361  0.2000E+02  0.2709E+02
      1.408  0.2160E+02  0.2810E+02
      1.454  0.2406E+02  0.2922E+02
      1.501  0.2564E+02  0.3041E+02
      1.548  0.2893E+02  0.3176E+02
      1.594  0.3506E+02  0.3340E+02
      1.641  0.3872E+02  0.3520E+02
      1.687  0.3786E+02  0.3696E+02
      1.734  0.3924E+02  0.3879E+02
      1.781  0.4548E+02  0.4091E+02
      1.827  0.4933E+02  0.4321E+02
      1.874  0.4784E+02  0.4544E+02
      1.920  0.4730E+02  0.4764E+02
      1.967  0.5090E+02  0.5002E+02
      2.014  0.5409E+02  0.5254E+02
      2.060  0.5543E+02  0.5512E+02
      2.107  0.6125E+02  0.5797E+02
      2.153  0.7438E+02  0.6144E+02
      2.200  0.8922E+02  0.6560E+02
      2.247  0.1030E+03  0.7040E+02
      2.293  0.1177E+03  0.7588E+02
      2.340  0.1310E+03  0.8199E+02
      2.386  0.1383E+03  0.8843E+02
      2.433  0.1433E+03  0.9511E+02
      2.480  0.1524E+03  0.1022E+03
      2.526  0.1611E+03  0.1097E+03
      2.573  0.1618E+03  0.1173E+03
      2.619  0.1613E+03  0.1248E+03
      2.666  0.1688E+03  0.1326E+03
      2.713  0.1784E+03  0.1410E+03
      2.759  0.1847E+03  0.1496E+03
      2.806  0.1977E+03  0.1588E+03
      2.852  0.2227E+03  0.1692E+03
      2.899  0.2474E+03  0.1807E+03
      2.946  0.2563E+03  0.1926E+03
      2.992  0.2498E+03  0.2043E+03
      3.039  0.2468E+03  0.2158E+03
      3.085  0.2621E+03  0.2280E+03
      3.132  0.2865E+03  0.2413E+03
      3.179  0.3013E+03  0.2554E+03
      3.225  0.3038E+03  0.2695E+03
      3.272  0.3049E+03  0.2837E+03
      3.318  0.3084E+03  0.2981E+03
      3.365  0.3112E+03  0.3126E+03
      3.412  0.3144E+03  0.3273E+03
      3.458  0.3216E+03  0.3423E+03
      3.505  0.3333E+03  0.3578E+03
      3.551  0.3440E+03  0.3738E+03
      3.598  0.3469E+03  0.3900E+03
      3.645  0.3449E+03  0.4060E+03
      3.691  0.3486E+03  0.4223E+03
      3.738  0.3576E+03  0.4390E+03
      3.784  0.3592E+03  0.4557E+03
      3.831  0.3522E+03  0.4721E+03
      3.878  0.3478E+03  0.4883E+03
      3.924  0.3496E+03  0.5046E+03
      3.971  0.3506E+03  0.5209E+03
      4.017  0.3415E+03  0.5369E+03
      4.064  0.3229E+03  0.5519E+03
      4.111  0.3068E+03  0.5662E+03
      4.157  0.2977E+03  0.5801E+03
      4.204  0.2875E+03  0.5935E+03
      4.250  0.2714E+03  0.6061E+03
      4.297  0.2538E+03  0.6179E+03
      4.344  0.2428E+03  0.6293E+03
      4.390  0.2452E+03  0.6407E+03
      4.437  0.2577E+03  0.6527E+03
      4.483  0.2618E+03  0.6649E+03
      4.530  0.2508E+03  0.6766E+03
      4.577  0.2477E+03  0.6881E+03
      4.623  0.2671E+03  0.7006E+03
      4.670  0.2919E+03  0.7142E+03
      4.716  0.3069E+03  0.7285E+03
      4.763  0.3138E+03  0.7431E+03
      4.810  0.3136E+03  0.7577E+03
      4.856  0.3049E+03  0.7719E+03
      4.903  0.2901E+03  0.7854E+03
      4.949  0.2785E+03  0.7984E+03
      4.996  0.2811E+03  0.8115E+03
      5.043  0.2951E+03  0.8253E+03
      5.089  0.3078E+03  0.8396E+03
      5.136  0.3093E+03  0.8540E+03
      5.182  0.2978E+03  0.8679E+03
      5.229  0.2857E+03  0.8812E+03
      5.276  0.2844E+03  0.8945E+03
      5.322  0.2903E+03  0.9080E+03
      5.369  0.2972E+03  0.9218E+03
      5.415  0.3018E+03  0.9359E+03
      5.462  0.2987E+03  0.9498E+03
      5.509  0.2888E+03  0.9633E+03
      5.555  0.2867E+03  0.9766E+03
      5.602  0.3027E+03  0.9907E+03
      5.648  0.3216E+03  0.1006E+04
      5.695  0.3253E+03  0.1021E+04
      5.742  0.3202E+03  0.1036E+04
      5.788  0.3199E+03  0.1051E+04
      5.835  0.3261E+03  0.1066E+04
      5.881  0.3366E+03  0.1082E+04
      5.928  0.3501E+03  0.1098E+04
      5.975  0.3654E+03  0.1115E+04
      6.021  0.3790E+03  0.1133E+04
      6.068  0.3855E+03  0.1151E+04
      6.114  0.3874E+03  0.1169E+04
      6.161  0.3915E+03  0.1187E+04
      6.208  0.3985E+03  0.1205E+04
      6.254  0.4095E+03  0.1225E+04
      6.301  0.4271E+03  0.1244E+04
      6.347  0.4463E+03  0.1265E+04
      6.394  0.4572E+03  0.1287E+04
      6.441  0.4571E+03  0.1308E+04
      6.487  0.4531E+03  0.1329E+04
      6.534  0.4500E+03  0.1350E+04
      6.580  0.4456E+03  0.1371E+04
      6.627  0.4391E+03  0.1391E+04
      6.674  0.4318E+03  0.1411E+04
      6.720  0.4249E+03  0.1431E+04
      6.767  0.4172E+03  0.1450E+04
      6.813  0.4018E+03  0.1469E+04
      6.860  0.3770E+03  0.1487E+04
      6.907  0.3544E+03  0.1503E+04
      6.953  0.3442E+03  0.1519E+04
      7.000  0.3392E+03  0.1535E+04
      7.046  0.3277E+03  0.1550E+04
      7.093  0.3149E+03  0.1565E+04
      7.140  0.3135E+03  0.1580E+04
      7.186  0.3194E+03  0.1595E+04
      7.233  0.3135E+03  0.1609E+04
      7.279  0.2876E+03  0.1623E+04
      7.326  0.2560E+03  0.1635E+04
      7.373  0.2402E+03  0.1646E+04
      7.419  0.2486E+03  0.1657E+04
      7.466  0.2711E+03  0.1670E+04
      7.512  0.2846E+03  0.1683E+04
      7.559  0.2765E+03  0.1696E+04
      7.606  0.2585E+03  0.1708E+04
      7.652  0.2483E+03  0.1720E+04
      7.699  0.2571E+03  0.1732E+04
      7.745  0.2828E+03  0.1745E+04
      7.792  0.3054E+03  0.1759E+04
      7.839  0.3120E+03  0.1774E+04
      7.885  0.3087E+03  0.1788E+04
      7.932  0.3030E+03  0.1802E+04
      7.978  0.2961E+03  0.1816E+04
      8.025  0.2912E+03  0.1829E+04
      8.072  0.2959E+03  0.1843E+04
      8.118  0.3092E+03  0.1858E+04
      8.165  0.3170E+03  0.1872E+04
      8.211  0.3176E+03  0.1887E+04
      8.258  0.3296E+03  0.1903E+04
      8.305  0.3535E+03  0.1919E+04
      8.351  0.3624E+03  0.1936E+04
      8.398  0.3400E+03  0.1952E+04
      8.444  0.3002E+03  0.1966E+04
      8.491  0.2670E+03  0.1978E+04
      8.538  0.2557E+03  0.1990E+04
      8.584  0.2708E+03  0.2003E+04
      8.631  0.2954E+03  0.2017E+04
      8.677  0.3003E+03  0.2031E+04
      8.724  0.2842E+03  0.2044E+04
      8.771  0.2676E+03  0.2056E+04
      8.817  0.2569E+03  0.2068E+04
      8.864  0.2490E+03  0.2080E+04
      8.910  0.2451E+03  0.2091E+04
      8.957  0.2453E+03  0.2103E+04
      9.004  0.2534E+03  0.2115E+04
      9.050  0.2734E+03  0.2127E+04
      9.097  0.2841E+03  0.2140E+04
      9.143  0.2662E+03  0.2153E+04
      9.190  0.2409E+03  0.2164E+04
      9.237  0.2283E+03  0.2175E+04
      9.283  0.2199E+03  0.2185E+04
      9.330  0.2138E+03  0.2195E+04
      9.376  0.2217E+03  0.2205E+04
      9.423  0.2423E+03  0.2217E+04
      9.470  0.2623E+03  0.2229E+04
      9.516  0.2736E+03  0.2242E+04
      9.563  0.2772E+03  0.2254E+04
      9.609  0.2762E+03  0.2267E+04
      9.656  0.2709E+03  0.2280E+04
      9.703  0.2610E+03  0.2292E+04
      9.749  0.2440E+03  0.2304E+04
      9.796  0.2244E+03  0.2314E+04
      9.842  0.2194E+03  0.2324E+04
      9.889  0.2363E+03  0.2335E+04
      9.936  0.2639E+03  0.2348E+04
      9.982  0.2950E+03  0.2361E+04
     10.029  0.3272E+03  0.2376E+04
     10.075  0.3491E+03  0.2393E+04
     10.122  0.3465E+03  0.2409E+04
     10.169  0.3241E+03  0.2424E+04
     10.215  0.3102E+03  0.2438E+04
     10.262  0.3288E+03  0.2454E+04
     10.308  0.3866E+03  0.2472E+04
     10.355  0.4659E+03  0.2494E+04
     10.402  0.5184E+03  0.2518E+04
     10.448  0.5095E+03  0.2541E+04
     10.495  0.4511E+03  0.2562E+04
     10.541  0.3746E+03  0.2580E+04
     10.588  0.3026E+03  0.2594E+04
     10.635  0.2485E+03  0.2606E+04
     10.681  0.2125E+03  0.2615E+04
     10.728  0.1811E+03  0.2624E+04
     10.774  0.1425E+03  0.2631E+04
     10.821  0.9777E+02  0.2635E+04
     10.868  0.5636E+02  0.2638E+04
     10.914  0.2672E+02  0.2639E+04
     10.961  0.1010E+02  0.2639E+04
     11.007  0.3135E+01  0.2640E+04
     11.054  0.1689E+01  0.2640E+04
     11.101  0.2005E+01  0.2640E+04
     11.147  0.1690E+01  0.2640E+04
     11.194  0.6779E+00  0.2640E+04
     11.240 -0.4104E-02  0.2640E+04
     11.287 -0.1190E+00  0.2640E+04
     11.334 -0.5109E-01  0.2640E+04
     11.380 -0.1095E-01  0.2640E+04
     11.427 -0.3441E-02  0.2640E+04
     11.473 -0.1326E-01  0.2640E+04
     11.520 -0.4255E-01  0.2640E+04
     11.567 -0.3528E-01  0.2640E+04
     11.613  0.2023E+00  0.2640E+04
     11.660  0.7191E+00  0.2640E+04
     11.706  0.1026E+01  0.2640E+04
     11.753  0.7192E+00  0.2640E+04
     11.800  0.2024E+00  0.2640E+04
     11.846 -0.3527E-01  0.2640E+04
     11.893 -0.4255E-01  0.2640E+04
     11.939 -0.1317E-01  0.2640E+04
     11.986 -0.2128E-02  0.2640E+04
     12.033 -0.2019E-03  0.2640E+04
     12.079 -0.1173E-04  0.2640E+04
     12.126 -0.4262E-06  0.2640E+04
     12.172 -0.9790E-08  0.2640E+04
     12.219 -0.1431E-09  0.2640E+04
     12.266 -0.1338E-11  0.2640E+04
     12.312 -0.8041E-14  0.2640E+04
     12.359  0.0000E+00  0.2640E+04
     12.405  0.0000E+00  0.2640E+04
     12.452  0.0000E+00  0.2640E+04
     12.499  0.0000E+00  0.2640E+04
     12.545  0.0000E+00  0.2640E+04
     12.592  0.0000E+00  0.2640E+04
     12.638  0.0000E+00  0.2640E+04
     12.685  0.0000E+00  0.2640E+04
