 256 256   0   0
  0.1418917E+02  0.1588033E-08  0.1692661E-08  0.1693229E-08  0.5000000E-15
  1.000000000000000E-004
  CAR 
 Ir_Ru                                   
     14.25687809     -1.29180020  301      9.45689683      1.00000000
     -1.292  0.0000E+00  0.0000E+00
     -1.240  0.0000E+00  0.0000E+00
     -1.188  0.0000E+00  0.0000E+00
     -1.136 -0.2711E-30 -0.1405E-31
     -1.084 -0.1232E-26 -0.6389E-28
     -1.033 -0.3260E-23 -0.1690E-24
     -0.981 -0.5014E-20 -0.2601E-21
     -0.929 -0.4481E-17 -0.2325E-18
     -0.877 -0.2265E-14 -0.1176E-15
     -0.825 -0.6750E-12 -0.3510E-13
     -0.774 -0.1166E-09 -0.6077E-11
     -0.722 -0.1160E-07 -0.6072E-09
     -0.670 -0.6621E-06 -0.3492E-07
     -0.618 -0.2157E-04 -0.1153E-05
     -0.566 -0.3978E-03 -0.2177E-04
     -0.514 -0.4117E-02 -0.2351E-03
     -0.463 -0.2365E-01 -0.1461E-02
     -0.411 -0.7398E-01 -0.5295E-02
     -0.359 -0.1030E+00 -0.1063E-01
     -0.307  0.1903E+00 -0.7671E-03
     -0.255  0.1587E+01  0.8150E-01
     -0.203  0.4329E+01  0.3059E+00
     -0.152  0.6333E+01  0.6341E+00
     -0.100  0.6427E+01  0.9672E+00
     -0.048  0.6924E+01  0.1326E+01
      0.004  0.8793E+01  0.1782E+01
      0.056  0.1110E+02  0.2357E+01
      0.108  0.1354E+02  0.3059E+01
      0.159  0.1438E+02  0.3804E+01
      0.211  0.1182E+02  0.4417E+01
      0.263  0.1003E+02  0.4937E+01
      0.315  0.1402E+02  0.5663E+01
      0.367  0.2016E+02  0.6708E+01
      0.419  0.2251E+02  0.7875E+01
      0.470  0.2271E+02  0.9052E+01
      0.522  0.2350E+02  0.1027E+02
      0.574  0.2262E+02  0.1144E+02
      0.626  0.2050E+02  0.1250E+02
      0.678  0.2097E+02  0.1359E+02
      0.730  0.2053E+02  0.1466E+02
      0.781  0.1491E+02  0.1543E+02
      0.833  0.9037E+01  0.1590E+02
      0.885  0.7929E+01  0.1631E+02
      0.937  0.1139E+02  0.1690E+02
      0.989  0.1841E+02  0.1785E+02
      1.041  0.2738E+02  0.1927E+02
      1.092  0.3320E+02  0.2099E+02
      1.144  0.3322E+02  0.2271E+02
      1.196  0.2918E+02  0.2423E+02
      1.248  0.2323E+02  0.2543E+02
      1.300  0.1956E+02  0.2644E+02
      1.351  0.2134E+02  0.2755E+02
      1.403  0.2678E+02  0.2894E+02
      1.455  0.3028E+02  0.3051E+02
      1.507  0.2991E+02  0.3206E+02
      1.559  0.2931E+02  0.3358E+02
      1.611  0.3035E+02  0.3515E+02
      1.662  0.3115E+02  0.3676E+02
      1.714  0.3193E+02  0.3842E+02
      1.766  0.3474E+02  0.4022E+02
      1.818  0.3874E+02  0.4223E+02
      1.870  0.4489E+02  0.4455E+02
      1.922  0.5403E+02  0.4735E+02
      1.973  0.5933E+02  0.5043E+02
      2.025  0.5532E+02  0.5330E+02
      2.077  0.5047E+02  0.5591E+02
      2.129  0.6002E+02  0.5902E+02
      2.181  0.8464E+02  0.6341E+02
      2.233  0.1072E+03  0.6897E+02
      2.284  0.1189E+03  0.7513E+02
      2.336  0.1252E+03  0.8162E+02
      2.388  0.1310E+03  0.8841E+02
      2.440  0.1369E+03  0.9551E+02
      2.492  0.1459E+03  0.1031E+03
      2.544  0.1625E+03  0.1115E+03
      2.595  0.1812E+03  0.1209E+03
      2.647  0.1938E+03  0.1309E+03
      2.699  0.2053E+03  0.1416E+03
      2.751  0.2222E+03  0.1531E+03
      2.803  0.2309E+03  0.1651E+03
      2.855  0.2251E+03  0.1767E+03
      2.906  0.2265E+03  0.1885E+03
      2.958  0.2433E+03  0.2011E+03
      3.010  0.2572E+03  0.2144E+03
      3.062  0.2600E+03  0.2279E+03
      3.114  0.2604E+03  0.2414E+03
      3.165  0.2637E+03  0.2550E+03
      3.217  0.2721E+03  0.2691E+03
      3.269  0.2864E+03  0.2840E+03
      3.321  0.3051E+03  0.2998E+03
      3.373  0.3228E+03  0.3165E+03
      3.425  0.3306E+03  0.3337E+03
      3.476  0.3285E+03  0.3507E+03
      3.528  0.3222E+03  0.3674E+03
      3.580  0.3186E+03  0.3839E+03
      3.632  0.3171E+03  0.4003E+03
      3.684  0.3119E+03  0.4165E+03
      3.736  0.3057E+03  0.4323E+03
      3.787  0.3015E+03  0.4480E+03
      3.839  0.2972E+03  0.4634E+03
      3.891  0.2935E+03  0.4786E+03
      3.943  0.2893E+03  0.4936E+03
      3.995  0.2778E+03  0.5080E+03
      4.047  0.2668E+03  0.5218E+03
      4.098  0.2736E+03  0.5360E+03
      4.150  0.2924E+03  0.5511E+03
      4.202  0.3025E+03  0.5668E+03
      4.254  0.3046E+03  0.5826E+03
      4.306  0.3108E+03  0.5987E+03
      4.358  0.3180E+03  0.6152E+03
      4.409  0.3211E+03  0.6318E+03
      4.461  0.3236E+03  0.6486E+03
      4.513  0.3221E+03  0.6653E+03
      4.565  0.3114E+03  0.6814E+03
      4.617  0.2985E+03  0.6969E+03
      4.669  0.2934E+03  0.7121E+03
      4.720  0.2973E+03  0.7275E+03
      4.772  0.3044E+03  0.7433E+03
      4.824  0.3156E+03  0.7597E+03
      4.876  0.3298E+03  0.7768E+03
      4.928  0.3371E+03  0.7942E+03
      4.980  0.3435E+03  0.8120E+03
      5.031  0.3565E+03  0.8305E+03
      5.083  0.3653E+03  0.8494E+03
      5.135  0.3649E+03  0.8684E+03
      5.187  0.3569E+03  0.8869E+03
      5.239  0.3385E+03  0.9044E+03
      5.290  0.3080E+03  0.9204E+03
      5.342  0.2680E+03  0.9342E+03
      5.394  0.2245E+03  0.9459E+03
      5.446  0.1883E+03  0.9556E+03
      5.498  0.1725E+03  0.9646E+03
      5.550  0.1850E+03  0.9742E+03
      5.601  0.2207E+03  0.9856E+03
      5.653  0.2680E+03  0.9995E+03
      5.705  0.3182E+03  0.1016E+04
      5.757  0.3618E+03  0.1035E+04
      5.809  0.3914E+03  0.1055E+04
      5.861  0.4081E+03  0.1076E+04
      5.912  0.4179E+03  0.1098E+04
      5.964  0.4249E+03  0.1120E+04
      6.016  0.4286E+03  0.1142E+04
      6.068  0.4197E+03  0.1164E+04
      6.120  0.3963E+03  0.1184E+04
      6.172  0.3744E+03  0.1204E+04
      6.223  0.3624E+03  0.1223E+04
      6.275  0.3560E+03  0.1241E+04
      6.327  0.3555E+03  0.1259E+04
      6.379  0.3664E+03  0.1278E+04
      6.431  0.3805E+03  0.1298E+04
      6.483  0.3841E+03  0.1318E+04
      6.534  0.3893E+03  0.1338E+04
      6.586  0.4065E+03  0.1359E+04
      6.638  0.4223E+03  0.1381E+04
      6.690  0.4278E+03  0.1403E+04
      6.742  0.4260E+03  0.1425E+04
      6.794  0.4160E+03  0.1447E+04
      6.845  0.3962E+03  0.1468E+04
      6.897  0.3761E+03  0.1487E+04
      6.949  0.3674E+03  0.1506E+04
      7.001  0.3643E+03  0.1525E+04
      7.053  0.3660E+03  0.1544E+04
      7.104  0.3858E+03  0.1564E+04
      7.156  0.4114E+03  0.1585E+04
      7.208  0.4216E+03  0.1607E+04
      7.260  0.4226E+03  0.1629E+04
      7.312  0.4166E+03  0.1651E+04
      7.364  0.3942E+03  0.1671E+04
      7.415  0.3643E+03  0.1690E+04
      7.467  0.3431E+03  0.1708E+04
      7.519  0.3335E+03  0.1725E+04
      7.571  0.3297E+03  0.1742E+04
      7.623  0.3204E+03  0.1759E+04
      7.675  0.3004E+03  0.1774E+04
      7.726  0.2804E+03  0.1789E+04
      7.778  0.2700E+03  0.1803E+04
      7.830  0.2647E+03  0.1816E+04
      7.882  0.2591E+03  0.1830E+04
      7.934  0.2503E+03  0.1843E+04
      7.986  0.2433E+03  0.1855E+04
      8.037  0.2431E+03  0.1868E+04
      8.089  0.2407E+03  0.1881E+04
      8.141  0.2328E+03  0.1893E+04
      8.193  0.2287E+03  0.1904E+04
      8.245  0.2321E+03  0.1917E+04
      8.297  0.2371E+03  0.1929E+04
      8.348  0.2391E+03  0.1941E+04
      8.400  0.2380E+03  0.1954E+04
      8.452  0.2311E+03  0.1966E+04
      8.504  0.2206E+03  0.1977E+04
      8.556  0.2131E+03  0.1988E+04
      8.608  0.2084E+03  0.1999E+04
      8.659  0.2016E+03  0.2009E+04
      8.711  0.1933E+03  0.2019E+04
      8.763  0.1850E+03  0.2029E+04
      8.815  0.1797E+03  0.2038E+04
      8.867  0.1847E+03  0.2048E+04
      8.918  0.2063E+03  0.2058E+04
      8.970  0.2317E+03  0.2070E+04
      9.022  0.2379E+03  0.2083E+04
      9.074  0.2270E+03  0.2095E+04
      9.126  0.2109E+03  0.2105E+04
      9.178  0.1916E+03  0.2115E+04
      9.229  0.1788E+03  0.2125E+04
      9.281  0.1906E+03  0.2135E+04
      9.333  0.2214E+03  0.2146E+04
      9.385  0.2415E+03  0.2159E+04
      9.437  0.2431E+03  0.2171E+04
      9.489  0.2442E+03  0.2184E+04
      9.540  0.2451E+03  0.2196E+04
      9.592  0.2442E+03  0.2209E+04
      9.644  0.2646E+03  0.2223E+04
      9.696  0.3076E+03  0.2239E+04
      9.748  0.3343E+03  0.2256E+04
      9.800  0.3297E+03  0.2273E+04
      9.851  0.3183E+03  0.2290E+04
      9.903  0.3150E+03  0.2306E+04
      9.955  0.3190E+03  0.2323E+04
     10.007  0.3358E+03  0.2340E+04
     10.059  0.3697E+03  0.2359E+04
     10.111  0.4057E+03  0.2380E+04
     10.162  0.4256E+03  0.2402E+04
     10.214  0.4340E+03  0.2425E+04
     10.266  0.4447E+03  0.2448E+04
     10.318  0.4617E+03  0.2472E+04
     10.370  0.4803E+03  0.2497E+04
     10.422  0.4928E+03  0.2522E+04
     10.473  0.4907E+03  0.2548E+04
     10.525  0.4620E+03  0.2571E+04
     10.577  0.4075E+03  0.2593E+04
     10.629  0.3423E+03  0.2610E+04
     10.681  0.2662E+03  0.2624E+04
     10.733  0.1707E+03  0.2633E+04
     10.784  0.7518E+02  0.2637E+04
     10.836  0.1430E+02  0.2638E+04
     10.888 -0.4148E+01  0.2637E+04
     10.940 -0.2898E+01  0.2637E+04
     10.992 -0.5869E+00  0.2637E+04
     11.043 -0.1242E+00  0.2637E+04
     11.095 -0.6641E-01  0.2637E+04
     11.147 -0.2059E-01  0.2637E+04
     11.199 -0.3121E-02  0.2637E+04
     11.251 -0.2488E-03  0.2637E+04
     11.303 -0.1090E-04  0.2637E+04
     11.354 -0.2682E-06  0.2637E+04
     11.406 -0.3759E-08  0.2637E+04
     11.458 -0.3842E-10  0.2637E+04
     11.510 -0.1233E-08  0.2637E+04
     11.562 -0.1069E-06  0.2637E+04
     11.614 -0.5324E-05  0.2637E+04
     11.665 -0.1511E-03  0.2637E+04
     11.717 -0.2399E-02  0.2637E+04
     11.769 -0.2051E-01  0.2637E+04
     11.821 -0.8453E-01  0.2637E+04
     11.873 -0.8555E-01  0.2637E+04
     11.925  0.4962E+00  0.2637E+04
     11.976  0.1816E+01  0.2637E+04
     12.028  0.2497E+01  0.2637E+04
     12.080  0.1749E+01  0.2638E+04
     12.132  0.9363E+00  0.2638E+04
     12.184  0.6243E+00  0.2638E+04
     12.236  0.6155E+00  0.2638E+04
     12.287  0.1762E+01  0.2638E+04
     12.339  0.3472E+01  0.2638E+04
     12.391  0.3865E+01  0.2638E+04
     12.443  0.2965E+01  0.2638E+04
     12.495  0.1717E+01  0.2638E+04
     12.547  0.1158E+01  0.2638E+04
     12.598  0.1710E+01  0.2639E+04
     12.650  0.3038E+01  0.2639E+04
     12.702  0.4575E+01  0.2639E+04
     12.754  0.4473E+01  0.2639E+04
     12.806  0.2882E+01  0.2639E+04
     12.857  0.2196E+01  0.2639E+04
     12.909  0.2284E+01  0.2640E+04
     12.961  0.1876E+01  0.2640E+04
     13.013  0.1320E+01  0.2640E+04
     13.065  0.9643E+00  0.2640E+04
     13.117  0.7411E+00  0.2640E+04
     13.168  0.9089E+00  0.2640E+04
     13.220  0.1231E+01  0.2640E+04
     13.272  0.1183E+01  0.2640E+04
     13.324  0.6780E+00  0.2640E+04
     13.376  0.1437E+00  0.2640E+04
     13.428 -0.4818E-01  0.2640E+04
     13.479 -0.3284E-01  0.2640E+04
     13.531 -0.7057E-02  0.2640E+04
     13.583 -0.7405E-03  0.2640E+04
     13.635 -0.4163E-04  0.2640E+04
     13.687 -0.1301E-05  0.2640E+04
     13.739 -0.2298E-07  0.2640E+04
     13.790 -0.2320E-09  0.2640E+04
     13.842 -0.1346E-11  0.2640E+04
     13.894 -0.4760E-14  0.2640E+04
     13.946  0.0000E+00  0.2640E+04
     13.998  0.0000E+00  0.2640E+04
     14.050  0.0000E+00  0.2640E+04
     14.101  0.0000E+00  0.2640E+04
     14.153  0.0000E+00  0.2640E+04
     14.205  0.0000E+00  0.2640E+04
     14.257  0.0000E+00  0.2640E+04
