<?xml version="1.0" encoding="ISO-8859-1"?>
<modeling>
 <generator>
  <i name="program" type="string">vasp </i>
  <i name="version" type="string">5.4.1  </i>
  <i name="subversion" type="string">24Jun15 (build Feb 03 2017 16:24:58) complex                          parallel </i>
  <i name="platform" type="string">IFC91_ompi </i>
  <i name="date" type="string">2018 07 11 </i>
  <i name="time" type="string">14:00:24 </i>
 </generator>
 <incar>
  <i type="string" name="SYSTEM"> Ir_Ru</i>
  <i type="int" name="ISTART">     0</i>
  <i type="string" name="PREC">accurate</i>
  <i type="string" name="ALGO"> Very_Fast</i>
  <i type="int" name="ICHARG">     2</i>
  <i type="int" name="NELMIN">     5</i>
  <i type="int" name="IBRION">    -1</i>
  <i name="EDIFFG">      0.00001000</i>
  <i type="int" name="ISIF">     2</i>
  <i type="string" name="LREAL"> AUTO</i>
  <i type="int" name="ISMEAR">     1</i>
  <i name="SIGMA">      0.10000000</i>
  <v type="int" name="KPOINT_BSE">    -1     0     0     0</v>
 </incar>
 <kpoints>
  <generation param="Gamma">
   <v type="int" name="divisions">       4        3        3 </v>
   <v name="usershift">      0.00000000       0.00000000       0.00000000 </v>
   <v name="genvec1">      0.25000000      -0.00000000      -0.00000000 </v>
   <v name="genvec2">      0.00000000       0.33333333       0.00000000 </v>
   <v name="genvec3">     -0.00000000      -0.00000000       0.33333333 </v>
   <v name="shift">      0.00000000       0.00000000       0.00000000 </v>
  </generation>
  <varray name="kpointlist" >
   <v>       0.00000000       0.00000000       0.00000000 </v>
   <v>       0.25000000       0.00000000      -0.00000000 </v>
   <v>       0.50000000       0.00000000      -0.00000000 </v>
   <v>       0.00000000       0.33333333       0.00000000 </v>
   <v>       0.25000000       0.33333333       0.00000000 </v>
   <v>       0.50000000       0.33333333       0.00000000 </v>
   <v>      -0.25000000       0.33333333       0.00000000 </v>
   <v>       0.00000000      -0.00000000       0.33333333 </v>
   <v>       0.25000000      -0.00000000       0.33333333 </v>
   <v>       0.50000000       0.00000000       0.33333333 </v>
   <v>      -0.25000000       0.00000000       0.33333333 </v>
   <v>       0.00000000       0.33333333       0.33333333 </v>
   <v>       0.25000000       0.33333333       0.33333333 </v>
   <v>       0.50000000       0.33333333       0.33333333 </v>
   <v>      -0.25000000       0.33333333       0.33333333 </v>
   <v>       0.00000000      -0.33333333       0.33333333 </v>
   <v>       0.25000000      -0.33333333       0.33333333 </v>
   <v>       0.50000000      -0.33333333       0.33333333 </v>
   <v>      -0.25000000      -0.33333333       0.33333333 </v>
  </varray>
  <varray name="weights" >
   <v>       0.02777778 </v>
   <v>       0.05555556 </v>
   <v>       0.02777778 </v>
   <v>       0.05555556 </v>
   <v>       0.05555556 </v>
   <v>       0.05555556 </v>
   <v>       0.05555556 </v>
   <v>       0.05555556 </v>
   <v>       0.05555556 </v>
   <v>       0.05555556 </v>
   <v>       0.05555556 </v>
   <v>       0.05555556 </v>
   <v>       0.05555556 </v>
   <v>       0.05555556 </v>
   <v>       0.05555556 </v>
   <v>       0.05555556 </v>
   <v>       0.05555556 </v>
   <v>       0.05555556 </v>
   <v>       0.05555556 </v>
  </varray>
 </kpoints>
 <parameters>
  <separator name="general" >
   <i type="string" name="SYSTEM">Ir_Ru</i>
   <i type="logical" name="LCOMPAT"> F  </i>
  </separator>
  <separator name="electronic" >
   <i type="string" name="PREC">accura</i>
   <i name="ENMAX">    213.27600000</i>
   <i name="ENAUG">    333.49400000</i>
   <i name="EDIFF">      0.00010000</i>
   <i type="int" name="IALGO">    48</i>
   <i type="int" name="IWAVPR">    10</i>
   <i type="int" name="NBANDS">  1320</i>
   <i name="NELECT">   2176.00000000</i>
   <i type="int" name="TURBO">     0</i>
   <i type="int" name="IRESTART">     0</i>
   <i type="int" name="NREBOOT">     0</i>
   <i type="int" name="NMIN">     0</i>
   <i name="EREF">      0.00000000</i>
   <separator name="electronic smearing" >
    <i type="int" name="ISMEAR">     1</i>
    <i name="SIGMA">      0.10000000</i>
    <i name="KSPACING">      0.50000000</i>
    <i type="logical" name="KGAMMA"> T  </i>
   </separator>
   <separator name="electronic projectors" >
    <i type="logical" name="LREAL"> T  </i>
    <v name="ROPT">     -0.00025000     -0.00025000</v>
    <i type="int" name="LMAXPAW">  -100</i>
    <i type="int" name="LMAXMIX">     2</i>
    <i type="logical" name="NLSPLINE"> F  </i>
   </separator>
   <separator name="electronic startup" >
    <i type="int" name="ISTART">     0</i>
    <i type="int" name="ICHARG">     2</i>
    <i type="int" name="INIWAV">     1</i>
   </separator>
   <separator name="electronic spin" >
    <i type="int" name="ISPIN">     1</i>
    <i type="logical" name="LNONCOLLINEAR"> F  </i>
    <v name="MAGMOM">      1.00000000      1.00000000      1.00000000      1.00000000      1.00000000      1.00000000      1.00000000      1.00000000      1.00000000      1.00000000      1.00000000      1.00000000      1.00000000      1.00000000      1.00000000      1.00000000      1.00000000      1.00000000      1.00000000      1.00000000
      1.00000000      1.00000000      1.00000000      1.00000000      1.00000000      1.00000000      1.00000000      1.00000000      1.00000000      1.00000000      1.00000000      1.00000000      1.00000000      1.00000000      1.00000000      1.00000000      1.00000000      1.00000000      1.00000000      1.00000000
      1.00000000      1.00000000      1.00000000      1.00000000      1.00000000      1.00000000      1.00000000      1.00000000      1.00000000      1.00000000      1.00000000      1.00000000      1.00000000      1.00000000      1.00000000      1.00000000      1.00000000      1.00000000      1.00000000      1.00000000
      1.00000000      1.00000000      1.00000000      1.00000000      1.00000000      1.00000000      1.00000000      1.00000000      1.00000000      1.00000000      1.00000000      1.00000000      1.00000000      1.00000000      1.00000000      1.00000000      1.00000000      1.00000000      1.00000000      1.00000000
      1.00000000      1.00000000      1.00000000      1.00000000      1.00000000      1.00000000      1.00000000      1.00000000      1.00000000      1.00000000      1.00000000      1.00000000      1.00000000      1.00000000      1.00000000      1.00000000      1.00000000      1.00000000      1.00000000      1.00000000
      1.00000000      1.00000000      1.00000000      1.00000000      1.00000000      1.00000000      1.00000000      1.00000000      1.00000000      1.00000000      1.00000000      1.00000000      1.00000000      1.00000000      1.00000000      1.00000000      1.00000000      1.00000000      1.00000000      1.00000000
      1.00000000      1.00000000      1.00000000      1.00000000      1.00000000      1.00000000      1.00000000      1.00000000      1.00000000      1.00000000      1.00000000      1.00000000      1.00000000      1.00000000      1.00000000      1.00000000      1.00000000      1.00000000      1.00000000      1.00000000
      1.00000000      1.00000000      1.00000000      1.00000000      1.00000000      1.00000000      1.00000000      1.00000000      1.00000000      1.00000000      1.00000000      1.00000000      1.00000000      1.00000000      1.00000000      1.00000000      1.00000000      1.00000000      1.00000000      1.00000000
      1.00000000      1.00000000      1.00000000      1.00000000      1.00000000      1.00000000      1.00000000      1.00000000      1.00000000      1.00000000      1.00000000      1.00000000      1.00000000      1.00000000      1.00000000      1.00000000      1.00000000      1.00000000      1.00000000      1.00000000
      1.00000000      1.00000000      1.00000000      1.00000000      1.00000000      1.00000000      1.00000000      1.00000000      1.00000000      1.00000000      1.00000000      1.00000000      1.00000000      1.00000000      1.00000000      1.00000000      1.00000000      1.00000000      1.00000000      1.00000000
      1.00000000      1.00000000      1.00000000      1.00000000      1.00000000      1.00000000      1.00000000      1.00000000      1.00000000      1.00000000      1.00000000      1.00000000      1.00000000      1.00000000      1.00000000      1.00000000      1.00000000      1.00000000      1.00000000      1.00000000
      1.00000000      1.00000000      1.00000000      1.00000000      1.00000000      1.00000000      1.00000000      1.00000000      1.00000000      1.00000000      1.00000000      1.00000000      1.00000000      1.00000000      1.00000000      1.00000000      1.00000000      1.00000000      1.00000000      1.00000000
      1.00000000      1.00000000      1.00000000      1.00000000      1.00000000      1.00000000      1.00000000      1.00000000      1.00000000      1.00000000      1.00000000      1.00000000      1.00000000      1.00000000      1.00000000      1.00000000</v>
    <i name="NUPDOWN">     -1.00000000</i>
    <i type="logical" name="LSORBIT"> F  </i>
    <v name="SAXIS">      0.00000000      0.00000000      1.00000000</v>
    <i type="logical" name="LSPIRAL"> F  </i>
    <v name="QSPIRAL">      0.00000000      0.00000000      0.00000000</v>
    <i type="logical" name="LZEROZ"> F  </i>
   </separator>
   <separator name="electronic exchange-correlation" >
    <i type="logical" name="LASPH"> F  </i>
    <i type="logical" name="LMETAGGA"> F  </i>
   </separator>
   <separator name="electronic convergence" >
    <i type="int" name="NELM">    60</i>
    <i type="int" name="NELMDL">   -12</i>
    <i type="int" name="NELMIN">     5</i>
    <i name="ENINI">    213.27600000</i>
    <separator name="electronic convergence detail" >
     <i type="logical" name="LDIAG"> T  </i>
     <i type="logical" name="LSUBROT"> F  </i>
     <i name="WEIMIN">      0.00000000</i>
     <i name="EBREAK">      0.00000000</i>
     <i name="DEPER">      0.30000000</i>
     <i type="int" name="NRMM">     4</i>
     <i name="TIME">      0.40000000</i>
    </separator>
   </separator>
   <separator name="electronic mixer" >
    <i name="AMIX">      0.40000000</i>
    <i name="BMIX">      1.00000000</i>
    <i name="AMIN">      0.10000000</i>
    <i name="AMIX_MAG">      1.60000000</i>
    <i name="BMIX_MAG">      1.00000000</i>
    <separator name="electronic mixer details" >
     <i type="int" name="IMIX">     4</i>
     <i type="logical" name="MIXFIRST"> F  </i>
     <i type="int" name="MAXMIX">   -45</i>
     <i name="WC">    100.00000000</i>
     <i type="int" name="INIMIX">     1</i>
     <i type="int" name="MIXPRE">     1</i>
     <i type="int" name="MREMOVE">     5</i>
    </separator>
   </separator>
   <separator name="electronic dipolcorrection" >
    <i type="logical" name="LDIPOL"> F  </i>
    <i type="logical" name="LMONO"> F  </i>
    <i type="int" name="IDIPOL">     0</i>
    <i name="EPSILON">      1.00000000</i>
    <v name="DIPOL">   -100.00000000   -100.00000000   -100.00000000</v>
    <i name="EFIELD">      0.00000000</i>
   </separator>
  </separator>
  <separator name="grids" >
   <i type="int" name="NGX">    80</i>
   <i type="int" name="NGY">    84</i>
   <i type="int" name="NGZ">    84</i>
   <i type="int" name="NGXF">   160</i>
   <i type="int" name="NGYF">   168</i>
   <i type="int" name="NGZF">   168</i>
   <i type="logical" name="ADDGRID"> F  </i>
  </separator>
  <separator name="ionic" >
   <i type="int" name="NSW">     0</i>
   <i type="int" name="IBRION">    -1</i>
   <i type="int" name="ISIF">     2</i>
   <i name="PSTRESS">      0.00000000</i>
   <i name="EDIFFG">      0.00001000</i>
   <i type="int" name="NFREE">     0</i>
   <i name="POTIM">      0.50000000</i>
   <i name="SMASS">     -3.00000000</i>
   <i name="SCALEE">      1.00000000</i>
  </separator>
  <separator name="ionic md" >
   <i name="TEBEG">      0.00010000</i>
   <i name="TEEND">      0.00010000</i>
   <i type="int" name="NBLOCK">     1</i>
   <i type="int" name="KBLOCK">     1</i>
   <i type="int" name="NPACO">   256</i>
   <i name="APACO">     16.00000000</i>
  </separator>
  <separator name="symmetry" >
   <i type="int" name="ISYM">     2</i>
   <i name="SYMPREC">      0.00001000</i>
  </separator>
  <separator name="dos" >
   <i type="logical" name="LORBIT"> F  </i>
   <v name="RWIGS">     -1.00000000     -1.00000000</v>
   <i type="int" name="NEDOS">   301</i>
   <i name="EMIN">     10.00000000</i>
   <i name="EMAX">    -10.00000000</i>
   <i name="EFERMI">      0.00000000</i>
  </separator>
  <separator name="writing" >
   <i type="int" name="NWRITE">     2</i>
   <i type="logical" name="LWAVE"> T  </i>
   <i type="logical" name="LCHARG"> T  </i>
   <i type="logical" name="LPARD"> F  </i>
   <i type="logical" name="LVTOT"> F  </i>
   <i type="logical" name="LVHAR"> F  </i>
   <i type="logical" name="LELF"> F  </i>
   <i type="logical" name="LOPTICS"> F  </i>
   <v name="STM">      0.00000000      0.00000000      0.00000000      0.00000000      0.00000000      0.00000000      0.00000000</v>
  </separator>
  <separator name="performance" >
   <i type="int" name="NPAR">    20</i>
   <i type="int" name="NSIM">     4</i>
   <i type="int" name="NBLK">    -1</i>
   <i type="logical" name="LPLANE"> T  </i>
   <i type="logical" name="LSCALAPACK"> T  </i>
   <i type="logical" name="LSCAAWARE"> F  </i>
   <i type="logical" name="LSCALU"> F  </i>
   <i type="logical" name="LASYNC"> F  </i>
   <i type="logical" name="LORBITALREAL"> F  </i>
  </separator>
  <separator name="miscellaneous" >
   <i type="int" name="IDIOT">     3</i>
   <i type="logical" name="LMUSIC"> F  </i>
   <v name="POMASS">    192.22000000    101.07000000</v>
   <v name="DARWINR">      0.00000000      0.00000000</v>
   <v name="DARWINV">      1.00000000      1.00000000</v>
   <i type="logical" name="LCORR"> T  </i>
  </separator>
  <i type="logical" name="GGA_COMPAT"> T  </i>
  <i type="logical" name="LBERRY"> F  </i>
  <i type="int" name="ICORELEVEL">     0</i>
  <i type="logical" name="LDAU"> F  </i>
  <i type="int" name="I_CONSTRAINED_M">     0</i>
  <separator name="electronic exchange-correlation" >
   <i type="string" name="GGA">--</i>
   <i type="int" name="VOSKOWN">     0</i>
   <i type="logical" name="LHFCALC"> F  </i>
   <i type="string" name="PRECFOCK"></i>
   <i type="logical" name="LSYMGRAD"> F  </i>
   <i type="logical" name="LHFONE"> F  </i>
   <i type="logical" name="LRHFCALC"> F  </i>
   <i type="logical" name="LTHOMAS"> F  </i>
   <i type="logical" name="LMODELHF"> F  </i>
   <i name="ENCUT4O">     -1.00000000</i>
   <i type="int" name="EXXOEP">     0</i>
   <i type="int" name="FOURORBIT">     0</i>
   <i name="AEXX">      0.00000000</i>
   <i name="HFALPHA">      0.00000000</i>
   <i name="MCALPHA">      0.00000000</i>
   <i name="ALDAX">      1.00000000</i>
   <i name="AGGAX">      1.00000000</i>
   <i name="ALDAC">      1.00000000</i>
   <i name="AGGAC">      1.00000000</i>
   <i type="int" name="NKREDX">     1</i>
   <i type="int" name="NKREDY">     1</i>
   <i type="int" name="NKREDZ">     1</i>
   <i type="logical" name="SHIFTRED"> F  </i>
   <i type="logical" name="ODDONLY"> F  </i>
   <i type="logical" name="EVENONLY"> F  </i>
   <i type="int" name="LMAXFOCK">     0</i>
   <i type="int" name="NMAXFOCKAE">     0</i>
   <i type="logical" name="LFOCKAEDFT"> F  </i>
   <i name="HFSCREEN">      0.00000000</i>
   <i name="HFSCREENC">      0.00000000</i>
   <i type="int" name="NBANDSGWLOW">     0</i>
  </separator>
  <separator name="vdW DFT" >
   <i type="logical" name="LUSE_VDW"> F  </i>
   <i name="Zab_VDW">     -0.84910000</i>
   <i name="PARAM1">      0.12340000</i>
   <i name="PARAM2">      1.00000000</i>
   <i name="PARAM3">      0.00000000</i>
  </separator>
  <separator name="model GW" >
   <i type="int" name="MODEL_GW">     0</i>
   <i name="MODEL_EPS0">      8.51350379</i>
   <i name="MODEL_ALPHA">      1.00000000</i>
  </separator>
  <separator name="linear response parameters" >
   <i type="logical" name="LEPSILON"> F  </i>
   <i type="logical" name="LRPA"> F  </i>
   <i type="logical" name="LNABLA"> F  </i>
   <i type="logical" name="LVEL"> F  </i>
   <i type="int" name="KINTER">     0</i>
   <i name="CSHIFT">      0.10000000</i>
   <i name="OMEGAMAX">     -1.00000000</i>
   <i name="DEG_THRESHOLD">      0.00200000</i>
  </separator>
  <separator name="orbital magnetization" >
   <i type="logical" name="NUCIND"> F  </i>
   <v name="MAGPOS">      0.00000000      0.00000000      0.00000000</v>
   <i type="logical" name="LNICSALL"> T  </i>
   <i type="logical" name="ORBITALMAG"> F  </i>
   <i type="logical" name="LMAGBLOCH"> F  </i>
   <i type="logical" name="LCHIMAG"> F  </i>
   <i type="logical" name="LGAUGE"> T  </i>
   <i type="int" name="MAGATOM">     0</i>
   <v name="MAGDIPOL">      0.00000000      0.00000000      0.00000000</v>
   <v name="AVECCONST">      0.00000000      0.00000000      0.00000000</v>
  </separator>
  <separator name="response functions" >
   <i type="logical" name="LADDER"> F  </i>
   <i type="logical" name="LFXC"> F  </i>
   <i type="logical" name="LHARTREE"> T  </i>
   <i type="int" name="IBSE">     0</i>
   <v type="int" name="KPOINT">    -1     0     0     0</v>
   <i type="logical" name="LTCTE"> F  </i>
   <i type="logical" name="LTETE"> F  </i>
   <i type="logical" name="LTRIPLET"> F  </i>
   <i type="logical" name="LFXCEPS"> F  </i>
   <i type="logical" name="LFXHEG"> F  </i>
   <i type="int" name="NATURALO">     0</i>
   <i type="logical" name="L2ORDER"> F  </i>
   <i type="logical" name="LUSEW"> F  </i>
   <i name="ENCUTGW">     -2.00000000</i>
   <i name="ENCUTGWSOFT">     -2.00000000</i>
   <i name="ENCUTLF">     -1.00000000</i>
   <i type="int" name="LMAXMP2">    -1</i>
   <i name="SCISSOR">      0.00000000</i>
   <i type="int" name="NOMEGA">     0</i>
   <i type="int" name="NOMEGAR">     0</i>
   <i type="int" name="NBANDSGW">    -1</i>
   <i type="int" name="NBANDSO">    -1</i>
   <i type="int" name="NBANDSV">    -1</i>
   <i type="int" name="NELM">     1</i>
   <i type="int" name="NELMHF">     1</i>
   <i type="int" name="DIM">     3</i>
   <i type="int" name="ANTIRES">     0</i>
   <i name="OMEGAMAX">    -30.00000000</i>
   <i name="OMEGAMIN">    -30.00000000</i>
   <i name="OMEGATL">   -200.00000000</i>
   <i type="int" name="OMEGAGRID">     0</i>
   <i name="CSHIFT">     -0.10000000</i>
   <i type="logical" name="SELFENERGY"> F  </i>
   <i type="logical" name="LSPECTRAL"> F  </i>
   <i type="logical" name="LSPECTRALGW"> F  </i>
   <i type="logical" name="LSINGLES"> F  </i>
   <i type="logical" name="LFERMIGW"> F  </i>
   <i type="logical" name="ODDONLYGW"> F  </i>
   <i type="logical" name="EVENONLYGW"> F  </i>
   <i type="int" name="NKREDLFX">     1</i>
   <i type="int" name="NKREDLFY">     1</i>
   <i type="int" name="NKREDLFZ">     1</i>
   <i type="int" name="MAXMEM">  1800</i>
   <i type="int" name="TELESCOPE">     0</i>
   <i type="int" name="TAUPAR">     1</i>
   <i type="int" name="OMEGAPAR">    -1</i>
   <i name="LAMBDA">      1.00000000</i>
  </separator>
  <separator name="External order field" >
   <i name="OFIELD_KAPPA">      0.00000000</i>
   <v name="OFIELD_K">      0.00000000      0.00000000      0.00000000</v>
   <i name="OFIELD_Q6_NEAR">      0.00000000</i>
   <i name="OFIELD_Q6_FAR">      0.00000000</i>
   <i name="OFIELD_A">      0.00000000</i>
  </separator>
 </parameters>
 <atominfo>
  <atoms>     256 </atoms>
  <types>       2 </types>
  <array name="atoms" >
   <dimension dim="1">ion</dimension>
   <field type="string">element</field>
   <field type="int">atomtype</field>
   <set>
    <rc><c>Ir</c><c>   1</c></rc>
    <rc><c>Ir</c><c>   1</c></rc>
    <rc><c>Ir</c><c>   1</c></rc>
    <rc><c>Ir</c><c>   1</c></rc>
    <rc><c>Ir</c><c>   1</c></rc>
    <rc><c>Ir</c><c>   1</c></rc>
    <rc><c>Ir</c><c>   1</c></rc>
    <rc><c>Ir</c><c>   1</c></rc>
    <rc><c>Ir</c><c>   1</c></rc>
    <rc><c>Ir</c><c>   1</c></rc>
    <rc><c>Ir</c><c>   1</c></rc>
    <rc><c>Ir</c><c>   1</c></rc>
    <rc><c>Ir</c><c>   1</c></rc>
    <rc><c>Ir</c><c>   1</c></rc>
    <rc><c>Ir</c><c>   1</c></rc>
    <rc><c>Ir</c><c>   1</c></rc>
    <rc><c>Ir</c><c>   1</c></rc>
    <rc><c>Ir</c><c>   1</c></rc>
    <rc><c>Ir</c><c>   1</c></rc>
    <rc><c>Ir</c><c>   1</c></rc>
    <rc><c>Ir</c><c>   1</c></rc>
    <rc><c>Ir</c><c>   1</c></rc>
    <rc><c>Ir</c><c>   1</c></rc>
    <rc><c>Ir</c><c>   1</c></rc>
    <rc><c>Ir</c><c>   1</c></rc>
    <rc><c>Ir</c><c>   1</c></rc>
    <rc><c>Ir</c><c>   1</c></rc>
    <rc><c>Ir</c><c>   1</c></rc>
    <rc><c>Ir</c><c>   1</c></rc>
    <rc><c>Ir</c><c>   1</c></rc>
    <rc><c>Ir</c><c>   1</c></rc>
    <rc><c>Ir</c><c>   1</c></rc>
    <rc><c>Ir</c><c>   1</c></rc>
    <rc><c>Ir</c><c>   1</c></rc>
    <rc><c>Ir</c><c>   1</c></rc>
    <rc><c>Ir</c><c>   1</c></rc>
    <rc><c>Ir</c><c>   1</c></rc>
    <rc><c>Ir</c><c>   1</c></rc>
    <rc><c>Ir</c><c>   1</c></rc>
    <rc><c>Ir</c><c>   1</c></rc>
    <rc><c>Ir</c><c>   1</c></rc>
    <rc><c>Ir</c><c>   1</c></rc>
    <rc><c>Ir</c><c>   1</c></rc>
    <rc><c>Ir</c><c>   1</c></rc>
    <rc><c>Ir</c><c>   1</c></rc>
    <rc><c>Ir</c><c>   1</c></rc>
    <rc><c>Ir</c><c>   1</c></rc>
    <rc><c>Ir</c><c>   1</c></rc>
    <rc><c>Ir</c><c>   1</c></rc>
    <rc><c>Ir</c><c>   1</c></rc>
    <rc><c>Ir</c><c>   1</c></rc>
    <rc><c>Ir</c><c>   1</c></rc>
    <rc><c>Ir</c><c>   1</c></rc>
    <rc><c>Ir</c><c>   1</c></rc>
    <rc><c>Ir</c><c>   1</c></rc>
    <rc><c>Ir</c><c>   1</c></rc>
    <rc><c>Ir</c><c>   1</c></rc>
    <rc><c>Ir</c><c>   1</c></rc>
    <rc><c>Ir</c><c>   1</c></rc>
    <rc><c>Ir</c><c>   1</c></rc>
    <rc><c>Ir</c><c>   1</c></rc>
    <rc><c>Ir</c><c>   1</c></rc>
    <rc><c>Ir</c><c>   1</c></rc>
    <rc><c>Ir</c><c>   1</c></rc>
    <rc><c>Ir</c><c>   1</c></rc>
    <rc><c>Ir</c><c>   1</c></rc>
    <rc><c>Ir</c><c>   1</c></rc>
    <rc><c>Ir</c><c>   1</c></rc>
    <rc><c>Ir</c><c>   1</c></rc>
    <rc><c>Ir</c><c>   1</c></rc>
    <rc><c>Ir</c><c>   1</c></rc>
    <rc><c>Ir</c><c>   1</c></rc>
    <rc><c>Ir</c><c>   1</c></rc>
    <rc><c>Ir</c><c>   1</c></rc>
    <rc><c>Ir</c><c>   1</c></rc>
    <rc><c>Ir</c><c>   1</c></rc>
    <rc><c>Ir</c><c>   1</c></rc>
    <rc><c>Ir</c><c>   1</c></rc>
    <rc><c>Ir</c><c>   1</c></rc>
    <rc><c>Ir</c><c>   1</c></rc>
    <rc><c>Ir</c><c>   1</c></rc>
    <rc><c>Ir</c><c>   1</c></rc>
    <rc><c>Ir</c><c>   1</c></rc>
    <rc><c>Ir</c><c>   1</c></rc>
    <rc><c>Ir</c><c>   1</c></rc>
    <rc><c>Ir</c><c>   1</c></rc>
    <rc><c>Ir</c><c>   1</c></rc>
    <rc><c>Ir</c><c>   1</c></rc>
    <rc><c>Ir</c><c>   1</c></rc>
    <rc><c>Ir</c><c>   1</c></rc>
    <rc><c>Ir</c><c>   1</c></rc>
    <rc><c>Ir</c><c>   1</c></rc>
    <rc><c>Ir</c><c>   1</c></rc>
    <rc><c>Ir</c><c>   1</c></rc>
    <rc><c>Ir</c><c>   1</c></rc>
    <rc><c>Ir</c><c>   1</c></rc>
    <rc><c>Ir</c><c>   1</c></rc>
    <rc><c>Ir</c><c>   1</c></rc>
    <rc><c>Ir</c><c>   1</c></rc>
    <rc><c>Ir</c><c>   1</c></rc>
    <rc><c>Ir</c><c>   1</c></rc>
    <rc><c>Ir</c><c>   1</c></rc>
    <rc><c>Ir</c><c>   1</c></rc>
    <rc><c>Ir</c><c>   1</c></rc>
    <rc><c>Ir</c><c>   1</c></rc>
    <rc><c>Ir</c><c>   1</c></rc>
    <rc><c>Ir</c><c>   1</c></rc>
    <rc><c>Ir</c><c>   1</c></rc>
    <rc><c>Ir</c><c>   1</c></rc>
    <rc><c>Ir</c><c>   1</c></rc>
    <rc><c>Ir</c><c>   1</c></rc>
    <rc><c>Ir</c><c>   1</c></rc>
    <rc><c>Ir</c><c>   1</c></rc>
    <rc><c>Ir</c><c>   1</c></rc>
    <rc><c>Ir</c><c>   1</c></rc>
    <rc><c>Ir</c><c>   1</c></rc>
    <rc><c>Ir</c><c>   1</c></rc>
    <rc><c>Ir</c><c>   1</c></rc>
    <rc><c>Ir</c><c>   1</c></rc>
    <rc><c>Ir</c><c>   1</c></rc>
    <rc><c>Ir</c><c>   1</c></rc>
    <rc><c>Ir</c><c>   1</c></rc>
    <rc><c>Ir</c><c>   1</c></rc>
    <rc><c>Ir</c><c>   1</c></rc>
    <rc><c>Ir</c><c>   1</c></rc>
    <rc><c>Ir</c><c>   1</c></rc>
    <rc><c>Ir</c><c>   1</c></rc>
    <rc><c>Ir</c><c>   1</c></rc>
    <rc><c>Ru</c><c>   2</c></rc>
    <rc><c>Ru</c><c>   2</c></rc>
    <rc><c>Ru</c><c>   2</c></rc>
    <rc><c>Ru</c><c>   2</c></rc>
    <rc><c>Ru</c><c>   2</c></rc>
    <rc><c>Ru</c><c>   2</c></rc>
    <rc><c>Ru</c><c>   2</c></rc>
    <rc><c>Ru</c><c>   2</c></rc>
    <rc><c>Ru</c><c>   2</c></rc>
    <rc><c>Ru</c><c>   2</c></rc>
    <rc><c>Ru</c><c>   2</c></rc>
    <rc><c>Ru</c><c>   2</c></rc>
    <rc><c>Ru</c><c>   2</c></rc>
    <rc><c>Ru</c><c>   2</c></rc>
    <rc><c>Ru</c><c>   2</c></rc>
    <rc><c>Ru</c><c>   2</c></rc>
    <rc><c>Ru</c><c>   2</c></rc>
    <rc><c>Ru</c><c>   2</c></rc>
    <rc><c>Ru</c><c>   2</c></rc>
    <rc><c>Ru</c><c>   2</c></rc>
    <rc><c>Ru</c><c>   2</c></rc>
    <rc><c>Ru</c><c>   2</c></rc>
    <rc><c>Ru</c><c>   2</c></rc>
    <rc><c>Ru</c><c>   2</c></rc>
    <rc><c>Ru</c><c>   2</c></rc>
    <rc><c>Ru</c><c>   2</c></rc>
    <rc><c>Ru</c><c>   2</c></rc>
    <rc><c>Ru</c><c>   2</c></rc>
    <rc><c>Ru</c><c>   2</c></rc>
    <rc><c>Ru</c><c>   2</c></rc>
    <rc><c>Ru</c><c>   2</c></rc>
    <rc><c>Ru</c><c>   2</c></rc>
    <rc><c>Ru</c><c>   2</c></rc>
    <rc><c>Ru</c><c>   2</c></rc>
    <rc><c>Ru</c><c>   2</c></rc>
    <rc><c>Ru</c><c>   2</c></rc>
    <rc><c>Ru</c><c>   2</c></rc>
    <rc><c>Ru</c><c>   2</c></rc>
    <rc><c>Ru</c><c>   2</c></rc>
    <rc><c>Ru</c><c>   2</c></rc>
    <rc><c>Ru</c><c>   2</c></rc>
    <rc><c>Ru</c><c>   2</c></rc>
    <rc><c>Ru</c><c>   2</c></rc>
    <rc><c>Ru</c><c>   2</c></rc>
    <rc><c>Ru</c><c>   2</c></rc>
    <rc><c>Ru</c><c>   2</c></rc>
    <rc><c>Ru</c><c>   2</c></rc>
    <rc><c>Ru</c><c>   2</c></rc>
    <rc><c>Ru</c><c>   2</c></rc>
    <rc><c>Ru</c><c>   2</c></rc>
    <rc><c>Ru</c><c>   2</c></rc>
    <rc><c>Ru</c><c>   2</c></rc>
    <rc><c>Ru</c><c>   2</c></rc>
    <rc><c>Ru</c><c>   2</c></rc>
    <rc><c>Ru</c><c>   2</c></rc>
    <rc><c>Ru</c><c>   2</c></rc>
    <rc><c>Ru</c><c>   2</c></rc>
    <rc><c>Ru</c><c>   2</c></rc>
    <rc><c>Ru</c><c>   2</c></rc>
    <rc><c>Ru</c><c>   2</c></rc>
    <rc><c>Ru</c><c>   2</c></rc>
    <rc><c>Ru</c><c>   2</c></rc>
    <rc><c>Ru</c><c>   2</c></rc>
    <rc><c>Ru</c><c>   2</c></rc>
    <rc><c>Ru</c><c>   2</c></rc>
    <rc><c>Ru</c><c>   2</c></rc>
    <rc><c>Ru</c><c>   2</c></rc>
    <rc><c>Ru</c><c>   2</c></rc>
    <rc><c>Ru</c><c>   2</c></rc>
    <rc><c>Ru</c><c>   2</c></rc>
    <rc><c>Ru</c><c>   2</c></rc>
    <rc><c>Ru</c><c>   2</c></rc>
    <rc><c>Ru</c><c>   2</c></rc>
    <rc><c>Ru</c><c>   2</c></rc>
    <rc><c>Ru</c><c>   2</c></rc>
    <rc><c>Ru</c><c>   2</c></rc>
    <rc><c>Ru</c><c>   2</c></rc>
    <rc><c>Ru</c><c>   2</c></rc>
    <rc><c>Ru</c><c>   2</c></rc>
    <rc><c>Ru</c><c>   2</c></rc>
    <rc><c>Ru</c><c>   2</c></rc>
    <rc><c>Ru</c><c>   2</c></rc>
    <rc><c>Ru</c><c>   2</c></rc>
    <rc><c>Ru</c><c>   2</c></rc>
    <rc><c>Ru</c><c>   2</c></rc>
    <rc><c>Ru</c><c>   2</c></rc>
    <rc><c>Ru</c><c>   2</c></rc>
    <rc><c>Ru</c><c>   2</c></rc>
    <rc><c>Ru</c><c>   2</c></rc>
    <rc><c>Ru</c><c>   2</c></rc>
    <rc><c>Ru</c><c>   2</c></rc>
    <rc><c>Ru</c><c>   2</c></rc>
    <rc><c>Ru</c><c>   2</c></rc>
    <rc><c>Ru</c><c>   2</c></rc>
    <rc><c>Ru</c><c>   2</c></rc>
    <rc><c>Ru</c><c>   2</c></rc>
    <rc><c>Ru</c><c>   2</c></rc>
    <rc><c>Ru</c><c>   2</c></rc>
    <rc><c>Ru</c><c>   2</c></rc>
    <rc><c>Ru</c><c>   2</c></rc>
    <rc><c>Ru</c><c>   2</c></rc>
    <rc><c>Ru</c><c>   2</c></rc>
    <rc><c>Ru</c><c>   2</c></rc>
    <rc><c>Ru</c><c>   2</c></rc>
    <rc><c>Ru</c><c>   2</c></rc>
    <rc><c>Ru</c><c>   2</c></rc>
    <rc><c>Ru</c><c>   2</c></rc>
    <rc><c>Ru</c><c>   2</c></rc>
    <rc><c>Ru</c><c>   2</c></rc>
    <rc><c>Ru</c><c>   2</c></rc>
    <rc><c>Ru</c><c>   2</c></rc>
    <rc><c>Ru</c><c>   2</c></rc>
    <rc><c>Ru</c><c>   2</c></rc>
    <rc><c>Ru</c><c>   2</c></rc>
    <rc><c>Ru</c><c>   2</c></rc>
    <rc><c>Ru</c><c>   2</c></rc>
    <rc><c>Ru</c><c>   2</c></rc>
    <rc><c>Ru</c><c>   2</c></rc>
    <rc><c>Ru</c><c>   2</c></rc>
    <rc><c>Ru</c><c>   2</c></rc>
    <rc><c>Ru</c><c>   2</c></rc>
    <rc><c>Ru</c><c>   2</c></rc>
    <rc><c>Ru</c><c>   2</c></rc>
    <rc><c>Ru</c><c>   2</c></rc>
    <rc><c>Ru</c><c>   2</c></rc>
    <rc><c>Ru</c><c>   2</c></rc>
    <rc><c>Ru</c><c>   2</c></rc>
    <rc><c>Ru</c><c>   2</c></rc>
   </set>
  </array>
  <array name="atomtypes" >
   <dimension dim="1">type</dimension>
   <field type="int">atomspertype</field>
   <field type="string">element</field>
   <field>mass</field>
   <field>valence</field>
   <field type="string">pseudopotential</field>
   <set>
    <rc><c> 128</c><c>Ir</c><c>    192.22000000</c><c>      9.00000000</c><c> PAW_PBE Ir 06Sep2000                   </c></rc>
    <rc><c> 128</c><c>Ru</c><c>    101.07000000</c><c>      8.00000000</c><c> PAW_PBE Ru 06Sep2000                   </c></rc>
   </set>
  </array>
 </atominfo>
 <structure name="initialpos" >
  <crystal>
   <varray name="basis" >
    <v>       5.48320000     -14.25407000       4.35211000 </v>
    <v>     -10.97158000      -9.50382000       8.70700000 </v>
    <v>     -10.97268000      -9.50770000      -8.71242000 </v>
   </varray>
   <i name="volume">   3632.42828475 </i>
   <varray name="rec_basis" >
    <v>       0.04558516      -0.05261718       0.00000884 </v>
    <v>      -0.04557998      -0.00000485       0.05741007 </v>
    <v>      -0.02278050      -0.02628868      -0.05739990 </v>
   </varray>
  </crystal>
  <varray name="positions" >
   <v>       0.24961500       0.25116000       0.87474750 </v>
   <v>       0.37462500       0.12471000       0.81183750 </v>
   <v>       0.06264000       0.31198500       0.84450000 </v>
   <v>       0.06345000       0.06286500       0.59341500 </v>
   <v>       0.43715000       0.43626500       0.65842500 </v>
   <v>       0.18774000       0.43608000       0.53137000 </v>
   <v>       0.43778500       0.19000000       0.40508750 </v>
   <v>       0.27102000       0.31327500       0.69738000 </v>
   <v>       0.39571500       0.18779500       0.63473250 </v>
   <v>       0.02156000       0.06211500       0.82305500 </v>
   <v>       0.08285000       0.37426000       0.66685000 </v>
   <v>       0.33244500       0.12499000       0.54249250 </v>
   <v>       0.27037500       0.06213000       0.44856250 </v>
   <v>       0.08317500       0.12555000       0.91594750 </v>
   <v>       0.45837000       0.49946000       0.47964000 </v>
   <v>       0.20886500       0.49992000       0.85301250 </v>
   <v>       0.24961500       0.75116000       0.87474750 </v>
   <v>       0.37462500       0.62471000       0.81183750 </v>
   <v>       0.06264000       0.81198500       0.84450000 </v>
   <v>       0.06345500       0.56286500       0.59341250 </v>
   <v>       0.43715000       0.93626500       0.65843000 </v>
   <v>       0.18774000       0.93608000       0.53136500 </v>
   <v>       0.43778500       0.69000000       0.40508750 </v>
   <v>       0.27102000       0.81327500       0.69738000 </v>
   <v>       0.39571500       0.68779500       0.63473250 </v>
   <v>       0.02156000       0.56211500       0.82305500 </v>
   <v>       0.08285000       0.87426000       0.66685000 </v>
   <v>       0.33244500       0.62499000       0.54249250 </v>
   <v>       0.27037500       0.56213000       0.44856250 </v>
   <v>       0.08317500       0.62555000       0.91594750 </v>
   <v>       0.45837000       0.99946000       0.47964000 </v>
   <v>       0.20886500       0.99992000       0.85301250 </v>
   <v>       0.24961500       0.25116000       0.37474750 </v>
   <v>       0.37462500       0.12471000       0.31183750 </v>
   <v>       0.06264000       0.31198500       0.34450000 </v>
   <v>       0.06345500       0.06286500       0.09341250 </v>
   <v>       0.43715000       0.43626500       0.15842500 </v>
   <v>       0.18774000       0.43608000       0.03137000 </v>
   <v>       0.43778500       0.19000000       0.90508750 </v>
   <v>       0.27102000       0.31327500       0.19738000 </v>
   <v>       0.39571500       0.18779500       0.13473250 </v>
   <v>       0.02156000       0.06211500       0.32305500 </v>
   <v>       0.08285000       0.37426000       0.16685000 </v>
   <v>       0.33244500       0.12499000       0.04249250 </v>
   <v>       0.27037500       0.06213000       0.94856250 </v>
   <v>       0.08317500       0.12555000       0.41594750 </v>
   <v>       0.45837000       0.49946000       0.97964000 </v>
   <v>       0.20886500       0.49992000       0.35301250 </v>
   <v>       0.74961500       0.25116000       0.62474750 </v>
   <v>       0.87462500       0.12471000       0.56183750 </v>
   <v>       0.56264000       0.31198500       0.59450000 </v>
   <v>       0.56345000       0.06286500       0.34341500 </v>
   <v>       0.93715000       0.43626500       0.40842500 </v>
   <v>       0.68774000       0.43608000       0.28137000 </v>
   <v>       0.93778500       0.19000000       0.15508750 </v>
   <v>       0.77102000       0.31327500       0.44738000 </v>
   <v>       0.89571500       0.18779500       0.38473250 </v>
   <v>       0.52156000       0.06211500       0.57305500 </v>
   <v>       0.58285000       0.37426000       0.41685000 </v>
   <v>       0.83244500       0.12499000       0.29249750 </v>
   <v>       0.77037500       0.06213000       0.19856250 </v>
   <v>       0.58317500       0.12555000       0.66594750 </v>
   <v>       0.95837000       0.49946000       0.22964000 </v>
   <v>       0.70886500       0.49992000       0.60301250 </v>
   <v>       0.24961500       0.75116000       0.37474750 </v>
   <v>       0.37462500       0.62471000       0.31183750 </v>
   <v>       0.06264000       0.81198500       0.34450000 </v>
   <v>       0.06345500       0.56286500       0.09341250 </v>
   <v>       0.43715000       0.93626500       0.15842500 </v>
   <v>       0.18774000       0.93608000       0.03137000 </v>
   <v>       0.43778500       0.69000000       0.90508750 </v>
   <v>       0.27102000       0.81327500       0.19738000 </v>
   <v>       0.39571500       0.68779500       0.13473250 </v>
   <v>       0.02156000       0.56211500       0.32305500 </v>
   <v>       0.08285000       0.87426000       0.16685000 </v>
   <v>       0.33244500       0.62499000       0.04249250 </v>
   <v>       0.27037500       0.56213000       0.94856250 </v>
   <v>       0.08317500       0.62555000       0.41594750 </v>
   <v>       0.45837000       0.99946000       0.97964000 </v>
   <v>       0.20886500       0.99992000       0.35301250 </v>
   <v>       0.74961500       0.75116000       0.62474750 </v>
   <v>       0.87462500       0.62471000       0.56183750 </v>
   <v>       0.56264000       0.81198500       0.59450000 </v>
   <v>       0.56345000       0.56286500       0.34341500 </v>
   <v>       0.93715000       0.93626500       0.40842500 </v>
   <v>       0.68774000       0.93608000       0.28136500 </v>
   <v>       0.93778500       0.69000000       0.15508750 </v>
   <v>       0.77102000       0.81327500       0.44738000 </v>
   <v>       0.89571500       0.68779500       0.38473250 </v>
   <v>       0.52156000       0.56211500       0.57305500 </v>
   <v>       0.58285000       0.87426000       0.41685000 </v>
   <v>       0.83244500       0.62499000       0.29249250 </v>
   <v>       0.77037500       0.56213000       0.19856250 </v>
   <v>       0.58317500       0.62555000       0.66594750 </v>
   <v>       0.95837000       0.99946000       0.22964000 </v>
   <v>       0.70886500       0.99992000       0.60301250 </v>
   <v>       0.74961500       0.25116000       0.12474750 </v>
   <v>       0.87462500       0.12471000       0.06183750 </v>
   <v>       0.56264000       0.31198500       0.09450000 </v>
   <v>       0.56345000       0.06286500       0.84341500 </v>
   <v>       0.93715000       0.43626500       0.90842500 </v>
   <v>       0.68774000       0.43608000       0.78137000 </v>
   <v>       0.93778500       0.19000000       0.65508750 </v>
   <v>       0.77102000       0.31327500       0.94738000 </v>
   <v>       0.89361000       0.18779500       0.88368000 </v>
   <v>       0.52156000       0.06211500       0.07305500 </v>
   <v>       0.58285000       0.37426000       0.91685000 </v>
   <v>       0.83244500       0.12499000       0.79249750 </v>
   <v>       0.77037500       0.06213000       0.69856250 </v>
   <v>       0.58317500       0.12555000       0.16594750 </v>
   <v>       0.95837000       0.49946000       0.72964000 </v>
   <v>       0.70886500       0.49992000       0.10301250 </v>
   <v>       0.74961500       0.75116000       0.12474750 </v>
   <v>       0.87462500       0.62471000       0.06183750 </v>
   <v>       0.56264000       0.81198500       0.09450000 </v>
   <v>       0.56345000       0.56286500       0.84341500 </v>
   <v>       0.93715000       0.93626500       0.90843000 </v>
   <v>       0.68774000       0.93608000       0.78137000 </v>
   <v>       0.93778500       0.69000000       0.65508750 </v>
   <v>       0.77102000       0.81327500       0.94738000 </v>
   <v>       0.89571500       0.68779500       0.88473250 </v>
   <v>       0.52156000       0.56211500       0.07305500 </v>
   <v>       0.58285000       0.87426000       0.91685000 </v>
   <v>       0.83244500       0.62499000       0.79249250 </v>
   <v>       0.77037500       0.56213000       0.69856250 </v>
   <v>       0.58317500       0.62555000       0.16594750 </v>
   <v>       0.95837000       0.99946000       0.72964000 </v>
   <v>       0.70886500       0.99992000       0.10301250 </v>
   <v>       0.12552000       0.37374500       0.43878000 </v>
   <v>       0.49955500       0.49856000       0.25097750 </v>
   <v>       0.18753000       0.18756000       0.77992000 </v>
   <v>       0.31234000       0.06179500       0.71926500 </v>
   <v>       0.12523500       0.12622500       0.68665250 </v>
   <v>       0.24965000       0.00016500       0.62632000 </v>
   <v>       0.37544000       0.37420500       0.56234500 </v>
   <v>       0.99989000       0.25085000       0.74831000 </v>
   <v>       0.31230000       0.31346000       0.46828500 </v>
   <v>       0.14612500       0.43832500       0.76050750 </v>
   <v>       0.20830000       0.24878000       0.60429000 </v>
   <v>       0.14574500       0.18778500       0.51141250 </v>
   <v>       0.39572500       0.43673000       0.38531750 </v>
   <v>       0.02141500       0.31227500       0.57284750 </v>
   <v>       0.33289000       0.37625500       0.79155500 </v>
   <v>       0.45828500       0.25070500       0.72884250 </v>
   <v>       0.12552000       0.87374500       0.43878000 </v>
   <v>       0.49955500       0.99856000       0.25097750 </v>
   <v>       0.18753000       0.68756000       0.77992000 </v>
   <v>       0.31234000       0.56179500       0.71926500 </v>
   <v>       0.12523500       0.62622500       0.68665250 </v>
   <v>       0.24965000       0.50016500       0.62632000 </v>
   <v>       0.37544000       0.87420500       0.56234500 </v>
   <v>       0.99989000       0.75085000       0.74831000 </v>
   <v>       0.31230000       0.81346000       0.46828500 </v>
   <v>       0.14612500       0.93832500       0.76050750 </v>
   <v>       0.20830000       0.74878000       0.60429000 </v>
   <v>       0.14574500       0.68778500       0.51141250 </v>
   <v>       0.39572500       0.93673000       0.38531750 </v>
   <v>       0.02141500       0.81227500       0.57284750 </v>
   <v>       0.33289000       0.87625500       0.79155500 </v>
   <v>       0.45828500       0.75070500       0.72884250 </v>
   <v>       0.12552000       0.37374500       0.93878000 </v>
   <v>       0.49955500       0.49856000       0.75097750 </v>
   <v>       0.18753000       0.18756000       0.27992000 </v>
   <v>       0.31234000       0.06179500       0.21926500 </v>
   <v>       0.12523500       0.12622500       0.18665250 </v>
   <v>       0.24965000       0.00016500       0.12632000 </v>
   <v>       0.37544000       0.37420500       0.06234500 </v>
   <v>       0.99989000       0.25085000       0.24831000 </v>
   <v>       0.31230000       0.31346000       0.96828500 </v>
   <v>       0.14612500       0.43832500       0.26050750 </v>
   <v>       0.20830000       0.24878000       0.10429000 </v>
   <v>       0.14574500       0.18778500       0.01141250 </v>
   <v>       0.39572500       0.43673000       0.88531750 </v>
   <v>       0.02141500       0.31227500       0.07284750 </v>
   <v>       0.33289000       0.37625500       0.29155500 </v>
   <v>       0.45828500       0.25070500       0.22884250 </v>
   <v>       0.62552000       0.37374500       0.18878000 </v>
   <v>       0.99955500       0.49856000       0.00097750 </v>
   <v>       0.68753000       0.18756000       0.52992000 </v>
   <v>       0.81234000       0.06179500       0.46926500 </v>
   <v>       0.62523500       0.12622500       0.43665250 </v>
   <v>       0.74965000       0.00016500       0.37632000 </v>
   <v>       0.87544000       0.37420500       0.31234500 </v>
   <v>       0.49989000       0.25085000       0.49831000 </v>
   <v>       0.81230000       0.31346000       0.21828500 </v>
   <v>       0.64612500       0.43832500       0.51050750 </v>
   <v>       0.70830000       0.24878000       0.35429000 </v>
   <v>       0.64574500       0.18778500       0.26141250 </v>
   <v>       0.89572500       0.43673000       0.13531750 </v>
   <v>       0.52141500       0.31227500       0.32284750 </v>
   <v>       0.83289000       0.37625500       0.54155500 </v>
   <v>       0.95828500       0.25070500       0.47884250 </v>
   <v>       0.12552000       0.87374500       0.93878000 </v>
   <v>       0.49955500       0.99856000       0.75097750 </v>
   <v>       0.18753000       0.68756000       0.27992000 </v>
   <v>       0.31234000       0.56179500       0.21926500 </v>
   <v>       0.12523500       0.62622500       0.18665250 </v>
   <v>       0.24965000       0.50016500       0.12632000 </v>
   <v>       0.37544000       0.87420500       0.06234500 </v>
   <v>       0.99989000       0.75085000       0.24831000 </v>
   <v>       0.31230000       0.81346000       0.96828500 </v>
   <v>       0.14612500       0.93832500       0.26050750 </v>
   <v>       0.20830000       0.74878000       0.10429000 </v>
   <v>       0.14574500       0.68778500       0.01141250 </v>
   <v>       0.39572500       0.93673000       0.88531750 </v>
   <v>       0.02141500       0.81227500       0.07284750 </v>
   <v>       0.33289000       0.87625500       0.29155500 </v>
   <v>       0.45828500       0.75070500       0.22884250 </v>
   <v>       0.62552000       0.87374500       0.18878000 </v>
   <v>       0.99955500       0.99856000       0.00097750 </v>
   <v>       0.68753000       0.68756000       0.52992000 </v>
   <v>       0.81234000       0.56179500       0.46926500 </v>
   <v>       0.62523500       0.62622500       0.43665250 </v>
   <v>       0.74965000       0.50016500       0.37632000 </v>
   <v>       0.87544000       0.87420500       0.31234500 </v>
   <v>       0.49989000       0.75085000       0.49831000 </v>
   <v>       0.81230000       0.81346000       0.21828500 </v>
   <v>       0.64612500       0.93832500       0.51050750 </v>
   <v>       0.70830000       0.74878000       0.35429000 </v>
   <v>       0.64574500       0.68778500       0.26141250 </v>
   <v>       0.89572500       0.93673000       0.13531750 </v>
   <v>       0.52141500       0.81227500       0.32284750 </v>
   <v>       0.83289000       0.87625500       0.54155500 </v>
   <v>       0.95828500       0.75070500       0.47884250 </v>
   <v>       0.62552000       0.37374500       0.68878000 </v>
   <v>       0.99955500       0.49856000       0.50097750 </v>
   <v>       0.68753000       0.18756000       0.02992000 </v>
   <v>       0.81234000       0.06179500       0.96926500 </v>
   <v>       0.62523500       0.12622500       0.93665250 </v>
   <v>       0.74965000       0.00016500       0.87632000 </v>
   <v>       0.87544000       0.37420500       0.81234500 </v>
   <v>       0.49989000       0.25085000       0.99831000 </v>
   <v>       0.81230000       0.31346000       0.71828500 </v>
   <v>       0.64612500       0.43832500       0.01050750 </v>
   <v>       0.70830000       0.24878000       0.85429000 </v>
   <v>       0.64574500       0.18778500       0.76141250 </v>
   <v>       0.89572500       0.43673000       0.63531750 </v>
   <v>       0.52141500       0.31227500       0.82284750 </v>
   <v>       0.83289000       0.37625500       0.04155500 </v>
   <v>       0.95828500       0.25070500       0.97884250 </v>
   <v>       0.62552000       0.87374500       0.68878000 </v>
   <v>       0.99955500       0.99856000       0.50097750 </v>
   <v>       0.68753000       0.68756000       0.02992000 </v>
   <v>       0.81234000       0.56179500       0.96926500 </v>
   <v>       0.62523500       0.62622500       0.93665250 </v>
   <v>       0.74965000       0.50016500       0.87632000 </v>
   <v>       0.87544000       0.87420500       0.81234500 </v>
   <v>       0.49989000       0.75085000       0.99831000 </v>
   <v>       0.81230000       0.81346000       0.71828500 </v>
   <v>       0.64612500       0.93832500       0.01050750 </v>
   <v>       0.70830000       0.74878000       0.85429000 </v>
   <v>       0.64574500       0.68778500       0.76141250 </v>
   <v>       0.89572500       0.93673000       0.63531750 </v>
   <v>       0.52141500       0.81227500       0.82284750 </v>
   <v>       0.83289000       0.87625500       0.04155500 </v>
   <v>       0.95828500       0.75070500       0.97884250 </v>
  </varray>
 </structure>
 <calculation>
  <scstep>
   <time name="diag">   67.34   68.32</time>
   <time name="diis">  158.69  160.34</time>
   <time name="orth">   22.64   22.83</time>
   <time name="total">  248.94  251.75</time>
   <energy>
    <i name="alphaZ">  17820.12086445 </i>
    <i name="ewald">-159082.73615276 </i>
    <i name="hartreedc"> -10367.10443844 </i>
    <i name="XCdc">  -6287.82239998 </i>
    <i name="pawpsdc"> 107387.23103886 </i>
    <i name="pawaedc"> -95870.62587529 </i>
    <i name="eentropy">      0.02008806 </i>
    <i name="bandstr">  30145.85731765 </i>
    <i name="atom"> 129934.13886476 </i>
    <i name="e_fr_energy">  13679.07930731 </i>
    <i name="e_wo_entrp">  13679.05921925 </i>
    <i name="e_0_energy">  13679.07261129 </i>
   </energy>
  </scstep>
  <scstep>
   <time name="diag">   67.13   67.74</time>
   <time name="diis">  158.29  160.24</time>
   <time name="orth">   22.19   22.48</time>
   <time name="total">  247.62  250.48</time>
   <energy>
    <i name="e_fr_energy">   1313.35598129 </i>
    <i name="e_wo_entrp">   1313.36095561 </i>
    <i name="e_0_energy">   1313.35763940 </i>
   </energy>
  </scstep>
  <scstep>
   <time name="diag">   67.14   67.84</time>
   <time name="diis">  157.84  160.10</time>
   <time name="orth">   22.01   22.12</time>
   <time name="total">  247.00  250.07</time>
   <energy>
    <i name="e_fr_energy">  -1045.66747892 </i>
    <i name="e_wo_entrp">  -1045.68107502 </i>
    <i name="e_0_energy">  -1045.67201095 </i>
   </energy>
  </scstep>
  <scstep>
   <time name="diag">   67.86   68.46</time>
   <time name="diis">  158.20  160.60</time>
   <time name="orth">   22.03   22.13</time>
   <time name="total">  248.11  251.21</time>
   <energy>
    <i name="e_fr_energy">  -1845.99479890 </i>
    <i name="e_wo_entrp">  -1845.98298825 </i>
    <i name="e_0_energy">  -1845.99086202 </i>
   </energy>
  </scstep>
  <scstep>
   <time name="diag">   67.72   68.45</time>
   <time name="diis">  158.35  160.39</time>
   <time name="orth">   22.22   22.56</time>
   <time name="total">  248.31  251.42</time>
   <energy>
    <i name="e_fr_energy">  -2129.10751593 </i>
    <i name="e_wo_entrp">  -2129.11015180 </i>
    <i name="e_0_energy">  -2129.10839455 </i>
   </energy>
  </scstep>
  <scstep>
   <time name="diag">   67.20   67.72</time>
   <time name="diis">  158.78  160.41</time>
   <time name="orth">   22.08   22.32</time>
   <time name="total">  248.07  250.46</time>
   <energy>
    <i name="e_fr_energy">  -2274.82542190 </i>
    <i name="e_wo_entrp">  -2274.83047079 </i>
    <i name="e_0_energy">  -2274.82710486 </i>
   </energy>
  </scstep>
  <scstep>
   <time name="diag">   67.63   68.14</time>
   <time name="diis">  158.58  160.62</time>
   <time name="orth">   21.85   21.96</time>
   <time name="total">  248.07  250.74</time>
   <energy>
    <i name="e_fr_energy">  -2352.68834690 </i>
    <i name="e_wo_entrp">  -2352.69507667 </i>
    <i name="e_0_energy">  -2352.69059015 </i>
   </energy>
  </scstep>
  <scstep>
   <time name="diag">   67.67   68.28</time>
   <time name="diis">  158.40  160.09</time>
   <time name="orth">   22.45   22.68</time>
   <time name="total">  248.53  251.06</time>
   <energy>
    <i name="e_fr_energy">  -2400.18576402 </i>
    <i name="e_wo_entrp">  -2400.19089083 </i>
    <i name="e_0_energy">  -2400.18747296 </i>
   </energy>
  </scstep>
  <scstep>
   <time name="diag">   67.31   67.80</time>
   <time name="diis">  437.69  443.03</time>
   <time name="orth">   21.71   21.82</time>
   <time name="total">  526.73  532.66</time>
   <energy>
    <i name="e_fr_energy">  -2479.08363395 </i>
    <i name="e_wo_entrp">  -2479.07745996 </i>
    <i name="e_0_energy">  -2479.08157595 </i>
   </energy>
  </scstep>
  <scstep>
   <time name="diag">   67.18   68.27</time>
   <time name="diis">  482.27  488.30</time>
   <time name="orth">   22.17   22.50</time>
   <time name="total">  571.64  579.08</time>
   <energy>
    <i name="e_fr_energy">  -2488.63910902 </i>
    <i name="e_wo_entrp">  -2488.62528304 </i>
    <i name="e_0_energy">  -2488.63450036 </i>
   </energy>
  </scstep>
  <scstep>
   <time name="diag">   67.54   68.16</time>
   <time name="diis">  466.39  472.33</time>
   <time name="orth">   22.38   22.72</time>
   <time name="total">  556.33  563.22</time>
   <energy>
    <i name="e_fr_energy">  -2490.87992696 </i>
    <i name="e_wo_entrp">  -2490.86759728 </i>
    <i name="e_0_energy">  -2490.87581707 </i>
   </energy>
  </scstep>
  <scstep>
   <time name="diag">   66.74   67.66</time>
   <time name="diis">  483.87  489.02</time>
   <time name="orth">   21.80   22.09</time>
   <time name="total">  590.53  597.09</time>
   <energy>
    <i name="e_fr_energy">  -2491.18599491 </i>
    <i name="e_wo_entrp">  -2491.17315590 </i>
    <i name="e_0_energy">  -2491.18171524 </i>
   </energy>
  </scstep>
  <scstep>
   <time name="diag">   67.82   68.65</time>
   <time name="diis">  348.85  353.00</time>
   <time name="orth">   21.92   22.03</time>
   <time name="total">  457.47  462.71</time>
   <energy>
    <i name="e_fr_energy">  -2413.66001693 </i>
    <i name="e_wo_entrp">  -2413.65321240 </i>
    <i name="e_0_energy">  -2413.65774875 </i>
   </energy>
  </scstep>
  <scstep>
   <time name="diag">   67.17   68.28</time>
   <time name="diis">  315.60  320.03</time>
   <time name="orth">   22.18   22.41</time>
   <time name="total">  423.62  429.44</time>
   <energy>
    <i name="e_fr_energy">  -2367.76617871 </i>
    <i name="e_wo_entrp">  -2367.76916134 </i>
    <i name="e_0_energy">  -2367.76717292 </i>
   </energy>
  </scstep>
  <scstep>
   <time name="diag">   66.82   67.56</time>
   <time name="diis">  326.47  330.28</time>
   <time name="orth">   22.27   22.65</time>
   <time name="total">  434.31  439.41</time>
   <energy>
    <i name="e_fr_energy">  -2335.62684157 </i>
    <i name="e_wo_entrp">  -2335.62340074 </i>
    <i name="e_0_energy">  -2335.62569463 </i>
   </energy>
  </scstep>
  <scstep>
   <time name="diag">   67.42   68.22</time>
   <time name="diis">  340.95  345.41</time>
   <time name="orth">   21.96   22.07</time>
   <time name="total">  448.87  454.48</time>
   <energy>
    <i name="e_fr_energy">  -2321.32635429 </i>
    <i name="e_wo_entrp">  -2321.32461291 </i>
    <i name="e_0_energy">  -2321.32577383 </i>
   </energy>
  </scstep>
  <scstep>
   <time name="diag">   67.44   68.08</time>
   <time name="diis">  444.51  449.93</time>
   <time name="orth">   22.18   22.53</time>
   <time name="total">  552.93  559.81</time>
   <energy>
    <i name="e_fr_energy">  -2321.52117830 </i>
    <i name="e_wo_entrp">  -2321.52309349 </i>
    <i name="e_0_energy">  -2321.52181670 </i>
   </energy>
  </scstep>
  <scstep>
   <time name="diag">   67.11   67.69</time>
   <time name="diis">  393.45  398.24</time>
   <time name="orth">   21.80   22.09</time>
   <time name="total">  500.70  506.73</time>
   <energy>
    <i name="e_fr_energy">  -2321.13607909 </i>
    <i name="e_wo_entrp">  -2321.13717867 </i>
    <i name="e_0_energy">  -2321.13644562 </i>
   </energy>
  </scstep>
  <scstep>
   <time name="diag">   67.13   67.73</time>
   <time name="diis">  363.99  368.27</time>
   <time name="orth">   22.12   22.31</time>
   <time name="total">  471.91  477.09</time>
   <energy>
    <i name="e_fr_energy">  -2320.74664541 </i>
    <i name="e_wo_entrp">  -2320.74461918 </i>
    <i name="e_0_energy">  -2320.74597000 </i>
   </energy>
  </scstep>
  <scstep>
   <time name="diag">   67.59   68.43</time>
   <time name="diis">  382.87  387.58</time>
   <time name="orth">   21.89   21.95</time>
   <time name="total">  490.81  496.60</time>
   <energy>
    <i name="e_fr_energy">  -2320.69208105 </i>
    <i name="e_wo_entrp">  -2320.69119608 </i>
    <i name="e_0_energy">  -2320.69178606 </i>
   </energy>
  </scstep>
  <scstep>
   <time name="diag">   67.39   67.97</time>
   <time name="diis">  384.54  388.90</time>
   <time name="orth">   21.89   22.17</time>
   <time name="total">  492.47  498.23</time>
   <energy>
    <i name="e_fr_energy">  -2320.65961083 </i>
    <i name="e_wo_entrp">  -2320.65970819 </i>
    <i name="e_0_energy">  -2320.65964328 </i>
   </energy>
  </scstep>
  <scstep>
   <time name="diag">   67.24   67.78</time>
   <time name="diis">  374.46  379.23</time>
   <time name="orth">   22.06   22.28</time>
   <time name="total">  482.35  488.03</time>
   <energy>
    <i name="e_fr_energy">  -2320.63351931 </i>
    <i name="e_wo_entrp">  -2320.63362211 </i>
    <i name="e_0_energy">  -2320.63355358 </i>
   </energy>
  </scstep>
  <scstep>
   <time name="diag">   67.24   68.07</time>
   <time name="diis">  409.78  414.29</time>
   <time name="orth">   21.89   22.19</time>
   <time name="total">  517.56  523.41</time>
   <energy>
    <i name="e_fr_energy">  -2320.62817041 </i>
    <i name="e_wo_entrp">  -2320.62822607 </i>
    <i name="e_0_energy">  -2320.62818896 </i>
   </energy>
  </scstep>
  <scstep>
   <time name="diag">   67.42   68.33</time>
   <time name="diis">  379.10  384.21</time>
   <time name="orth">   22.38   22.60</time>
   <time name="total">  487.40  493.90</time>
   <energy>
    <i name="e_fr_energy">  -2320.62446602 </i>
    <i name="e_wo_entrp">  -2320.62446396 </i>
    <i name="e_0_energy">  -2320.62446533 </i>
   </energy>
  </scstep>
  <scstep>
   <time name="diag">   67.08   67.85</time>
   <time name="diis">  400.70  406.05</time>
   <time name="orth">   21.80   21.91</time>
   <time name="total">  508.45  514.82</time>
   <energy>
    <i name="e_fr_energy">  -2320.62550750 </i>
    <i name="e_wo_entrp">  -2320.62546843 </i>
    <i name="e_0_energy">  -2320.62549447 </i>
   </energy>
  </scstep>
  <scstep>
   <time name="diag">   67.38   68.26</time>
   <time name="diis">  457.45  463.33</time>
   <time name="orth">   21.92   22.02</time>
   <time name="total">  565.33  572.51</time>
   <energy>
    <i name="e_fr_energy">  -2320.62557036 </i>
    <i name="e_wo_entrp">  -2320.62552822 </i>
    <i name="e_0_energy">  -2320.62555632 </i>
   </energy>
  </scstep>
  <scstep>
   <time name="diag">   66.74   67.88</time>
   <time name="diis">  369.18  373.45</time>
   <time name="orth">   21.97   22.07</time>
   <time name="total">  476.49  482.39</time>
   <energy>
    <i name="e_fr_energy">  -2320.62468398 </i>
    <i name="e_wo_entrp">  -2320.62465749 </i>
    <i name="e_0_energy">  -2320.62467515 </i>
   </energy>
  </scstep>
  <scstep>
   <time name="diag">   66.77   67.41</time>
   <time name="diis">  385.14  389.14</time>
   <time name="orth">   22.21   22.39</time>
   <time name="total">  492.69  497.56</time>
   <energy>
    <i name="e_fr_energy">  -2320.62411563 </i>
    <i name="e_wo_entrp">  -2320.62412305 </i>
    <i name="e_0_energy">  -2320.62411810 </i>
   </energy>
  </scstep>
  <scstep>
   <time name="diag">   66.57   67.58</time>
   <time name="diis">  439.85  446.31</time>
   <time name="orth">   22.22   22.43</time>
   <time name="total">  528.91  536.58</time>
   <energy>
    <i name="alphaZ">  17820.12086445 </i>
    <i name="ewald">-159082.73615276 </i>
    <i name="hartreedc">  -7962.44646053 </i>
    <i name="XCdc">  -6307.35195624 </i>
    <i name="pawpsdc"> 121925.46815014 </i>
    <i name="pawaedc">-111099.40433500 </i>
    <i name="eentropy">      0.00001494 </i>
    <i name="bandstr">  12451.58694712 </i>
    <i name="atom"> 129934.13886476 </i>
    <i name="e_fr_energy">  -2320.62406312 </i>
    <i name="e_wo_entrp">  -2320.62407806 </i>
    <i name="e_0_energy">  -2320.62406810 </i>
   </energy>
  </scstep>
  <structure>
   <crystal>
    <varray name="basis" >
     <v>       5.48320000     -14.25407000       4.35211000 </v>
     <v>     -10.97158000      -9.50382000       8.70700000 </v>
     <v>     -10.97268000      -9.50770000      -8.71242000 </v>
    </varray>
    <i name="volume">   3632.42828475 </i>
    <varray name="rec_basis" >
     <v>       0.04558516      -0.05261718       0.00000884 </v>
     <v>      -0.04557998      -0.00000485       0.05741007 </v>
     <v>      -0.02278050      -0.02628868      -0.05739990 </v>
    </varray>
   </crystal>
   <varray name="positions" >
    <v>       0.24961500       0.25116000       0.87474750 </v>
    <v>       0.37462500       0.12471000       0.81183750 </v>
    <v>       0.06264000       0.31198500       0.84450000 </v>
    <v>       0.06345000       0.06286500       0.59341500 </v>
    <v>       0.43715000       0.43626500       0.65842500 </v>
    <v>       0.18774000       0.43608000       0.53137000 </v>
    <v>       0.43778500       0.19000000       0.40508750 </v>
    <v>       0.27102000       0.31327500       0.69738000 </v>
    <v>       0.39571500       0.18779500       0.63473250 </v>
    <v>       0.02156000       0.06211500       0.82305500 </v>
    <v>       0.08285000       0.37426000       0.66685000 </v>
    <v>       0.33244500       0.12499000       0.54249250 </v>
    <v>       0.27037500       0.06213000       0.44856250 </v>
    <v>       0.08317500       0.12555000       0.91594750 </v>
    <v>       0.45837000       0.49946000       0.47964000 </v>
    <v>       0.20886500       0.49992000       0.85301250 </v>
    <v>       0.24961500       0.75116000       0.87474750 </v>
    <v>       0.37462500       0.62471000       0.81183750 </v>
    <v>       0.06264000       0.81198500       0.84450000 </v>
    <v>       0.06345500       0.56286500       0.59341250 </v>
    <v>       0.43715000       0.93626500       0.65843000 </v>
    <v>       0.18774000       0.93608000       0.53136500 </v>
    <v>       0.43778500       0.69000000       0.40508750 </v>
    <v>       0.27102000       0.81327500       0.69738000 </v>
    <v>       0.39571500       0.68779500       0.63473250 </v>
    <v>       0.02156000       0.56211500       0.82305500 </v>
    <v>       0.08285000       0.87426000       0.66685000 </v>
    <v>       0.33244500       0.62499000       0.54249250 </v>
    <v>       0.27037500       0.56213000       0.44856250 </v>
    <v>       0.08317500       0.62555000       0.91594750 </v>
    <v>       0.45837000       0.99946000       0.47964000 </v>
    <v>       0.20886500       0.99992000       0.85301250 </v>
    <v>       0.24961500       0.25116000       0.37474750 </v>
    <v>       0.37462500       0.12471000       0.31183750 </v>
    <v>       0.06264000       0.31198500       0.34450000 </v>
    <v>       0.06345500       0.06286500       0.09341250 </v>
    <v>       0.43715000       0.43626500       0.15842500 </v>
    <v>       0.18774000       0.43608000       0.03137000 </v>
    <v>       0.43778500       0.19000000       0.90508750 </v>
    <v>       0.27102000       0.31327500       0.19738000 </v>
    <v>       0.39571500       0.18779500       0.13473250 </v>
    <v>       0.02156000       0.06211500       0.32305500 </v>
    <v>       0.08285000       0.37426000       0.16685000 </v>
    <v>       0.33244500       0.12499000       0.04249250 </v>
    <v>       0.27037500       0.06213000       0.94856250 </v>
    <v>       0.08317500       0.12555000       0.41594750 </v>
    <v>       0.45837000       0.49946000       0.97964000 </v>
    <v>       0.20886500       0.49992000       0.35301250 </v>
    <v>       0.74961500       0.25116000       0.62474750 </v>
    <v>       0.87462500       0.12471000       0.56183750 </v>
    <v>       0.56264000       0.31198500       0.59450000 </v>
    <v>       0.56345000       0.06286500       0.34341500 </v>
    <v>       0.93715000       0.43626500       0.40842500 </v>
    <v>       0.68774000       0.43608000       0.28137000 </v>
    <v>       0.93778500       0.19000000       0.15508750 </v>
    <v>       0.77102000       0.31327500       0.44738000 </v>
    <v>       0.89571500       0.18779500       0.38473250 </v>
    <v>       0.52156000       0.06211500       0.57305500 </v>
    <v>       0.58285000       0.37426000       0.41685000 </v>
    <v>       0.83244500       0.12499000       0.29249750 </v>
    <v>       0.77037500       0.06213000       0.19856250 </v>
    <v>       0.58317500       0.12555000       0.66594750 </v>
    <v>       0.95837000       0.49946000       0.22964000 </v>
    <v>       0.70886500       0.49992000       0.60301250 </v>
    <v>       0.24961500       0.75116000       0.37474750 </v>
    <v>       0.37462500       0.62471000       0.31183750 </v>
    <v>       0.06264000       0.81198500       0.34450000 </v>
    <v>       0.06345500       0.56286500       0.09341250 </v>
    <v>       0.43715000       0.93626500       0.15842500 </v>
    <v>       0.18774000       0.93608000       0.03137000 </v>
    <v>       0.43778500       0.69000000       0.90508750 </v>
    <v>       0.27102000       0.81327500       0.19738000 </v>
    <v>       0.39571500       0.68779500       0.13473250 </v>
    <v>       0.02156000       0.56211500       0.32305500 </v>
    <v>       0.08285000       0.87426000       0.16685000 </v>
    <v>       0.33244500       0.62499000       0.04249250 </v>
    <v>       0.27037500       0.56213000       0.94856250 </v>
    <v>       0.08317500       0.62555000       0.41594750 </v>
    <v>       0.45837000       0.99946000       0.97964000 </v>
    <v>       0.20886500       0.99992000       0.35301250 </v>
    <v>       0.74961500       0.75116000       0.62474750 </v>
    <v>       0.87462500       0.62471000       0.56183750 </v>
    <v>       0.56264000       0.81198500       0.59450000 </v>
    <v>       0.56345000       0.56286500       0.34341500 </v>
    <v>       0.93715000       0.93626500       0.40842500 </v>
    <v>       0.68774000       0.93608000       0.28136500 </v>
    <v>       0.93778500       0.69000000       0.15508750 </v>
    <v>       0.77102000       0.81327500       0.44738000 </v>
    <v>       0.89571500       0.68779500       0.38473250 </v>
    <v>       0.52156000       0.56211500       0.57305500 </v>
    <v>       0.58285000       0.87426000       0.41685000 </v>
    <v>       0.83244500       0.62499000       0.29249250 </v>
    <v>       0.77037500       0.56213000       0.19856250 </v>
    <v>       0.58317500       0.62555000       0.66594750 </v>
    <v>       0.95837000       0.99946000       0.22964000 </v>
    <v>       0.70886500       0.99992000       0.60301250 </v>
    <v>       0.74961500       0.25116000       0.12474750 </v>
    <v>       0.87462500       0.12471000       0.06183750 </v>
    <v>       0.56264000       0.31198500       0.09450000 </v>
    <v>       0.56345000       0.06286500       0.84341500 </v>
    <v>       0.93715000       0.43626500       0.90842500 </v>
    <v>       0.68774000       0.43608000       0.78137000 </v>
    <v>       0.93778500       0.19000000       0.65508750 </v>
    <v>       0.77102000       0.31327500       0.94738000 </v>
    <v>       0.89361000       0.18779500       0.88368000 </v>
    <v>       0.52156000       0.06211500       0.07305500 </v>
    <v>       0.58285000       0.37426000       0.91685000 </v>
    <v>       0.83244500       0.12499000       0.79249750 </v>
    <v>       0.77037500       0.06213000       0.69856250 </v>
    <v>       0.58317500       0.12555000       0.16594750 </v>
    <v>       0.95837000       0.49946000       0.72964000 </v>
    <v>       0.70886500       0.49992000       0.10301250 </v>
    <v>       0.74961500       0.75116000       0.12474750 </v>
    <v>       0.87462500       0.62471000       0.06183750 </v>
    <v>       0.56264000       0.81198500       0.09450000 </v>
    <v>       0.56345000       0.56286500       0.84341500 </v>
    <v>       0.93715000       0.93626500       0.90843000 </v>
    <v>       0.68774000       0.93608000       0.78137000 </v>
    <v>       0.93778500       0.69000000       0.65508750 </v>
    <v>       0.77102000       0.81327500       0.94738000 </v>
    <v>       0.89571500       0.68779500       0.88473250 </v>
    <v>       0.52156000       0.56211500       0.07305500 </v>
    <v>       0.58285000       0.87426000       0.91685000 </v>
    <v>       0.83244500       0.62499000       0.79249250 </v>
    <v>       0.77037500       0.56213000       0.69856250 </v>
    <v>       0.58317500       0.62555000       0.16594750 </v>
    <v>       0.95837000       0.99946000       0.72964000 </v>
    <v>       0.70886500       0.99992000       0.10301250 </v>
    <v>       0.12552000       0.37374500       0.43878000 </v>
    <v>       0.49955500       0.49856000       0.25097750 </v>
    <v>       0.18753000       0.18756000       0.77992000 </v>
    <v>       0.31234000       0.06179500       0.71926500 </v>
    <v>       0.12523500       0.12622500       0.68665250 </v>
    <v>       0.24965000       0.00016500       0.62632000 </v>
    <v>       0.37544000       0.37420500       0.56234500 </v>
    <v>       0.99989000       0.25085000       0.74831000 </v>
    <v>       0.31230000       0.31346000       0.46828500 </v>
    <v>       0.14612500       0.43832500       0.76050750 </v>
    <v>       0.20830000       0.24878000       0.60429000 </v>
    <v>       0.14574500       0.18778500       0.51141250 </v>
    <v>       0.39572500       0.43673000       0.38531750 </v>
    <v>       0.02141500       0.31227500       0.57284750 </v>
    <v>       0.33289000       0.37625500       0.79155500 </v>
    <v>       0.45828500       0.25070500       0.72884250 </v>
    <v>       0.12552000       0.87374500       0.43878000 </v>
    <v>       0.49955500       0.99856000       0.25097750 </v>
    <v>       0.18753000       0.68756000       0.77992000 </v>
    <v>       0.31234000       0.56179500       0.71926500 </v>
    <v>       0.12523500       0.62622500       0.68665250 </v>
    <v>       0.24965000       0.50016500       0.62632000 </v>
    <v>       0.37544000       0.87420500       0.56234500 </v>
    <v>       0.99989000       0.75085000       0.74831000 </v>
    <v>       0.31230000       0.81346000       0.46828500 </v>
    <v>       0.14612500       0.93832500       0.76050750 </v>
    <v>       0.20830000       0.74878000       0.60429000 </v>
    <v>       0.14574500       0.68778500       0.51141250 </v>
    <v>       0.39572500       0.93673000       0.38531750 </v>
    <v>       0.02141500       0.81227500       0.57284750 </v>
    <v>       0.33289000       0.87625500       0.79155500 </v>
    <v>       0.45828500       0.75070500       0.72884250 </v>
    <v>       0.12552000       0.37374500       0.93878000 </v>
    <v>       0.49955500       0.49856000       0.75097750 </v>
    <v>       0.18753000       0.18756000       0.27992000 </v>
    <v>       0.31234000       0.06179500       0.21926500 </v>
    <v>       0.12523500       0.12622500       0.18665250 </v>
    <v>       0.24965000       0.00016500       0.12632000 </v>
    <v>       0.37544000       0.37420500       0.06234500 </v>
    <v>       0.99989000       0.25085000       0.24831000 </v>
    <v>       0.31230000       0.31346000       0.96828500 </v>
    <v>       0.14612500       0.43832500       0.26050750 </v>
    <v>       0.20830000       0.24878000       0.10429000 </v>
    <v>       0.14574500       0.18778500       0.01141250 </v>
    <v>       0.39572500       0.43673000       0.88531750 </v>
    <v>       0.02141500       0.31227500       0.07284750 </v>
    <v>       0.33289000       0.37625500       0.29155500 </v>
    <v>       0.45828500       0.25070500       0.22884250 </v>
    <v>       0.62552000       0.37374500       0.18878000 </v>
    <v>       0.99955500       0.49856000       0.00097750 </v>
    <v>       0.68753000       0.18756000       0.52992000 </v>
    <v>       0.81234000       0.06179500       0.46926500 </v>
    <v>       0.62523500       0.12622500       0.43665250 </v>
    <v>       0.74965000       0.00016500       0.37632000 </v>
    <v>       0.87544000       0.37420500       0.31234500 </v>
    <v>       0.49989000       0.25085000       0.49831000 </v>
    <v>       0.81230000       0.31346000       0.21828500 </v>
    <v>       0.64612500       0.43832500       0.51050750 </v>
    <v>       0.70830000       0.24878000       0.35429000 </v>
    <v>       0.64574500       0.18778500       0.26141250 </v>
    <v>       0.89572500       0.43673000       0.13531750 </v>
    <v>       0.52141500       0.31227500       0.32284750 </v>
    <v>       0.83289000       0.37625500       0.54155500 </v>
    <v>       0.95828500       0.25070500       0.47884250 </v>
    <v>       0.12552000       0.87374500       0.93878000 </v>
    <v>       0.49955500       0.99856000       0.75097750 </v>
    <v>       0.18753000       0.68756000       0.27992000 </v>
    <v>       0.31234000       0.56179500       0.21926500 </v>
    <v>       0.12523500       0.62622500       0.18665250 </v>
    <v>       0.24965000       0.50016500       0.12632000 </v>
    <v>       0.37544000       0.87420500       0.06234500 </v>
    <v>       0.99989000       0.75085000       0.24831000 </v>
    <v>       0.31230000       0.81346000       0.96828500 </v>
    <v>       0.14612500       0.93832500       0.26050750 </v>
    <v>       0.20830000       0.74878000       0.10429000 </v>
    <v>       0.14574500       0.68778500       0.01141250 </v>
    <v>       0.39572500       0.93673000       0.88531750 </v>
    <v>       0.02141500       0.81227500       0.07284750 </v>
    <v>       0.33289000       0.87625500       0.29155500 </v>
    <v>       0.45828500       0.75070500       0.22884250 </v>
    <v>       0.62552000       0.87374500       0.18878000 </v>
    <v>       0.99955500       0.99856000       0.00097750 </v>
    <v>       0.68753000       0.68756000       0.52992000 </v>
    <v>       0.81234000       0.56179500       0.46926500 </v>
    <v>       0.62523500       0.62622500       0.43665250 </v>
    <v>       0.74965000       0.50016500       0.37632000 </v>
    <v>       0.87544000       0.87420500       0.31234500 </v>
    <v>       0.49989000       0.75085000       0.49831000 </v>
    <v>       0.81230000       0.81346000       0.21828500 </v>
    <v>       0.64612500       0.93832500       0.51050750 </v>
    <v>       0.70830000       0.74878000       0.35429000 </v>
    <v>       0.64574500       0.68778500       0.26141250 </v>
    <v>       0.89572500       0.93673000       0.13531750 </v>
    <v>       0.52141500       0.81227500       0.32284750 </v>
    <v>       0.83289000       0.87625500       0.54155500 </v>
    <v>       0.95828500       0.75070500       0.47884250 </v>
    <v>       0.62552000       0.37374500       0.68878000 </v>
    <v>       0.99955500       0.49856000       0.50097750 </v>
    <v>       0.68753000       0.18756000       0.02992000 </v>
    <v>       0.81234000       0.06179500       0.96926500 </v>
    <v>       0.62523500       0.12622500       0.93665250 </v>
    <v>       0.74965000       0.00016500       0.87632000 </v>
    <v>       0.87544000       0.37420500       0.81234500 </v>
    <v>       0.49989000       0.25085000       0.99831000 </v>
    <v>       0.81230000       0.31346000       0.71828500 </v>
    <v>       0.64612500       0.43832500       0.01050750 </v>
    <v>       0.70830000       0.24878000       0.85429000 </v>
    <v>       0.64574500       0.18778500       0.76141250 </v>
    <v>       0.89572500       0.43673000       0.63531750 </v>
    <v>       0.52141500       0.31227500       0.82284750 </v>
    <v>       0.83289000       0.37625500       0.04155500 </v>
    <v>       0.95828500       0.25070500       0.97884250 </v>
    <v>       0.62552000       0.87374500       0.68878000 </v>
    <v>       0.99955500       0.99856000       0.50097750 </v>
    <v>       0.68753000       0.68756000       0.02992000 </v>
    <v>       0.81234000       0.56179500       0.96926500 </v>
    <v>       0.62523500       0.62622500       0.93665250 </v>
    <v>       0.74965000       0.50016500       0.87632000 </v>
    <v>       0.87544000       0.87420500       0.81234500 </v>
    <v>       0.49989000       0.75085000       0.99831000 </v>
    <v>       0.81230000       0.81346000       0.71828500 </v>
    <v>       0.64612500       0.93832500       0.01050750 </v>
    <v>       0.70830000       0.74878000       0.85429000 </v>
    <v>       0.64574500       0.68778500       0.76141250 </v>
    <v>       0.89572500       0.93673000       0.63531750 </v>
    <v>       0.52141500       0.81227500       0.82284750 </v>
    <v>       0.83289000       0.87625500       0.04155500 </v>
    <v>       0.95828500       0.75070500       0.97884250 </v>
   </varray>
  </structure>
  <varray name="forces" >
   <v>      -0.00035648       0.00940452       0.01220425 </v>
   <v>      -0.00633081       0.00239490       0.00201400 </v>
   <v>      -0.00277049       0.03551399      -0.01884921 </v>
   <v>       0.01164034       0.00660277      -0.00195272 </v>
   <v>      -0.00119038       0.01363798      -0.00626548 </v>
   <v>      -0.00755070      -0.00030414      -0.00112235 </v>
   <v>      -0.00028964       0.00346878       0.00490161 </v>
   <v>       0.00020166      -0.01698633      -0.00215306 </v>
   <v>      -0.00399835      -0.01093316      -0.00204833 </v>
   <v>       0.00921941      -0.00695410      -0.00207966 </v>
   <v>       0.00853594      -0.00211208      -0.00528003 </v>
   <v>      -0.00974957      -0.00659061      -0.00381930 </v>
   <v>       0.00409348      -0.00841101       0.00389835 </v>
   <v>      -0.05084593       0.04113558      -0.00245515 </v>
   <v>      -0.00359661       0.00034707       0.00233459 </v>
   <v>       0.01420158      -0.01143409       0.00274711 </v>
   <v>       0.00084227       0.01099791       0.01261834 </v>
   <v>      -0.00987106       0.00158685       0.00031775 </v>
   <v>      -0.00169327       0.01776045       0.00004174 </v>
   <v>       0.01068642       0.00973136      -0.00681068 </v>
   <v>      -0.00119471       0.01661589      -0.00580099 </v>
   <v>      -0.01028608       0.00111324      -0.00325847 </v>
   <v>       0.00028542       0.00349234       0.00479225 </v>
   <v>       0.00013709      -0.01567700      -0.00227382 </v>
   <v>      -0.00320458      -0.01263390      -0.00128837 </v>
   <v>      -0.01199408      -0.00670279      -0.00157811 </v>
   <v>       0.00980791      -0.00753653       0.00055939 </v>
   <v>      -0.00957032      -0.00605448      -0.00335371 </v>
   <v>       0.00431424      -0.00624608       0.00298834 </v>
   <v>       0.00332978      -0.01880931      -0.00110302 </v>
   <v>      -0.00330440       0.00193880       0.00158593 </v>
   <v>       0.01274967      -0.00185004       0.00284779 </v>
   <v>      -0.00068467       0.01112617       0.01214138 </v>
   <v>      -0.00953727       0.00072834       0.00083512 </v>
   <v>      -0.00095212       0.01892849       0.00143888 </v>
   <v>       0.00996483       0.02446568       0.01643334 </v>
   <v>      -0.00103853       0.01535215      -0.00566363 </v>
   <v>      -0.00859254       0.00105986      -0.00109016 </v>
   <v>      -0.00044276       0.00092904       0.00563475 </v>
   <v>      -0.00014692      -0.01641815      -0.00275538 </v>
   <v>      -0.00374293      -0.01094571      -0.00089229 </v>
   <v>      -0.01182579      -0.00786487      -0.00227868 </v>
   <v>       0.01286618      -0.00205583       0.00054426 </v>
   <v>      -0.01049349      -0.00861534      -0.00333031 </v>
   <v>      -0.00062316      -0.00000709       0.00410145 </v>
   <v>       0.00323135      -0.01867650      -0.00034781 </v>
   <v>      -0.00263071       0.00063289       0.00135797 </v>
   <v>       0.01366700      -0.01106397       0.00285613 </v>
   <v>       0.00116810       0.01947328       0.01573167 </v>
   <v>      -0.00971733       0.00172035      -0.00033376 </v>
   <v>      -0.00197981       0.01970685       0.00077646 </v>
   <v>       0.01195260       0.00910331      -0.00277429 </v>
   <v>       0.00068806       0.01288139      -0.00491938 </v>
   <v>      -0.00845877       0.00104713      -0.00221705 </v>
   <v>       0.00365471       0.00978020       0.00194936 </v>
   <v>      -0.00224138      -0.01819522      -0.00285771 </v>
   <v>      -0.00275559      -0.01108705      -0.00082033 </v>
   <v>      -0.01149320      -0.00679948      -0.00191409 </v>
   <v>       0.01114241      -0.00580147       0.00153439 </v>
   <v>      -0.00967766      -0.00514353      -0.00365613 </v>
   <v>       0.00598532      -0.00776437       0.00101905 </v>
   <v>       0.00415103      -0.02181562      -0.00048067 </v>
   <v>      -0.00399577      -0.00007539       0.00225701 </v>
   <v>       0.00916463      -0.00668533       0.00602143 </v>
   <v>      -0.00057100       0.01131328       0.01150828 </v>
   <v>      -0.00914163       0.00201937       0.00061170 </v>
   <v>      -0.00182653       0.02008102       0.00421602 </v>
   <v>       0.01203436       0.00820846      -0.00431601 </v>
   <v>      -0.00230802       0.01526498      -0.00690166 </v>
   <v>      -0.01239039       0.00580084      -0.00267251 </v>
   <v>       0.00001803       0.00286912       0.00424747 </v>
   <v>       0.00030275      -0.01864205      -0.00290052 </v>
   <v>      -0.00412479      -0.01266383      -0.00060000 </v>
   <v>      -0.01006973      -0.00248485      -0.00210583 </v>
   <v>       0.00880731      -0.00164757       0.00647502 </v>
   <v>      -0.00920557      -0.00622363      -0.00328840 </v>
   <v>       0.00432521      -0.00745957       0.00351026 </v>
   <v>       0.00354061      -0.01923830       0.00011466 </v>
   <v>      -0.00865751       0.01079493       0.00084796 </v>
   <v>       0.01475863      -0.01059562       0.00307807 </v>
   <v>      -0.00119774       0.01114813       0.01256627 </v>
   <v>      -0.00907516       0.00022016       0.00167580 </v>
   <v>      -0.00173666       0.01998010       0.00069263 </v>
   <v>       0.01211709       0.00807686      -0.00085698 </v>
   <v>      -0.00327814       0.01540134      -0.00741212 </v>
   <v>      -0.01196168      -0.00225791      -0.00527495 </v>
   <v>       0.00210793       0.00058202       0.00297501 </v>
   <v>       0.00064701      -0.01334314      -0.00229239 </v>
   <v>      -0.00435598      -0.01062881      -0.00131655 </v>
   <v>      -0.00969111      -0.00789124      -0.00227515 </v>
[...]
       <r>    10.9917    -0.5869  2637.2333 </r>
       <r>    11.0435    -0.1242  2637.2269 </r>
       <r>    11.0953    -0.0664  2637.2235 </r>
       <r>    11.1471    -0.0206  2637.2224 </r>
       <r>    11.1990    -0.0031  2637.2222 </r>
       <r>    11.2508    -0.0002  2637.2222 </r>
       <r>    11.3026    -0.0000  2637.2222 </r>
       <r>    11.3545    -0.0000  2637.2222 </r>
       <r>    11.4063    -0.0000  2637.2222 </r>
       <r>    11.4581    -0.0000  2637.2222 </r>
       <r>    11.5099    -0.0000  2637.2222 </r>
       <r>    11.5618    -0.0000  2637.2222 </r>
       <r>    11.6136    -0.0000  2637.2222 </r>
       <r>    11.6654    -0.0002  2637.2222 </r>
       <r>    11.7173    -0.0024  2637.2221 </r>
       <r>    11.7691    -0.0205  2637.2210 </r>
       <r>    11.8209    -0.0845  2637.2166 </r>
       <r>    11.8727    -0.0856  2637.2122 </r>
       <r>    11.9246     0.4962  2637.2379 </r>
       <r>    11.9764     1.8158  2637.3320 </r>
       <r>    12.0282     2.4967  2637.4614 </r>
       <r>    12.0801     1.7493  2637.5521 </r>
       <r>    12.1319     0.9363  2637.6006 </r>
       <r>    12.1837     0.6243  2637.6330 </r>
       <r>    12.2355     0.6155  2637.6649 </r>
       <r>    12.2874     1.7618  2637.7562 </r>
       <r>    12.3392     3.4715  2637.9361 </r>
       <r>    12.3910     3.8650  2638.1365 </r>
       <r>    12.4429     2.9648  2638.2901 </r>
       <r>    12.4947     1.7173  2638.3791 </r>
       <r>    12.5465     1.1576  2638.4391 </r>
       <r>    12.5984     1.7105  2638.5278 </r>
       <r>    12.6502     3.0385  2638.6853 </r>
       <r>    12.7020     4.5745  2638.9223 </r>
       <r>    12.7538     4.4731  2639.1542 </r>
       <r>    12.8057     2.8820  2639.3036 </r>
       <r>    12.8575     2.1962  2639.4174 </r>
       <r>    12.9093     2.2841  2639.5358 </r>
       <r>    12.9612     1.8765  2639.6330 </r>
       <r>    13.0130     1.3195  2639.7014 </r>
       <r>    13.0648     0.9643  2639.7514 </r>
       <r>    13.1166     0.7411  2639.7898 </r>
       <r>    13.1685     0.9089  2639.8369 </r>
       <r>    13.2203     1.2314  2639.9007 </r>
       <r>    13.2721     1.1825  2639.9620 </r>
       <r>    13.3240     0.6780  2639.9972 </r>
       <r>    13.3758     0.1437  2640.0046 </r>
       <r>    13.4276    -0.0482  2640.0021 </r>
       <r>    13.4794    -0.0328  2640.0004 </r>
       <r>    13.5313    -0.0071  2640.0000 </r>
       <r>    13.5831    -0.0007  2640.0000 </r>
       <r>    13.6349    -0.0000  2640.0000 </r>
       <r>    13.6868    -0.0000  2640.0000 </r>
       <r>    13.7386    -0.0000  2640.0000 </r>
       <r>    13.7904    -0.0000  2640.0000 </r>
       <r>    13.8422    -0.0000  2640.0000 </r>
       <r>    13.8941    -0.0000  2640.0000 </r>
       <r>    13.9459     0.0000  2640.0000 </r>
       <r>    13.9977     0.0000  2640.0000 </r>
       <r>    14.0496     0.0000  2640.0000 </r>
       <r>    14.1014     0.0000  2640.0000 </r>
       <r>    14.1532     0.0000  2640.0000 </r>
       <r>    14.2050     0.0000  2640.0000 </r>
       <r>    14.2569     0.0000  2640.0000 </r>
      </set>
     </set>
    </array>
   </total>
  </dos>
 </calculation>
 <structure name="finalpos" >
  <crystal>
   <varray name="basis" >
    <v>       5.48320000     -14.25407000       4.35211000 </v>
    <v>     -10.97158000      -9.50382000       8.70700000 </v>
    <v>     -10.97268000      -9.50770000      -8.71242000 </v>
   </varray>
   <i name="volume">   3632.42828475 </i>
   <varray name="rec_basis" >
    <v>       0.04558516      -0.05261718       0.00000884 </v>
    <v>      -0.04557998      -0.00000485       0.05741007 </v>
    <v>      -0.02278050      -0.02628868      -0.05739990 </v>
   </varray>
  </crystal>
  <varray name="positions" >
   <v>       0.24961500       0.25116000       0.87474750 </v>
   <v>       0.37462500       0.12471000       0.81183750 </v>
   <v>       0.06264000       0.31198500       0.84450000 </v>
   <v>       0.06345000       0.06286500       0.59341500 </v>
   <v>       0.43715000       0.43626500       0.65842500 </v>
   <v>       0.18774000       0.43608000       0.53137000 </v>
   <v>       0.43778500       0.19000000       0.40508750 </v>
   <v>       0.27102000       0.31327500       0.69738000 </v>
   <v>       0.39571500       0.18779500       0.63473250 </v>
   <v>       0.02156000       0.06211500       0.82305500 </v>
   <v>       0.08285000       0.37426000       0.66685000 </v>
   <v>       0.33244500       0.12499000       0.54249250 </v>
   <v>       0.27037500       0.06213000       0.44856250 </v>
   <v>       0.08317500       0.12555000       0.91594750 </v>
   <v>       0.45837000       0.49946000       0.47964000 </v>
   <v>       0.20886500       0.49992000       0.85301250 </v>
   <v>       0.24961500       0.75116000       0.87474750 </v>
   <v>       0.37462500       0.62471000       0.81183750 </v>
   <v>       0.06264000       0.81198500       0.84450000 </v>
   <v>       0.06345500       0.56286500       0.59341250 </v>
   <v>       0.43715000       0.93626500       0.65843000 </v>
   <v>       0.18774000       0.93608000       0.53136500 </v>
   <v>       0.43778500       0.69000000       0.40508750 </v>
   <v>       0.27102000       0.81327500       0.69738000 </v>
   <v>       0.39571500       0.68779500       0.63473250 </v>
   <v>       0.02156000       0.56211500       0.82305500 </v>
   <v>       0.08285000       0.87426000       0.66685000 </v>
   <v>       0.33244500       0.62499000       0.54249250 </v>
   <v>       0.27037500       0.56213000       0.44856250 </v>
   <v>       0.08317500       0.62555000       0.91594750 </v>
   <v>       0.45837000       0.99946000       0.47964000 </v>
   <v>       0.20886500       0.99992000       0.85301250 </v>
   <v>       0.24961500       0.25116000       0.37474750 </v>
   <v>       0.37462500       0.12471000       0.31183750 </v>
   <v>       0.06264000       0.31198500       0.34450000 </v>
   <v>       0.06345500       0.06286500       0.09341250 </v>
   <v>       0.43715000       0.43626500       0.15842500 </v>
   <v>       0.18774000       0.43608000       0.03137000 </v>
   <v>       0.43778500       0.19000000       0.90508750 </v>
   <v>       0.27102000       0.31327500       0.19738000 </v>
   <v>       0.39571500       0.18779500       0.13473250 </v>
   <v>       0.02156000       0.06211500       0.32305500 </v>
   <v>       0.08285000       0.37426000       0.16685000 </v>
   <v>       0.33244500       0.12499000       0.04249250 </v>
   <v>       0.27037500       0.06213000       0.94856250 </v>
   <v>       0.08317500       0.12555000       0.41594750 </v>
   <v>       0.45837000       0.49946000       0.97964000 </v>
   <v>       0.20886500       0.49992000       0.35301250 </v>
   <v>       0.74961500       0.25116000       0.62474750 </v>
   <v>       0.87462500       0.12471000       0.56183750 </v>
   <v>       0.56264000       0.31198500       0.59450000 </v>
   <v>       0.56345000       0.06286500       0.34341500 </v>
   <v>       0.93715000       0.43626500       0.40842500 </v>
   <v>       0.68774000       0.43608000       0.28137000 </v>
   <v>       0.93778500       0.19000000       0.15508750 </v>
   <v>       0.77102000       0.31327500       0.44738000 </v>
   <v>       0.89571500       0.18779500       0.38473250 </v>
   <v>       0.52156000       0.06211500       0.57305500 </v>
   <v>       0.58285000       0.37426000       0.41685000 </v>
   <v>       0.83244500       0.12499000       0.29249750 </v>
   <v>       0.77037500       0.06213000       0.19856250 </v>
   <v>       0.58317500       0.12555000       0.66594750 </v>
   <v>       0.95837000       0.49946000       0.22964000 </v>
   <v>       0.70886500       0.49992000       0.60301250 </v>
   <v>       0.24961500       0.75116000       0.37474750 </v>
   <v>       0.37462500       0.62471000       0.31183750 </v>
   <v>       0.06264000       0.81198500       0.34450000 </v>
   <v>       0.06345500       0.56286500       0.09341250 </v>
   <v>       0.43715000       0.93626500       0.15842500 </v>
   <v>       0.18774000       0.93608000       0.03137000 </v>
   <v>       0.43778500       0.69000000       0.90508750 </v>
   <v>       0.27102000       0.81327500       0.19738000 </v>
   <v>       0.39571500       0.68779500       0.13473250 </v>
   <v>       0.02156000       0.56211500       0.32305500 </v>
   <v>       0.08285000       0.87426000       0.16685000 </v>
   <v>       0.33244500       0.62499000       0.04249250 </v>
   <v>       0.27037500       0.56213000       0.94856250 </v>
   <v>       0.08317500       0.62555000       0.41594750 </v>
   <v>       0.45837000       0.99946000       0.97964000 </v>
   <v>       0.20886500       0.99992000       0.35301250 </v>
   <v>       0.74961500       0.75116000       0.62474750 </v>
   <v>       0.87462500       0.62471000       0.56183750 </v>
   <v>       0.56264000       0.81198500       0.59450000 </v>
   <v>       0.56345000       0.56286500       0.34341500 </v>
   <v>       0.93715000       0.93626500       0.40842500 </v>
   <v>       0.68774000       0.93608000       0.28136500 </v>
   <v>       0.93778500       0.69000000       0.15508750 </v>
   <v>       0.77102000       0.81327500       0.44738000 </v>
   <v>       0.89571500       0.68779500       0.38473250 </v>
   <v>       0.52156000       0.56211500       0.57305500 </v>
   <v>       0.58285000       0.87426000       0.41685000 </v>
   <v>       0.83244500       0.62499000       0.29249250 </v>
   <v>       0.77037500       0.56213000       0.19856250 </v>
   <v>       0.58317500       0.62555000       0.66594750 </v>
   <v>       0.95837000       0.99946000       0.22964000 </v>
   <v>       0.70886500       0.99992000       0.60301250 </v>
   <v>       0.74961500       0.25116000       0.12474750 </v>
   <v>       0.87462500       0.12471000       0.06183750 </v>
   <v>       0.56264000       0.31198500       0.09450000 </v>
   <v>       0.56345000       0.06286500       0.84341500 </v>
   <v>       0.93715000       0.43626500       0.90842500 </v>
   <v>       0.68774000       0.43608000       0.78137000 </v>
   <v>       0.93778500       0.19000000       0.65508750 </v>
   <v>       0.77102000       0.31327500       0.94738000 </v>
   <v>       0.89361000       0.18779500       0.88368000 </v>
   <v>       0.52156000       0.06211500       0.07305500 </v>
   <v>       0.58285000       0.37426000       0.91685000 </v>
   <v>       0.83244500       0.12499000       0.79249750 </v>
   <v>       0.77037500       0.06213000       0.69856250 </v>
   <v>       0.58317500       0.12555000       0.16594750 </v>
   <v>       0.95837000       0.49946000       0.72964000 </v>
   <v>       0.70886500       0.49992000       0.10301250 </v>
   <v>       0.74961500       0.75116000       0.12474750 </v>
   <v>       0.87462500       0.62471000       0.06183750 </v>
   <v>       0.56264000       0.81198500       0.09450000 </v>
   <v>       0.56345000       0.56286500       0.84341500 </v>
   <v>       0.93715000       0.93626500       0.90843000 </v>
   <v>       0.68774000       0.93608000       0.78137000 </v>
   <v>       0.93778500       0.69000000       0.65508750 </v>
   <v>       0.77102000       0.81327500       0.94738000 </v>
   <v>       0.89571500       0.68779500       0.88473250 </v>
   <v>       0.52156000       0.56211500       0.07305500 </v>
   <v>       0.58285000       0.87426000       0.91685000 </v>
   <v>       0.83244500       0.62499000       0.79249250 </v>
   <v>       0.77037500       0.56213000       0.69856250 </v>
   <v>       0.58317500       0.62555000       0.16594750 </v>
   <v>       0.95837000       0.99946000       0.72964000 </v>
   <v>       0.70886500       0.99992000       0.10301250 </v>
   <v>       0.12552000       0.37374500       0.43878000 </v>
   <v>       0.49955500       0.49856000       0.25097750 </v>
   <v>       0.18753000       0.18756000       0.77992000 </v>
   <v>       0.31234000       0.06179500       0.71926500 </v>
   <v>       0.12523500       0.12622500       0.68665250 </v>
   <v>       0.24965000       0.00016500       0.62632000 </v>
   <v>       0.37544000       0.37420500       0.56234500 </v>
   <v>       0.99989000       0.25085000       0.74831000 </v>
   <v>       0.31230000       0.31346000       0.46828500 </v>
   <v>       0.14612500       0.43832500       0.76050750 </v>
   <v>       0.20830000       0.24878000       0.60429000 </v>
   <v>       0.14574500       0.18778500       0.51141250 </v>
   <v>       0.39572500       0.43673000       0.38531750 </v>
   <v>       0.02141500       0.31227500       0.57284750 </v>
   <v>       0.33289000       0.37625500       0.79155500 </v>
   <v>       0.45828500       0.25070500       0.72884250 </v>
   <v>       0.12552000       0.87374500       0.43878000 </v>
   <v>       0.49955500       0.99856000       0.25097750 </v>
   <v>       0.18753000       0.68756000       0.77992000 </v>
   <v>       0.31234000       0.56179500       0.71926500 </v>
   <v>       0.12523500       0.62622500       0.68665250 </v>
   <v>       0.24965000       0.50016500       0.62632000 </v>
   <v>       0.37544000       0.87420500       0.56234500 </v>
   <v>       0.99989000       0.75085000       0.74831000 </v>
   <v>       0.31230000       0.81346000       0.46828500 </v>
   <v>       0.14612500       0.93832500       0.76050750 </v>
   <v>       0.20830000       0.74878000       0.60429000 </v>
   <v>       0.14574500       0.68778500       0.51141250 </v>
   <v>       0.39572500       0.93673000       0.38531750 </v>
   <v>       0.02141500       0.81227500       0.57284750 </v>
   <v>       0.33289000       0.87625500       0.79155500 </v>
   <v>       0.45828500       0.75070500       0.72884250 </v>
   <v>       0.12552000       0.37374500       0.93878000 </v>
   <v>       0.49955500       0.49856000       0.75097750 </v>
   <v>       0.18753000       0.18756000       0.27992000 </v>
   <v>       0.31234000       0.06179500       0.21926500 </v>
   <v>       0.12523500       0.12622500       0.18665250 </v>
   <v>       0.24965000       0.00016500       0.12632000 </v>
   <v>       0.37544000       0.37420500       0.06234500 </v>
   <v>       0.99989000       0.25085000       0.24831000 </v>
   <v>       0.31230000       0.31346000       0.96828500 </v>
   <v>       0.14612500       0.43832500       0.26050750 </v>
   <v>       0.20830000       0.24878000       0.10429000 </v>
   <v>       0.14574500       0.18778500       0.01141250 </v>
   <v>       0.39572500       0.43673000       0.88531750 </v>
   <v>       0.02141500       0.31227500       0.07284750 </v>
   <v>       0.33289000       0.37625500       0.29155500 </v>
   <v>       0.45828500       0.25070500       0.22884250 </v>
   <v>       0.62552000       0.37374500       0.18878000 </v>
   <v>       0.99955500       0.49856000       0.00097750 </v>
   <v>       0.68753000       0.18756000       0.52992000 </v>
   <v>       0.81234000       0.06179500       0.46926500 </v>
   <v>       0.62523500       0.12622500       0.43665250 </v>
   <v>       0.74965000       0.00016500       0.37632000 </v>
   <v>       0.87544000       0.37420500       0.31234500 </v>
   <v>       0.49989000       0.25085000       0.49831000 </v>
   <v>       0.81230000       0.31346000       0.21828500 </v>
   <v>       0.64612500       0.43832500       0.51050750 </v>
   <v>       0.70830000       0.24878000       0.35429000 </v>
   <v>       0.64574500       0.18778500       0.26141250 </v>
   <v>       0.89572500       0.43673000       0.13531750 </v>
   <v>       0.52141500       0.31227500       0.32284750 </v>
   <v>       0.83289000       0.37625500       0.54155500 </v>
   <v>       0.95828500       0.25070500       0.47884250 </v>
   <v>       0.12552000       0.87374500       0.93878000 </v>
   <v>       0.49955500       0.99856000       0.75097750 </v>
   <v>       0.18753000       0.68756000       0.27992000 </v>
   <v>       0.31234000       0.56179500       0.21926500 </v>
   <v>       0.12523500       0.62622500       0.18665250 </v>
   <v>       0.24965000       0.50016500       0.12632000 </v>
   <v>       0.37544000       0.87420500       0.06234500 </v>
   <v>       0.99989000       0.75085000       0.24831000 </v>
   <v>       0.31230000       0.81346000       0.96828500 </v>
   <v>       0.14612500       0.93832500       0.26050750 </v>
   <v>       0.20830000       0.74878000       0.10429000 </v>
   <v>       0.14574500       0.68778500       0.01141250 </v>
   <v>       0.39572500       0.93673000       0.88531750 </v>
   <v>       0.02141500       0.81227500       0.07284750 </v>
   <v>       0.33289000       0.87625500       0.29155500 </v>
   <v>       0.45828500       0.75070500       0.22884250 </v>
   <v>       0.62552000       0.87374500       0.18878000 </v>
   <v>       0.99955500       0.99856000       0.00097750 </v>
   <v>       0.68753000       0.68756000       0.52992000 </v>
   <v>       0.81234000       0.56179500       0.46926500 </v>
   <v>       0.62523500       0.62622500       0.43665250 </v>
   <v>       0.74965000       0.50016500       0.37632000 </v>
   <v>       0.87544000       0.87420500       0.31234500 </v>
   <v>       0.49989000       0.75085000       0.49831000 </v>
   <v>       0.81230000       0.81346000       0.21828500 </v>
   <v>       0.64612500       0.93832500       0.51050750 </v>
   <v>       0.70830000       0.74878000       0.35429000 </v>
   <v>       0.64574500       0.68778500       0.26141250 </v>
   <v>       0.89572500       0.93673000       0.13531750 </v>
   <v>       0.52141500       0.81227500       0.32284750 </v>
   <v>       0.83289000       0.87625500       0.54155500 </v>
   <v>       0.95828500       0.75070500       0.47884250 </v>
   <v>       0.62552000       0.37374500       0.68878000 </v>
   <v>       0.99955500       0.49856000       0.50097750 </v>
   <v>       0.68753000       0.18756000       0.02992000 </v>
   <v>       0.81234000       0.06179500       0.96926500 </v>
   <v>       0.62523500       0.12622500       0.93665250 </v>
   <v>       0.74965000       0.00016500       0.87632000 </v>
   <v>       0.87544000       0.37420500       0.81234500 </v>
   <v>       0.49989000       0.25085000       0.99831000 </v>
   <v>       0.81230000       0.31346000       0.71828500 </v>
   <v>       0.64612500       0.43832500       0.01050750 </v>
   <v>       0.70830000       0.24878000       0.85429000 </v>
   <v>       0.64574500       0.18778500       0.76141250 </v>
   <v>       0.89572500       0.43673000       0.63531750 </v>
   <v>       0.52141500       0.31227500       0.82284750 </v>
   <v>       0.83289000       0.37625500       0.04155500 </v>
   <v>       0.95828500       0.25070500       0.97884250 </v>
   <v>       0.62552000       0.87374500       0.68878000 </v>
   <v>       0.99955500       0.99856000       0.50097750 </v>
   <v>       0.68753000       0.68756000       0.02992000 </v>
   <v>       0.81234000       0.56179500       0.96926500 </v>
   <v>       0.62523500       0.62622500       0.93665250 </v>
   <v>       0.74965000       0.50016500       0.87632000 </v>
   <v>       0.87544000       0.87420500       0.81234500 </v>
   <v>       0.49989000       0.75085000       0.99831000 </v>
   <v>       0.81230000       0.81346000       0.71828500 </v>
   <v>       0.64612500       0.93832500       0.01050750 </v>
   <v>       0.70830000       0.74878000       0.85429000 </v>
   <v>       0.64574500       0.68778500       0.76141250 </v>
   <v>       0.89572500       0.93673000       0.63531750 </v>
   <v>       0.52141500       0.81227500       0.82284750 </v>
   <v>       0.83289000       0.87625500       0.04155500 </v>
   <v>       0.95828500       0.75070500       0.97884250 </v>
  </varray>
 </structure>
</modeling>
