 256 256   0   0
  0.1419206E+02  0.1537080E-08  0.1537218E-08  0.1537636E-08  0.5000000E-15
  1.000000000000000E-004
  CAR 
 Ir_Ru                                   
     12.68644568     -1.29530375  301      9.24211990      1.00000000
     -1.295  0.0000E+00  0.0000E+00
     -1.249  0.0000E+00  0.0000E+00
     -1.202  0.0000E+00  0.0000E+00
     -1.155  0.0000E+00  0.0000E+00
     -1.109 -0.2760E-28 -0.1286E-29
     -1.062 -0.4121E-25 -0.1922E-26
     -1.016 -0.3968E-22 -0.1851E-23
     -0.969 -0.2465E-19 -0.1151E-20
     -0.922 -0.9881E-17 -0.4617E-18
     -0.876 -0.2480E-14 -0.1160E-15
     -0.829 -0.4112E-12 -0.1928E-13
     -0.783 -0.4392E-10 -0.2066E-11
     -0.736 -0.3022E-08 -0.1429E-09
     -0.689 -0.1340E-06 -0.6390E-08
     -0.643 -0.3840E-05 -0.1854E-06
     -0.596 -0.7121E-04 -0.3504E-05
     -0.550 -0.8576E-03 -0.4347E-04
     -0.503 -0.6708E-02 -0.3561E-03
     -0.456 -0.3367E-01 -0.1925E-02
     -0.410 -0.1023E+00 -0.6691E-02
     -0.363 -0.1376E+00 -0.1310E-01
     -0.317  0.2260E+00 -0.2572E-02
     -0.270  0.1515E+01  0.6802E-01
     -0.223  0.3545E+01  0.2333E+00
     -0.177  0.5074E+01  0.4697E+00
     -0.130  0.5737E+01  0.7371E+00
     -0.084  0.7339E+01  0.1079E+01
     -0.037  0.1021E+02  0.1555E+01
      0.010  0.1102E+02  0.2068E+01
      0.056  0.9147E+01  0.2495E+01
      0.103  0.9401E+01  0.2933E+01
      0.149  0.1318E+02  0.3547E+01
      0.196  0.1593E+02  0.4289E+01
      0.243  0.1606E+02  0.5038E+01
      0.289  0.1675E+02  0.5818E+01
      0.336  0.1851E+02  0.6681E+01
      0.383  0.1834E+02  0.7536E+01
      0.429  0.1746E+02  0.8350E+01
      0.476  0.1986E+02  0.9275E+01
      0.522  0.2340E+02  0.1037E+02
      0.569  0.2406E+02  0.1149E+02
      0.616  0.2226E+02  0.1252E+02
      0.662  0.1868E+02  0.1340E+02
      0.709  0.1403E+02  0.1405E+02
      0.755  0.1112E+02  0.1457E+02
      0.802  0.1071E+02  0.1507E+02
      0.849  0.1111E+02  0.1558E+02
      0.895  0.1211E+02  0.1615E+02
      0.942  0.1458E+02  0.1683E+02
      0.988  0.1827E+02  0.1768E+02
      1.035  0.2282E+02  0.1874E+02
      1.082  0.2805E+02  0.2005E+02
      1.128  0.3124E+02  0.2151E+02
      1.175  0.2974E+02  0.2289E+02
      1.221  0.2591E+02  0.2410E+02
      1.268  0.2308E+02  0.2518E+02
      1.315  0.2098E+02  0.2615E+02
      1.361  0.2004E+02  0.2709E+02
      1.408  0.2163E+02  0.2810E+02
      1.454  0.2408E+02  0.2922E+02
      1.501  0.2570E+02  0.3042E+02
      1.548  0.2903E+02  0.3177E+02
      1.594  0.3515E+02  0.3341E+02
      1.641  0.3875E+02  0.3521E+02
      1.687  0.3783E+02  0.3698E+02
      1.734  0.3924E+02  0.3880E+02
      1.781  0.4553E+02  0.4093E+02
      1.827  0.4939E+02  0.4323E+02
      1.874  0.4789E+02  0.4546E+02
      1.920  0.4732E+02  0.4767E+02
      1.967  0.5090E+02  0.5004E+02
      2.014  0.5412E+02  0.5256E+02
      2.060  0.5553E+02  0.5515E+02
      2.107  0.6142E+02  0.5801E+02
      2.154  0.7455E+02  0.6148E+02
      2.200  0.8931E+02  0.6565E+02
      2.247  0.1030E+03  0.7045E+02
      2.293  0.1178E+03  0.7594E+02
      2.340  0.1310E+03  0.8205E+02
      2.387  0.1383E+03  0.8849E+02
      2.433  0.1432E+03  0.9516E+02
      2.480  0.1523E+03  0.1023E+03
      2.526  0.1609E+03  0.1098E+03
      2.573  0.1617E+03  0.1173E+03
      2.620  0.1614E+03  0.1248E+03
      2.666  0.1691E+03  0.1327E+03
      2.713  0.1786E+03  0.1410E+03
      2.759  0.1850E+03  0.1496E+03
      2.806  0.1981E+03  0.1589E+03
      2.853  0.2233E+03  0.1693E+03
      2.899  0.2478E+03  0.1808E+03
      2.946  0.2563E+03  0.1928E+03
      2.992  0.2496E+03  0.2044E+03
      3.039  0.2467E+03  0.2159E+03
      3.086  0.2622E+03  0.2281E+03
      3.132  0.2866E+03  0.2415E+03
      3.179  0.3010E+03  0.2555E+03
      3.225  0.3033E+03  0.2697E+03
      3.272  0.3046E+03  0.2838E+03
      3.319  0.3082E+03  0.2982E+03
      3.365  0.3110E+03  0.3127E+03
      3.412  0.3143E+03  0.3274E+03
      3.458  0.3216E+03  0.3423E+03
      3.505  0.3333E+03  0.3579E+03
      3.552  0.3440E+03  0.3739E+03
      3.598  0.3469E+03  0.3901E+03
      3.645  0.3449E+03  0.4062E+03
      3.692  0.3487E+03  0.4224E+03
      3.738  0.3576E+03  0.4391E+03
      3.785  0.3591E+03  0.4558E+03
      3.831  0.3522E+03  0.4722E+03
      3.878  0.3479E+03  0.4884E+03
      3.925  0.3497E+03  0.5047E+03
      3.971  0.3506E+03  0.5211E+03
      4.018  0.3415E+03  0.5370E+03
      4.064  0.3229E+03  0.5520E+03
      4.111  0.3068E+03  0.5663E+03
      4.158  0.2976E+03  0.5802E+03
      4.204  0.2873E+03  0.5936E+03
      4.251  0.2712E+03  0.6062E+03
      4.297  0.2536E+03  0.6181E+03
      4.344  0.2427E+03  0.6294E+03
      4.391  0.2453E+03  0.6408E+03
      4.437  0.2578E+03  0.6528E+03
      4.484  0.2617E+03  0.6650E+03
      4.530  0.2506E+03  0.6767E+03
      4.577  0.2477E+03  0.6882E+03
      4.624  0.2673E+03  0.7007E+03
      4.670  0.2920E+03  0.7143E+03
      4.717  0.3069E+03  0.7286E+03
      4.763  0.3137E+03  0.7432E+03
      4.810  0.3135E+03  0.7578E+03
      4.857  0.3048E+03  0.7720E+03
      4.903  0.2900E+03  0.7856E+03
      4.950  0.2784E+03  0.7985E+03
      4.996  0.2812E+03  0.8116E+03
      5.043  0.2952E+03  0.8254E+03
      5.090  0.3078E+03  0.8397E+03
      5.136  0.3092E+03  0.8542E+03
      5.183  0.2976E+03  0.8680E+03
      5.230  0.2856E+03  0.8813E+03
      5.276  0.2845E+03  0.8946E+03
      5.323  0.2904E+03  0.9081E+03
      5.369  0.2973E+03  0.9220E+03
      5.416  0.3019E+03  0.9361E+03
      5.463  0.2986E+03  0.9500E+03
      5.509  0.2887E+03  0.9634E+03
      5.556  0.2868E+03  0.9768E+03
      5.602  0.3029E+03  0.9909E+03
      5.649  0.3217E+03  0.1006E+04
      5.696  0.3253E+03  0.1021E+04
      5.742  0.3202E+03  0.1036E+04
      5.789  0.3200E+03  0.1051E+04
      5.835  0.3263E+03  0.1066E+04
      5.882  0.3368E+03  0.1082E+04
      5.929  0.3502E+03  0.1098E+04
      5.975  0.3655E+03  0.1115E+04
      6.022  0.3791E+03  0.1133E+04
      6.068  0.3856E+03  0.1151E+04
      6.115  0.3876E+03  0.1169E+04
      6.162  0.3917E+03  0.1187E+04
      6.208  0.3987E+03  0.1206E+04
      6.255  0.4098E+03  0.1225E+04
      6.301  0.4275E+03  0.1245E+04
      6.348  0.4466E+03  0.1266E+04
      6.395  0.4573E+03  0.1287E+04
      6.441  0.4569E+03  0.1308E+04
      6.488  0.4530E+03  0.1329E+04
      6.534  0.4500E+03  0.1350E+04
      6.581  0.4456E+03  0.1371E+04
      6.628  0.4391E+03  0.1391E+04
      6.674  0.4316E+03  0.1412E+04
      6.721  0.4246E+03  0.1431E+04
      6.768  0.4168E+03  0.1451E+04
      6.814  0.4012E+03  0.1470E+04
      6.861  0.3764E+03  0.1487E+04
      6.907  0.3541E+03  0.1504E+04
      6.954  0.3442E+03  0.1520E+04
      7.001  0.3392E+03  0.1535E+04
      7.047  0.3275E+03  0.1551E+04
      7.094  0.3147E+03  0.1565E+04
      7.140  0.3135E+03  0.1580E+04
      7.187  0.3194E+03  0.1595E+04
      7.234  0.3132E+03  0.1609E+04
      7.280  0.2871E+03  0.1623E+04
      7.327  0.2556E+03  0.1635E+04
      7.373  0.2402E+03  0.1646E+04
      7.420  0.2489E+03  0.1658E+04
      7.467  0.2715E+03  0.1670E+04
      7.513  0.2846E+03  0.1683E+04
      7.560  0.2763E+03  0.1696E+04
      7.606  0.2583E+03  0.1708E+04
      7.653  0.2482E+03  0.1720E+04
      7.700  0.2574E+03  0.1732E+04
      7.746  0.2832E+03  0.1745E+04
      7.793  0.3056E+03  0.1759E+04
      7.839  0.3120E+03  0.1774E+04
      7.886  0.3087E+03  0.1788E+04
      7.933  0.3030E+03  0.1802E+04
      7.979  0.2960E+03  0.1816E+04
      8.026  0.2911E+03  0.1830E+04
      8.072  0.2960E+03  0.1844E+04
      8.119  0.3095E+03  0.1858E+04
      8.166  0.3171E+03  0.1873E+04
      8.212  0.3177E+03  0.1888E+04
      8.259  0.3301E+03  0.1903E+04
      8.305  0.3539E+03  0.1919E+04
      8.352  0.3622E+03  0.1936E+04
      8.399  0.3393E+03  0.1952E+04
      8.445  0.2994E+03  0.1966E+04
      8.492  0.2666E+03  0.1979E+04
      8.539  0.2557E+03  0.1990E+04
      8.585  0.2713E+03  0.2003E+04
      8.632  0.2958E+03  0.2017E+04
      8.678  0.3001E+03  0.2031E+04
      8.725  0.2837E+03  0.2044E+04
      8.772  0.2673E+03  0.2057E+04
      8.818  0.2568E+03  0.2068E+04
      8.865  0.2489E+03  0.2080E+04
      8.911  0.2450E+03  0.2092E+04
      8.958  0.2453E+03  0.2103E+04
      9.005  0.2537E+03  0.2115E+04
      9.051  0.2738E+03  0.2128E+04
      9.098  0.2840E+03  0.2141E+04
      9.144  0.2657E+03  0.2153E+04
      9.191  0.2405E+03  0.2164E+04
      9.238  0.2281E+03  0.2175E+04
      9.284  0.2197E+03  0.2185E+04
      9.331  0.2139E+03  0.2195E+04
      9.377  0.2222E+03  0.2206E+04
      9.424  0.2428E+03  0.2217E+04
      9.471  0.2625E+03  0.2229E+04
      9.517  0.2737E+03  0.2242E+04
      9.564  0.2773E+03  0.2255E+04
      9.610  0.2762E+03  0.2268E+04
      9.657  0.2709E+03  0.2280E+04
      9.704  0.2608E+03  0.2292E+04
      9.750  0.2435E+03  0.2304E+04
      9.797  0.2240E+03  0.2314E+04
      9.843  0.2196E+03  0.2324E+04
      9.890  0.2370E+03  0.2336E+04
      9.937  0.2647E+03  0.2348E+04
      9.983  0.2957E+03  0.2362E+04
     10.030  0.3278E+03  0.2377E+04
     10.077  0.3493E+03  0.2393E+04
     10.123  0.3461E+03  0.2409E+04
     10.170  0.3235E+03  0.2424E+04
     10.216  0.3102E+03  0.2439E+04
     10.263  0.3299E+03  0.2454E+04
     10.310  0.3886E+03  0.2472E+04
     10.356  0.4679E+03  0.2494E+04
     10.403  0.5192E+03  0.2518E+04
     10.449  0.5084E+03  0.2542E+04
     10.496  0.4489E+03  0.2563E+04
     10.543  0.3722E+03  0.2580E+04
     10.589  0.3006E+03  0.2594E+04
     10.636  0.2472E+03  0.2606E+04
     10.682  0.2118E+03  0.2616E+04
     10.729  0.1802E+03  0.2624E+04
     10.776  0.1411E+03  0.2631E+04
     10.822  0.9621E+02  0.2635E+04
     10.869  0.5540E+02  0.2638E+04
     10.915  0.2642E+02  0.2639E+04
     10.962  0.9940E+01  0.2639E+04
     11.009  0.2911E+01  0.2640E+04
     11.055  0.1642E+01  0.2640E+04
     11.102  0.2246E+01  0.2640E+04
     11.148  0.1973E+01  0.2640E+04
     11.195  0.7932E+00  0.2640E+04
     11.242 -0.5367E-02  0.2640E+04
     11.288 -0.1353E+00  0.2640E+04
     11.335 -0.5678E-01  0.2640E+04
     11.381 -0.1187E-01  0.2640E+04
     11.428 -0.3574E-02  0.2640E+04
     11.475 -0.1351E-01  0.2640E+04
     11.521 -0.4289E-01  0.2640E+04
     11.568 -0.3414E-01  0.2640E+04
     11.615  0.2074E+00  0.2640E+04
     11.661  0.7251E+00  0.2640E+04
     11.708  0.1026E+01  0.2640E+04
     11.754  0.7127E+00  0.2640E+04
     11.801  0.1977E+00  0.2640E+04
     11.848 -0.3610E-01  0.2640E+04
     11.894 -0.4214E-01  0.2640E+04
     11.941 -0.1293E-01  0.2640E+04
     11.987 -0.2078E-02  0.2640E+04
     12.034 -0.1961E-03  0.2640E+04
     12.081 -0.1135E-04  0.2640E+04
     12.127 -0.4105E-06  0.2640E+04
     12.174 -0.9392E-08  0.2640E+04
     12.220 -0.1368E-09  0.2640E+04
     12.267 -0.1274E-11  0.2640E+04
     12.314 -0.7742E-14  0.2640E+04
     12.360  0.0000E+00  0.2640E+04
     12.407  0.0000E+00  0.2640E+04
     12.453  0.0000E+00  0.2640E+04
     12.500  0.0000E+00  0.2640E+04
     12.547  0.0000E+00  0.2640E+04
     12.593  0.0000E+00  0.2640E+04
     12.640  0.0000E+00  0.2640E+04
     12.686  0.0000E+00  0.2640E+04
