       N       E                     dE             d eps       ncg     rms          rms(c)
DAV:   1     0.112829933797E+05    0.11283E+05   -0.55466E+05 95400   0.810E+02
DAV:   2    -0.143840975202E+04   -0.12721E+05   -0.12145E+05 95780   0.337E+02
DAV:   3    -0.241075489541E+04   -0.97235E+03   -0.89417E+03135160   0.780E+01
DAV:   4    -0.248227530006E+04   -0.71520E+02   -0.69090E+02132140   0.209E+01
DAV:   5    -0.248511879554E+04   -0.28435E+01   -0.27876E+01139880   0.332E+00    0.779E+01
RMM:   6    -0.241644748966E+04    0.68671E+02   -0.68082E+02105906   0.245E+01    0.623E+01
RMM:   7    -0.236998404827E+04    0.46463E+02   -0.35226E+02 97794   0.172E+01    0.455E+01
RMM:   8    -0.233984917494E+04    0.30135E+02   -0.15704E+02 97681   0.114E+01    0.321E+01
RMM:   9    -0.231562158223E+04    0.24228E+02   -0.34496E+01 98757   0.532E+00    0.616E+00
RMM:  10    -0.231540405429E+04    0.21753E+00   -0.73844E+00136397   0.154E+00    0.342E+00
RMM:  11    -0.231518818866E+04    0.21587E+00   -0.13185E+00118645   0.868E-01    0.354E+00
RMM:  12    -0.231490518673E+04    0.28300E+00   -0.46474E-01119908   0.480E-01    0.218E+00
RMM:  13    -0.231477816912E+04    0.12702E+00   -0.24944E-01112418   0.426E-01    0.133E+00
RMM:  14    -0.231475801627E+04    0.20153E-01   -0.15636E-01112251   0.325E-01    0.146E+00
RMM:  15    -0.231472961267E+04    0.28404E-01   -0.49895E-02119636   0.142E-01    0.988E-01
RMM:  16    -0.231471436309E+04    0.15250E-01   -0.20330E-02111412   0.116E-01    0.479E-01
RMM:  17    -0.231471117635E+04    0.31867E-02   -0.15736E-02119719   0.901E-02    0.201E-01
RMM:  18    -0.231471217120E+04   -0.99484E-03   -0.10285E-02131398   0.646E-02    0.237E-01
RMM:  19    -0.231471182869E+04    0.34251E-03   -0.14516E-03131604   0.206E-02    0.203E-01
RMM:  20    -0.231471129389E+04    0.53480E-03   -0.42780E-04117079   0.148E-02    0.137E-01
RMM:  21    -0.231471089000E+04    0.40389E-03   -0.90382E-04118396   0.221E-02    0.400E-02
RMM:  22    -0.231471085769E+04    0.32316E-04   -0.28382E-04137267   0.987E-03
   1 F= -.23147109E+04 E0= -.23147186E+04  d E =0.230799E-01
