 256 256   0   0
  0.1418917E+02  0.1588033E-08  0.1692661E-08  0.1693229E-08  0.5000000E-15
  1.000000000000000E-004
  CAR 
 Ir_Ru                                   
     14.27176173     -1.29171414  301      9.45694995      1.00000000
     -1.292  0.0000E+00  0.0000E+00
     -1.240  0.0000E+00  0.0000E+00
     -1.188  0.0000E+00  0.0000E+00
     -1.136 -0.2777E-30 -0.1440E-31
     -1.084 -0.1270E-26 -0.6590E-28
     -1.032 -0.3377E-23 -0.1753E-24
     -0.980 -0.5216E-20 -0.2708E-21
     -0.929 -0.4676E-17 -0.2428E-18
     -0.877 -0.2371E-14 -0.1233E-15
     -0.825 -0.7065E-12 -0.3677E-13
     -0.773 -0.1220E-09 -0.6366E-11
     -0.721 -0.1212E-07 -0.6354E-09
     -0.669 -0.6906E-06 -0.3646E-07
     -0.617 -0.2242E-04 -0.1199E-05
     -0.565 -0.4116E-03 -0.2255E-04
     -0.514 -0.4236E-02 -0.2423E-03
     -0.462 -0.2416E-01 -0.1496E-02
     -0.410 -0.7492E-01 -0.5383E-02
     -0.358 -0.1021E+00 -0.1068E-01
     -0.306  0.2026E+00 -0.1712E-03
     -0.254  0.1629E+01  0.8432E-01
     -0.202  0.4384E+01  0.3118E+00
     -0.150  0.6350E+01  0.6412E+00
     -0.099  0.6423E+01  0.9744E+00
     -0.047  0.6954E+01  0.1335E+01
      0.005  0.8844E+01  0.1794E+01
      0.057  0.1116E+02  0.2373E+01
      0.109  0.1360E+02  0.3078E+01
      0.161  0.1435E+02  0.3823E+01
      0.213  0.1173E+02  0.4431E+01
      0.265  0.1006E+02  0.4953E+01
      0.317  0.1421E+02  0.5690E+01
      0.368  0.2030E+02  0.6743E+01
      0.420  0.2252E+02  0.7912E+01
      0.472  0.2272E+02  0.9090E+01
      0.524  0.2351E+02  0.1031E+02
      0.576  0.2254E+02  0.1148E+02
      0.628  0.2045E+02  0.1254E+02
      0.680  0.2100E+02  0.1363E+02
      0.732  0.2041E+02  0.1469E+02
      0.783  0.1466E+02  0.1545E+02
      0.835  0.8900E+01  0.1591E+02
      0.887  0.7980E+01  0.1632E+02
      0.939  0.1161E+02  0.1693E+02
      0.991  0.1881E+02  0.1790E+02
      1.043  0.2776E+02  0.1934E+02
      1.095  0.3330E+02  0.2107E+02
      1.147  0.3307E+02  0.2279E+02
      1.198  0.2891E+02  0.2429E+02
      1.250  0.2294E+02  0.2548E+02
      1.302  0.1949E+02  0.2649E+02
      1.354  0.2159E+02  0.2761E+02
      1.406  0.2708E+02  0.2901E+02
      1.458  0.3034E+02  0.3059E+02
      1.510  0.2985E+02  0.3213E+02
      1.562  0.2934E+02  0.3366E+02
      1.613  0.3042E+02  0.3523E+02
      1.665  0.3113E+02  0.3685E+02
      1.717  0.3200E+02  0.3851E+02
      1.769  0.3497E+02  0.4032E+02
      1.821  0.3901E+02  0.4235E+02
      1.873  0.4531E+02  0.4470E+02
      1.925  0.5447E+02  0.4752E+02
      1.977  0.5935E+02  0.5060E+02
      2.028  0.5492E+02  0.5345E+02
      2.080  0.5049E+02  0.5607E+02
      2.132  0.6114E+02  0.5924E+02
      2.184  0.8627E+02  0.6372E+02
      2.236  0.1084E+03  0.6934E+02
      2.288  0.1195E+03  0.7554E+02
      2.340  0.1257E+03  0.8206E+02
      2.392  0.1314E+03  0.8888E+02
      2.444  0.1375E+03  0.9601E+02
      2.495  0.1470E+03  0.1036E+03
      2.547  0.1640E+03  0.1121E+03
      2.599  0.1825E+03  0.1216E+03
      2.651  0.1946E+03  0.1317E+03
      2.703  0.2063E+03  0.1424E+03
      2.755  0.2232E+03  0.1540E+03
      2.807  0.2306E+03  0.1660E+03
      2.859  0.2245E+03  0.1776E+03
      2.910  0.2272E+03  0.1894E+03
      2.962  0.2446E+03  0.2021E+03
      3.014  0.2578E+03  0.2155E+03
      3.066  0.2601E+03  0.2289E+03
      3.118  0.2606E+03  0.2425E+03
      3.170  0.2640E+03  0.2562E+03
      3.222  0.2728E+03  0.2703E+03
      3.274  0.2877E+03  0.2852E+03
      3.325  0.3070E+03  0.3012E+03
      3.377  0.3241E+03  0.3180E+03
      3.429  0.3309E+03  0.3351E+03
      3.481  0.3281E+03  0.3522E+03
      3.533  0.3217E+03  0.3689E+03
      3.585  0.3183E+03  0.3854E+03
      3.637  0.3167E+03  0.4018E+03
      3.689  0.3112E+03  0.4179E+03
      3.740  0.3052E+03  0.4338E+03
      3.792  0.3012E+03  0.4494E+03
      3.844  0.2970E+03  0.4648E+03
      3.896  0.2934E+03  0.4800E+03
      3.948  0.2888E+03  0.4950E+03
      4.000  0.2765E+03  0.5094E+03
      4.052  0.2663E+03  0.5232E+03
      4.104  0.2749E+03  0.5374E+03
      4.156  0.2937E+03  0.5527E+03
      4.207  0.3028E+03  0.5684E+03
      4.259  0.3051E+03  0.5842E+03
      4.311  0.3119E+03  0.6004E+03
      4.363  0.3186E+03  0.6169E+03
      4.415  0.3213E+03  0.6336E+03
      4.467  0.3237E+03  0.6504E+03
      4.519  0.3213E+03  0.6670E+03
      4.571  0.3099E+03  0.6831E+03
      4.622  0.2975E+03  0.6986E+03
      4.674  0.2935E+03  0.7138E+03
      4.726  0.2980E+03  0.7292E+03
      4.778  0.3056E+03  0.7451E+03
      4.830  0.3174E+03  0.7616E+03
      4.882  0.3312E+03  0.7787E+03
      4.934  0.3377E+03  0.7963E+03
      4.986  0.3448E+03  0.8142E+03
      5.037  0.3580E+03  0.8327E+03
      5.089  0.3656E+03  0.8517E+03
      5.141  0.3642E+03  0.8706E+03
      5.193  0.3552E+03  0.8890E+03
      5.245  0.3353E+03  0.9064E+03
      5.297  0.3034E+03  0.9221E+03
      5.349  0.2627E+03  0.9358E+03
      5.401  0.2195E+03  0.9472E+03
      5.452  0.1852E+03  0.9568E+03
      5.504  0.1725E+03  0.9657E+03
      5.556  0.1883E+03  0.9755E+03
      5.608  0.2260E+03  0.9872E+03
      5.660  0.2741E+03  0.1001E+04
      5.712  0.3243E+03  0.1018E+04
      5.764  0.3666E+03  0.1037E+04
      5.816  0.3944E+03  0.1058E+04
      5.867  0.4099E+03  0.1079E+04
      5.919  0.4190E+03  0.1101E+04
      5.971  0.4256E+03  0.1123E+04
      6.023  0.4283E+03  0.1145E+04
      6.075  0.4171E+03  0.1167E+04
      6.127  0.3929E+03  0.1187E+04
      6.179  0.3724E+03  0.1206E+04
      6.231  0.3615E+03  0.1225E+04
      6.283  0.3555E+03  0.1244E+04
      6.334  0.3562E+03  0.1262E+04
      6.386  0.3687E+03  0.1281E+04
      6.438  0.3817E+03  0.1301E+04
      6.490  0.3843E+03  0.1321E+04
      6.542  0.3911E+03  0.1341E+04
      6.594  0.4093E+03  0.1362E+04
      6.646  0.4238E+03  0.1384E+04
      6.698  0.4281E+03  0.1407E+04
      6.749  0.4254E+03  0.1429E+04
      6.801  0.4138E+03  0.1450E+04
      6.853  0.3930E+03  0.1471E+04
      6.905  0.3741E+03  0.1490E+04
      6.957  0.3668E+03  0.1509E+04
      7.009  0.3639E+03  0.1528E+04
      7.061  0.3675E+03  0.1547E+04
      7.113  0.3900E+03  0.1567E+04
      7.164  0.4141E+03  0.1589E+04
      7.216  0.4223E+03  0.1611E+04
      7.268  0.4226E+03  0.1632E+04
      7.320  0.4141E+03  0.1654E+04
      7.372  0.3891E+03  0.1674E+04
      7.424  0.3598E+03  0.1693E+04
      7.476  0.3408E+03  0.1710E+04
      7.528  0.3328E+03  0.1728E+04
      7.579  0.3290E+03  0.1745E+04
      7.631  0.3177E+03  0.1761E+04
      7.683  0.2965E+03  0.1777E+04
      7.735  0.2779E+03  0.1791E+04
      7.787  0.2689E+03  0.1805E+04
      7.839  0.2639E+03  0.1819E+04
      7.891  0.2579E+03  0.1832E+04
      7.943  0.2488E+03  0.1845E+04
      7.994  0.2429E+03  0.1858E+04
      8.046  0.2432E+03  0.1870E+04
      8.098  0.2395E+03  0.1883E+04
      8.150  0.2316E+03  0.1895E+04
      8.202  0.2290E+03  0.1907E+04
      8.254  0.2332E+03  0.1919E+04
      8.306  0.2376E+03  0.1931E+04
      8.358  0.2391E+03  0.1943E+04
      8.410  0.2371E+03  0.1956E+04
      8.461  0.2292E+03  0.1968E+04
      8.513  0.2188E+03  0.1979E+04
      8.565  0.2123E+03  0.1990E+04
      8.617  0.2075E+03  0.2001E+04
      8.669  0.2002E+03  0.2011E+04
      8.721  0.1918E+03  0.2021E+04
      8.773  0.1835E+03  0.2031E+04
      8.825  0.1795E+03  0.2040E+04
      8.876  0.1873E+03  0.2050E+04
      8.928  0.2115E+03  0.2061E+04
      8.980  0.2348E+03  0.2073E+04
      9.032  0.2368E+03  0.2085E+04
      9.084  0.2243E+03  0.2097E+04
      9.136  0.2074E+03  0.2107E+04
      9.188  0.1880E+03  0.2117E+04
      9.240  0.1788E+03  0.2126E+04
      9.291  0.1959E+03  0.2137E+04
      9.343  0.2269E+03  0.2148E+04
      9.395  0.2428E+03  0.2161E+04
      9.447  0.2430E+03  0.2174E+04
      9.499  0.2448E+03  0.2186E+04
      9.551  0.2444E+03  0.2199E+04
      9.603  0.2456E+03  0.2212E+04
      9.655  0.2723E+03  0.2226E+04
      9.706  0.3157E+03  0.2242E+04
      9.758  0.3355E+03  0.2260E+04
      9.810  0.3270E+03  0.2277E+04
      9.862  0.3168E+03  0.2293E+04
      9.914  0.3151E+03  0.2309E+04
      9.966  0.3211E+03  0.2326E+04
     10.018  0.3414E+03  0.2344E+04
     10.070  0.3777E+03  0.2363E+04
     10.122  0.4116E+03  0.2385E+04
     10.173  0.4280E+03  0.2407E+04
     10.225  0.4357E+03  0.2429E+04
     10.277  0.4478E+03  0.2453E+04
     10.329  0.4662E+03  0.2477E+04
     10.381  0.4854E+03  0.2502E+04
     10.433  0.4972E+03  0.2528E+04
     10.485  0.4913E+03  0.2553E+04
     10.537  0.4553E+03  0.2577E+04
     10.588  0.3954E+03  0.2598E+04
     10.640  0.3269E+03  0.2614E+04
     10.692  0.2441E+03  0.2627E+04
     10.744  0.1436E+03  0.2635E+04
     10.796  0.5353E+02  0.2637E+04
     10.848  0.5484E+01  0.2638E+04
     10.900 -0.4806E+01  0.2637E+04
     10.952 -0.2514E+01  0.2637E+04
     11.003 -0.6605E+00  0.2637E+04
     11.055 -0.1341E+00  0.2637E+04
     11.107 -0.2141E-01  0.2637E+04
     11.159 -0.2244E-02  0.2637E+04
     11.211 -0.1384E-03  0.2637E+04
     11.263 -0.4881E-05  0.2637E+04
     11.315 -0.9811E-07  0.2637E+04
     11.367 -0.1129E-08  0.2637E+04
     11.418 -0.9636E-11  0.2637E+04
     11.470 -0.3750E-09  0.2637E+04
     11.522 -0.3727E-07  0.2637E+04
     11.574 -0.2125E-05  0.2637E+04
     11.626 -0.6887E-04  0.2637E+04
     11.678 -0.1247E-02  0.2637E+04
     11.730 -0.1220E-01  0.2637E+04
     11.782 -0.5892E-01  0.2637E+04
     11.833 -0.9278E-01  0.2637E+04
     11.885  0.2600E+00  0.2637E+04
     11.937  0.1285E+01  0.2637E+04
     11.989  0.2137E+01  0.2637E+04
     12.041  0.1926E+01  0.2638E+04
     12.093  0.1292E+01  0.2638E+04
     12.145  0.9466E+00  0.2638E+04
     12.197  0.7446E+00  0.2638E+04
     12.249  0.9414E+00  0.2638E+04
     12.300  0.1905E+01  0.2638E+04
     12.352  0.3082E+01  0.2638E+04
     12.404  0.3567E+01  0.2638E+04
     12.456  0.2933E+01  0.2638E+04
     12.508  0.1918E+01  0.2638E+04
     12.560  0.1925E+01  0.2639E+04
     12.612  0.2438E+01  0.2639E+04
     12.664  0.2829E+01  0.2639E+04
     12.715  0.3784E+01  0.2639E+04
     12.767  0.3847E+01  0.2639E+04
     12.819  0.2590E+01  0.2639E+04
     12.871  0.2254E+01  0.2639E+04
     12.923  0.2508E+01  0.2640E+04
     12.975  0.1877E+01  0.2640E+04
     13.027  0.1106E+01  0.2640E+04
     13.079  0.8524E+00  0.2640E+04
     13.130  0.8098E+00  0.2640E+04
     13.182  0.9640E+00  0.2640E+04
     13.234  0.1153E+01  0.2640E+04
     13.286  0.1095E+01  0.2640E+04
     13.338  0.6661E+00  0.2640E+04
     13.390  0.1561E+00  0.2640E+04
     13.442 -0.4395E-01  0.2640E+04
     13.494 -0.3278E-01  0.2640E+04
     13.545 -0.7200E-02  0.2640E+04
     13.597 -0.7637E-03  0.2640E+04
     13.649 -0.4322E-04  0.2640E+04
     13.701 -0.1356E-05  0.2640E+04
     13.753 -0.2402E-07  0.2640E+04
     13.805 -0.2428E-09  0.2640E+04
     13.857 -0.1409E-11  0.2640E+04
     13.909 -0.4756E-14  0.2640E+04
     13.960  0.0000E+00  0.2640E+04
     14.012  0.0000E+00  0.2640E+04
     14.064  0.0000E+00  0.2640E+04
     14.116  0.0000E+00  0.2640E+04
     14.168  0.0000E+00  0.2640E+04
     14.220  0.0000E+00  0.2640E+04
     14.272  0.0000E+00  0.2640E+04
