       N       E                     dE             d eps       ncg     rms          rms(c)
RMM:   1     0.136790582150E+05    0.13679E+05   -0.47218E+05 25080   0.725E+02
RMM:   2     0.131333164744E+04   -0.12366E+05   -0.13120E+05 25080   0.260E+02
RMM:   3    -0.104566811844E+04   -0.23590E+04   -0.22856E+04 25080   0.111E+02
RMM:   4    -0.184600836128E+04   -0.80034E+03   -0.57407E+03 25080   0.768E+01
RMM:   5    -0.212912456184E+04   -0.28312E+03   -0.24896E+03 25080   0.451E+01
RMM:   6    -0.227484208098E+04   -0.14572E+03   -0.12952E+03 25080   0.349E+01
RMM:   7    -0.235270465818E+04   -0.77863E+02   -0.73853E+02 25080   0.235E+01
RMM:   8    -0.240020006931E+04   -0.47495E+02   -0.44554E+02 25080   0.195E+01
RMM:   9    -0.247908422870E+04   -0.78884E+02   -0.77964E+02 71862   0.137E+01
RMM:  10    -0.248864105700E+04   -0.95568E+01   -0.11978E+02 79676   0.283E+00
RMM:  11    -0.249088223281E+04   -0.22412E+01   -0.17847E+01 77274   0.686E-01
RMM:  12    -0.249118903441E+04   -0.30680E+00   -0.19864E+00 79575   0.198E-01    0.782E+01
RMM:  13    -0.241371887371E+04    0.77470E+02   -0.68514E+02 57189   0.246E+01    0.584E+01
RMM:  14    -0.236776540991E+04    0.45953E+02   -0.34128E+02 51446   0.174E+01    0.416E+01
RMM:  15    -0.233563906473E+04    0.32126E+02   -0.11850E+02 53319   0.101E+01    0.255E+01
RMM:  16    -0.232133464780E+04    0.14304E+02   -0.25867E+01 56033   0.435E+00    0.446E+00
RMM:  17    -0.232154156305E+04   -0.20692E+00   -0.64782E+00 73850   0.129E+00    0.450E+00
RMM:  18    -0.232114109896E+04    0.40046E+00   -0.11701E+00 64914   0.691E-01    0.344E+00
RMM:  19    -0.232074869257E+04    0.39241E+00   -0.67697E-01 59465   0.776E-01    0.164E+00
RMM:  20    -0.232069451498E+04    0.54178E-01   -0.24469E-01 63361   0.358E-01    0.151E+00
RMM:  21    -0.232065901825E+04    0.35497E-01   -0.11089E-01 62732   0.233E-01    0.122E+00
RMM:  22    -0.232063437244E+04    0.24646E-01   -0.46609E-02 61439   0.155E-01    0.718E-01
RMM:  23    -0.232062877229E+04    0.56001E-02   -0.13604E-02 67088   0.685E-02    0.484E-01
RMM:  24    -0.232062530800E+04    0.34643E-02   -0.10426E-02 62347   0.758E-02    0.245E-01
RMM:  25    -0.232062615939E+04   -0.85139E-03   -0.12593E-02 66483   0.768E-02    0.252E-01
RMM:  26    -0.232062636272E+04   -0.20332E-03   -0.33807E-03 73925   0.305E-02    0.262E-01
RMM:  27    -0.232062550608E+04    0.85664E-03   -0.66856E-04 60215   0.197E-02    0.178E-01
RMM:  28    -0.232062498127E+04    0.52480E-03   -0.84998E-04 64071   0.211E-02    0.871E-02
RMM:  29    -0.232062483685E+04    0.14442E-03   -0.61806E-04 69027   0.165E-02    0.291E-02
RMM:  30    -0.232062481993E+04    0.16915E-04   -0.13003E-04 72824   0.633E-03
   1 F= -.23206248E+04 E0= -.23206247E+04  d E =-.303627E-03
