 256 256   0   0
  0.1419206E+02  0.1537080E-08  0.1537218E-08  0.1537636E-08  0.5000000E-15
  1.000000000000000E-004
  CAR 
 Ir_Ru                                   
     12.68623962     -1.29526076  301      9.24211883      1.00000000
     -1.295  0.0000E+00  0.0000E+00
     -1.249  0.0000E+00  0.0000E+00
     -1.202  0.0000E+00  0.0000E+00
     -1.155  0.0000E+00  0.0000E+00
     -1.109 -0.2759E-28 -0.1286E-29
     -1.062 -0.4118E-25 -0.1921E-26
     -1.016 -0.3965E-22 -0.1850E-23
     -0.969 -0.2463E-19 -0.1150E-20
     -0.922 -0.9873E-17 -0.4613E-18
     -0.876 -0.2478E-14 -0.1159E-15
     -0.829 -0.4109E-12 -0.1926E-13
     -0.783 -0.4388E-10 -0.2064E-11
     -0.736 -0.3019E-08 -0.1428E-09
     -0.689 -0.1339E-06 -0.6385E-08
     -0.643 -0.3837E-05 -0.1852E-06
     -0.596 -0.7116E-04 -0.3502E-05
     -0.550 -0.8570E-03 -0.4344E-04
     -0.503 -0.6704E-02 -0.3559E-03
     -0.456 -0.3365E-01 -0.1924E-02
     -0.410 -0.1022E+00 -0.6688E-02
     -0.363 -0.1376E+00 -0.1310E-01
     -0.317  0.2257E+00 -0.2584E-02
     -0.270  0.1514E+01  0.6796E-01
     -0.223  0.3544E+01  0.2331E+00
     -0.177  0.5074E+01  0.4696E+00
     -0.130  0.5736E+01  0.7369E+00
     -0.084  0.7336E+01  0.1079E+01
     -0.037  0.1021E+02  0.1554E+01
      0.010  0.1102E+02  0.2068E+01
      0.056  0.9148E+01  0.2494E+01
      0.103  0.9396E+01  0.2932E+01
      0.149  0.1317E+02  0.3546E+01
      0.196  0.1592E+02  0.4288E+01
      0.243  0.1605E+02  0.5036E+01
      0.289  0.1675E+02  0.5817E+01
      0.336  0.1850E+02  0.6679E+01
      0.383  0.1833E+02  0.7533E+01
      0.429  0.1744E+02  0.8346E+01
      0.476  0.1983E+02  0.9270E+01
      0.522  0.2339E+02  0.1036E+02
      0.569  0.2406E+02  0.1148E+02
      0.616  0.2227E+02  0.1252E+02
      0.662  0.1870E+02  0.1339E+02
      0.709  0.1406E+02  0.1405E+02
      0.755  0.1113E+02  0.1456E+02
      0.802  0.1071E+02  0.1506E+02
      0.849  0.1113E+02  0.1558E+02
      0.895  0.1214E+02  0.1615E+02
      0.942  0.1462E+02  0.1683E+02
      0.988  0.1832E+02  0.1768E+02
      1.035  0.2287E+02  0.1875E+02
      1.082  0.2807E+02  0.2006E+02
      1.128  0.3125E+02  0.2151E+02
      1.175  0.2975E+02  0.2290E+02
      1.221  0.2592E+02  0.2411E+02
      1.268  0.2307E+02  0.2518E+02
      1.315  0.2096E+02  0.2616E+02
      1.361  0.2002E+02  0.2709E+02
      1.408  0.2161E+02  0.2810E+02
      1.454  0.2406E+02  0.2922E+02
      1.501  0.2566E+02  0.3042E+02
      1.548  0.2897E+02  0.3177E+02
      1.594  0.3510E+02  0.3340E+02
      1.641  0.3874E+02  0.3521E+02
      1.687  0.3786E+02  0.3697E+02
      1.734  0.3927E+02  0.3880E+02
      1.781  0.4552E+02  0.4092E+02
      1.827  0.4936E+02  0.4322E+02
      1.874  0.4785E+02  0.4545E+02
      1.920  0.4732E+02  0.4766E+02
      1.967  0.5093E+02  0.5003E+02
      2.014  0.5413E+02  0.5256E+02
      2.060  0.5549E+02  0.5514E+02
      2.107  0.6137E+02  0.5800E+02
      2.154  0.7454E+02  0.6148E+02
      2.200  0.8936E+02  0.6564E+02
      2.247  0.1031E+03  0.7045E+02
      2.293  0.1179E+03  0.7594E+02
      2.340  0.1311E+03  0.8205E+02
      2.387  0.1383E+03  0.8849E+02
      2.433  0.1433E+03  0.9517E+02
      2.480  0.1523E+03  0.1023E+03
      2.526  0.1610E+03  0.1098E+03
      2.573  0.1617E+03  0.1173E+03
      2.620  0.1615E+03  0.1248E+03
      2.666  0.1691E+03  0.1327E+03
      2.713  0.1785E+03  0.1410E+03
      2.759  0.1848E+03  0.1496E+03
      2.806  0.1978E+03  0.1589E+03
      2.853  0.2230E+03  0.1693E+03
      2.899  0.2477E+03  0.1808E+03
      2.946  0.2563E+03  0.1927E+03
      2.992  0.2497E+03  0.2044E+03
      3.039  0.2468E+03  0.2159E+03
      3.086  0.2622E+03  0.2281E+03
      3.132  0.2866E+03  0.2415E+03
      3.179  0.3012E+03  0.2555E+03
      3.225  0.3037E+03  0.2696E+03
      3.272  0.3049E+03  0.2839E+03
      3.319  0.3084E+03  0.2982E+03
      3.365  0.3111E+03  0.3127E+03
      3.412  0.3143E+03  0.3274E+03
      3.458  0.3216E+03  0.3424E+03
      3.505  0.3334E+03  0.3579E+03
      3.552  0.3441E+03  0.3739E+03
      3.598  0.3468E+03  0.3901E+03
      3.645  0.3448E+03  0.4062E+03
      3.691  0.3486E+03  0.4224E+03
      3.738  0.3576E+03  0.4391E+03
      3.785  0.3592E+03  0.4558E+03
      3.831  0.3522E+03  0.4722E+03
      3.878  0.3478E+03  0.4884E+03
      3.924  0.3496E+03  0.5047E+03
      3.971  0.3505E+03  0.5211E+03
      4.018  0.3414E+03  0.5370E+03
      4.064  0.3228E+03  0.5520E+03
      4.111  0.3067E+03  0.5663E+03
      4.158  0.2975E+03  0.5802E+03
      4.204  0.2874E+03  0.5936E+03
      4.251  0.2713E+03  0.6062E+03
      4.297  0.2537E+03  0.6180E+03
      4.344  0.2428E+03  0.6294E+03
      4.391  0.2453E+03  0.6408E+03
      4.437  0.2578E+03  0.6528E+03
      4.484  0.2618E+03  0.6650E+03
      4.530  0.2507E+03  0.6767E+03
      4.577  0.2477E+03  0.6882E+03
      4.624  0.2672E+03  0.7007E+03
      4.670  0.2919E+03  0.7143E+03
      4.717  0.3067E+03  0.7286E+03
      4.763  0.3136E+03  0.7432E+03
      4.810  0.3135E+03  0.7578E+03
      4.857  0.3049E+03  0.7720E+03
      4.903  0.2900E+03  0.7855E+03
      4.950  0.2784E+03  0.7985E+03
      4.996  0.2812E+03  0.8116E+03
      5.043  0.2952E+03  0.8254E+03
      5.090  0.3077E+03  0.8397E+03
      5.136  0.3090E+03  0.8541E+03
      5.183  0.2975E+03  0.8680E+03
      5.229  0.2856E+03  0.8813E+03
      5.276  0.2845E+03  0.8946E+03
      5.323  0.2904E+03  0.9081E+03
      5.369  0.2974E+03  0.9219E+03
      5.416  0.3020E+03  0.9360E+03
      5.462  0.2987E+03  0.9499E+03
      5.509  0.2888E+03  0.9634E+03
      5.556  0.2869E+03  0.9768E+03
      5.602  0.3030E+03  0.9909E+03
      5.649  0.3217E+03  0.1006E+04
      5.695  0.3254E+03  0.1021E+04
      5.742  0.3203E+03  0.1036E+04
      5.789  0.3200E+03  0.1051E+04
      5.835  0.3263E+03  0.1066E+04
      5.882  0.3368E+03  0.1082E+04
      5.929  0.3502E+03  0.1098E+04
      5.975  0.3654E+03  0.1115E+04
      6.022  0.3789E+03  0.1133E+04
      6.068  0.3854E+03  0.1151E+04
      6.115  0.3876E+03  0.1169E+04
      6.162  0.3918E+03  0.1187E+04
      6.208  0.3987E+03  0.1206E+04
      6.255  0.4097E+03  0.1225E+04
      6.301  0.4273E+03  0.1245E+04
      6.348  0.4465E+03  0.1265E+04
      6.395  0.4575E+03  0.1287E+04
      6.441  0.4573E+03  0.1308E+04
      6.488  0.4532E+03  0.1329E+04
      6.534  0.4499E+03  0.1350E+04
      6.581  0.4454E+03  0.1371E+04
      6.628  0.4389E+03  0.1391E+04
      6.674  0.4316E+03  0.1412E+04
      6.721  0.4247E+03  0.1431E+04
      6.767  0.4168E+03  0.1451E+04
      6.814  0.4013E+03  0.1469E+04
      6.861  0.3766E+03  0.1487E+04
      6.907  0.3542E+03  0.1504E+04
      6.954  0.3442E+03  0.1520E+04
      7.000  0.3391E+03  0.1535E+04
      7.047  0.3275E+03  0.1551E+04
      7.094  0.3147E+03  0.1565E+04
      7.140  0.3135E+03  0.1580E+04
      7.187  0.3194E+03  0.1595E+04
      7.233  0.3132E+03  0.1609E+04
      7.280  0.2871E+03  0.1623E+04
      7.327  0.2556E+03  0.1635E+04
      7.373  0.2402E+03  0.1646E+04
      7.420  0.2489E+03  0.1657E+04
      7.466  0.2714E+03  0.1670E+04
      7.513  0.2846E+03  0.1683E+04
      7.560  0.2763E+03  0.1696E+04
      7.606  0.2583E+03  0.1708E+04
      7.653  0.2482E+03  0.1720E+04
      7.700  0.2574E+03  0.1732E+04
      7.746  0.2832E+03  0.1745E+04
      7.793  0.3057E+03  0.1759E+04
      7.839  0.3120E+03  0.1774E+04
      7.886  0.3087E+03  0.1788E+04
      7.933  0.3030E+03  0.1802E+04
      7.979  0.2959E+03  0.1816E+04
      8.026  0.2909E+03  0.1830E+04
      8.072  0.2958E+03  0.1843E+04
      8.119  0.3094E+03  0.1858E+04
      8.166  0.3172E+03  0.1873E+04
      8.212  0.3179E+03  0.1888E+04
      8.259  0.3301E+03  0.1903E+04
      8.305  0.3540E+03  0.1919E+04
      8.352  0.3623E+03  0.1936E+04
      8.399  0.3394E+03  0.1952E+04
      8.445  0.2995E+03  0.1966E+04
      8.492  0.2666E+03  0.1978E+04
      8.538  0.2557E+03  0.1990E+04
      8.585  0.2712E+03  0.2003E+04
      8.632  0.2958E+03  0.2017E+04
      8.678  0.3002E+03  0.2031E+04
      8.725  0.2839E+03  0.2044E+04
      8.771  0.2674E+03  0.2057E+04
      8.818  0.2567E+03  0.2068E+04
      8.865  0.2489E+03  0.2080E+04
      8.911  0.2450E+03  0.2091E+04
      8.958  0.2453E+03  0.2103E+04
      9.004  0.2537E+03  0.2115E+04
      9.051  0.2737E+03  0.2128E+04
      9.098  0.2840E+03  0.2141E+04
      9.144  0.2657E+03  0.2153E+04
      9.191  0.2405E+03  0.2164E+04
      9.237  0.2281E+03  0.2175E+04
      9.284  0.2198E+03  0.2185E+04
      9.331  0.2139E+03  0.2195E+04
      9.377  0.2221E+03  0.2206E+04
      9.424  0.2428E+03  0.2217E+04
      9.470  0.2625E+03  0.2229E+04
      9.517  0.2736E+03  0.2242E+04
      9.564  0.2772E+03  0.2255E+04
      9.610  0.2762E+03  0.2268E+04
      9.657  0.2709E+03  0.2280E+04
      9.704  0.2608E+03  0.2292E+04
      9.750  0.2435E+03  0.2304E+04
      9.797  0.2240E+03  0.2314E+04
      9.843  0.2196E+03  0.2324E+04
      9.890  0.2369E+03  0.2335E+04
      9.937  0.2646E+03  0.2348E+04
      9.983  0.2958E+03  0.2362E+04
     10.030  0.3279E+03  0.2377E+04
     10.076  0.3493E+03  0.2393E+04
     10.123  0.3461E+03  0.2409E+04
     10.170  0.3236E+03  0.2424E+04
     10.216  0.3102E+03  0.2439E+04
     10.263  0.3297E+03  0.2454E+04
     10.309  0.3883E+03  0.2472E+04
     10.356  0.4677E+03  0.2494E+04
     10.403  0.5190E+03  0.2518E+04
     10.449  0.5084E+03  0.2542E+04
     10.496  0.4492E+03  0.2563E+04
     10.542  0.3726E+03  0.2580E+04
     10.589  0.3010E+03  0.2594E+04
     10.636  0.2474E+03  0.2606E+04
     10.682  0.2118E+03  0.2616E+04
     10.729  0.1802E+03  0.2624E+04
     10.775  0.1411E+03  0.2631E+04
     10.822  0.9624E+02  0.2635E+04
     10.869  0.5539E+02  0.2638E+04
     10.915  0.2639E+02  0.2639E+04
     10.962  0.1008E+02  0.2639E+04
     11.008  0.3313E+01  0.2640E+04
     11.055  0.1997E+01  0.2640E+04
     11.102  0.2287E+01  0.2640E+04
     11.148  0.1841E+01  0.2640E+04
     11.195  0.7080E+00  0.2640E+04
     11.241 -0.1793E-01  0.2640E+04
     11.288 -0.1290E+00  0.2640E+04
     11.335 -0.5353E-01  0.2640E+04
     11.381 -0.1122E-01  0.2640E+04
     11.428 -0.3473E-02  0.2640E+04
     11.475 -0.1338E-01  0.2640E+04
     11.521 -0.4271E-01  0.2640E+04
     11.568 -0.3473E-01  0.2640E+04
     11.614  0.2048E+00  0.2640E+04
     11.661  0.7220E+00  0.2640E+04
     11.708  0.1026E+01  0.2640E+04
     11.754  0.7160E+00  0.2640E+04
     11.801  0.2001E+00  0.2640E+04
     11.847 -0.3568E-01  0.2640E+04
     11.894 -0.4234E-01  0.2640E+04
     11.941 -0.1305E-01  0.2640E+04
     11.987 -0.2102E-02  0.2640E+04
     12.034 -0.1989E-03  0.2640E+04
     12.080 -0.1153E-04  0.2640E+04
     12.127 -0.4180E-06  0.2640E+04
     12.174 -0.9579E-08  0.2640E+04
     12.220 -0.1397E-09  0.2640E+04
     12.267 -0.1304E-11  0.2640E+04
     12.313 -0.7742E-14  0.2640E+04
     12.360  0.0000E+00  0.2640E+04
     12.407  0.0000E+00  0.2640E+04
     12.453  0.0000E+00  0.2640E+04
     12.500  0.0000E+00  0.2640E+04
     12.546  0.0000E+00  0.2640E+04
     12.593  0.0000E+00  0.2640E+04
     12.640  0.0000E+00  0.2640E+04
     12.686  0.0000E+00  0.2640E+04
