       N       E                     dE             d eps       ncg     rms          rms(c)
DAV:   1     0.112830511490E+05    0.11283E+05   -0.55466E+05 95400   0.810E+02
DAV:   2    -0.143890112180E+04   -0.12722E+05   -0.12145E+05 95800   0.337E+02
DAV:   3    -0.241094236062E+04   -0.97204E+03   -0.89411E+03135320   0.780E+01
DAV:   4    -0.248227534120E+04   -0.71333E+02   -0.68909E+02132200   0.209E+01
DAV:   5    -0.248511014539E+04   -0.28348E+01   -0.27792E+01139820   0.331E+00    0.779E+01
RMM:   6    -0.241634844707E+04    0.68762E+02   -0.68036E+02105922   0.245E+01    0.622E+01
RMM:   7    -0.237000024635E+04    0.46348E+02   -0.35231E+02 97792   0.172E+01    0.455E+01
RMM:   8    -0.233983916418E+04    0.30161E+02   -0.15682E+02 97705   0.114E+01    0.321E+01
RMM:   9    -0.231574258610E+04    0.24097E+02   -0.34431E+01 98805   0.531E+00    0.653E+00
RMM:  10    -0.231560484763E+04    0.13774E+00   -0.72087E+00137498   0.146E+00    0.415E+00
RMM:  11    -0.231534916538E+04    0.25568E+00   -0.13488E+00124030   0.707E-01    0.371E+00
RMM:  12    -0.231489233349E+04    0.45683E+00   -0.65087E-01109728   0.810E-01    0.198E+00
RMM:  13    -0.231481326664E+04    0.79067E-01   -0.24987E-01115271   0.401E-01    0.169E+00
RMM:  14    -0.231478114080E+04    0.32126E-01   -0.14281E-01119101   0.250E-01    0.156E+00
RMM:  15    -0.231472746859E+04    0.53672E-01   -0.92440E-02111668   0.245E-01    0.897E-01
RMM:  16    -0.231471581753E+04    0.11651E-01   -0.22566E-02111914   0.119E-01    0.416E-01
RMM:  17    -0.231471425542E+04    0.15621E-02   -0.10803E-02120988   0.699E-02    0.257E-01
RMM:  18    -0.231471408035E+04    0.17507E-03   -0.65811E-03129861   0.505E-02    0.198E-01
RMM:  19    -0.231471417679E+04   -0.96448E-04   -0.27200E-03126922   0.333E-02    0.197E-01
RMM:  20    -0.231471361528E+04    0.56151E-03   -0.52050E-04112634   0.176E-02    0.124E-01
RMM:  21    -0.231471326968E+04    0.34560E-03   -0.75697E-04117995   0.204E-02    0.390E-02
RMM:  22    -0.231471323495E+04    0.34738E-04   -0.26174E-04134722   0.975E-03
   1 F= -.23147132E+04 E0= -.23147208E+04  d E =0.228167E-01
