       N       E                     dE             d eps       ncg     rms          rms(c)
DAV:   1     0.112829686014E+05    0.11283E+05   -0.55466E+05 95400   0.810E+02
DAV:   2    -0.143841995241E+04   -0.12721E+05   -0.12145E+05 95780   0.337E+02
DAV:   3    -0.241079214019E+04   -0.97237E+03   -0.89419E+03135120   0.780E+01
DAV:   4    -0.248227450297E+04   -0.71482E+02   -0.69047E+02132220   0.209E+01
DAV:   5    -0.248511957354E+04   -0.28451E+01   -0.27888E+01139760   0.331E+00    0.779E+01
RMM:   6    -0.241645072769E+04    0.68669E+02   -0.68095E+02105887   0.245E+01    0.623E+01
RMM:   7    -0.236997539496E+04    0.46475E+02   -0.35226E+02 97752   0.172E+01    0.455E+01
RMM:   8    -0.233985330398E+04    0.30122E+02   -0.15694E+02 97683   0.114E+01    0.321E+01
RMM:   9    -0.231567364648E+04    0.24180E+02   -0.34466E+01 98788   0.531E+00    0.633E+00
RMM:  10    -0.231552235283E+04    0.15129E+00   -0.72990E+00137041   0.149E+00    0.387E+00
RMM:  11    -0.231536440262E+04    0.15795E+00   -0.13316E+00123869   0.692E-01    0.390E+00
RMM:  12    -0.231488895456E+04    0.47545E+00   -0.61696E-01110980   0.757E-01    0.196E+00
RMM:  13    -0.231477898968E+04    0.10996E+00   -0.25314E-01112637   0.437E-01    0.133E+00
RMM:  14    -0.231477563081E+04    0.33589E-02   -0.15981E-01115896   0.300E-01    0.164E+00
RMM:  15    -0.231472969728E+04    0.45934E-01   -0.59829E-02119915   0.156E-01    0.955E-01
RMM:  16    -0.231471584373E+04    0.13854E-01   -0.22776E-02111579   0.122E-01    0.445E-01
RMM:  17    -0.231471402890E+04    0.18148E-02   -0.12525E-02123528   0.742E-02    0.269E-01
RMM:  18    -0.231471378134E+04    0.24756E-03   -0.74625E-03130014   0.537E-02    0.200E-01
RMM:  19    -0.231471392860E+04   -0.14726E-03   -0.29630E-03128228   0.342E-02    0.204E-01
RMM:  20    -0.231471334355E+04    0.58504E-03   -0.55715E-04112590   0.182E-02    0.129E-01
RMM:  21    -0.231471298674E+04    0.35681E-03   -0.79454E-04117859   0.208E-02    0.420E-02
RMM:  22    -0.231471294934E+04    0.37405E-04   -0.27092E-04134696   0.998E-03
   1 F= -.23147129E+04 E0= -.23147206E+04  d E =0.228879E-01
