       N       E                     dE             d eps       ncg     rms          rms(c)
DAV:   1     0.112830425606E+05    0.11283E+05   -0.55466E+05 95400   0.810E+02
DAV:   2    -0.143839458366E+04   -0.12721E+05   -0.12145E+05 95780   0.337E+02
DAV:   3    -0.241080237402E+04   -0.97241E+03   -0.89428E+03135200   0.780E+01
DAV:   4    -0.248227432804E+04   -0.71472E+02   -0.69041E+02132280   0.209E+01
DAV:   5    -0.248511447165E+04   -0.28401E+01   -0.27845E+01140060   0.331E+00    0.779E+01
RMM:   6    -0.241638873179E+04    0.68726E+02   -0.68041E+02105881   0.245E+01    0.622E+01
RMM:   7    -0.236999213526E+04    0.46397E+02   -0.35215E+02 97794   0.172E+01    0.455E+01
RMM:   8    -0.233984823383E+04    0.30144E+02   -0.15706E+02 97705   0.114E+01    0.321E+01
RMM:   9    -0.231562575482E+04    0.24222E+02   -0.34490E+01 98742   0.532E+00    0.617E+00
RMM:  10    -0.231541808102E+04    0.20767E+00   -0.73765E+00136481   0.153E+00    0.347E+00
RMM:  11    -0.231527202579E+04    0.14606E+00   -0.13292E+00120144   0.812E-01    0.384E+00
RMM:  12    -0.231489893551E+04    0.37309E+00   -0.49512E-01116746   0.547E-01    0.210E+00
RMM:  13    -0.231477742713E+04    0.12151E+00   -0.25457E-01111987   0.436E-01    0.132E+00
RMM:  14    -0.231475141317E+04    0.26014E-01   -0.15305E-01111707   0.327E-01    0.137E+00
RMM:  15    -0.231472968058E+04    0.21733E-01   -0.47719E-02120047   0.138E-01    0.967E-01
RMM:  16    -0.231471489599E+04    0.14785E-01   -0.18751E-02113117   0.108E-01    0.473E-01
RMM:  17    -0.231471177367E+04    0.31223E-02   -0.15189E-02119777   0.886E-02    0.200E-01
RMM:  18    -0.231471270793E+04   -0.93426E-03   -0.10107E-02131092   0.642E-02    0.231E-01
RMM:  19    -0.231471225347E+04    0.45446E-03   -0.13295E-03126535   0.217E-02    0.182E-01
RMM:  20    -0.231471181843E+04    0.43504E-03   -0.43435E-04117946   0.147E-02    0.122E-01
RMM:  21    -0.231471150029E+04    0.31814E-03   -0.68481E-04119676   0.190E-02    0.392E-02
RMM:  22    -0.231471146435E+04    0.35936E-04   -0.22314E-04135957   0.900E-03
   1 F= -.23147115E+04 E0= -.23147191E+04  d E =0.229409E-01
