 256 256   0   0
  0.1419206E+02  0.1537080E-08  0.1537218E-08  0.1537636E-08  0.5000000E-15
  1.000000000000000E-004
  CAR 
 Ir_Ru                                   
     12.68928361     -1.29493566  301      9.24209235      1.00000000
     -1.295  0.0000E+00  0.0000E+00
     -1.248  0.0000E+00  0.0000E+00
     -1.202  0.0000E+00  0.0000E+00
     -1.155  0.0000E+00  0.0000E+00
     -1.108 -0.2774E-28 -0.1293E-29
     -1.062 -0.4146E-25 -0.1934E-26
     -1.015 -0.3995E-22 -0.1864E-23
     -0.969 -0.2484E-19 -0.1160E-20
     -0.922 -0.9960E-17 -0.4654E-18
     -0.875 -0.2501E-14 -0.1171E-15
     -0.829 -0.4147E-12 -0.1945E-13
     -0.782 -0.4429E-10 -0.2084E-11
     -0.736 -0.3047E-08 -0.1441E-09
     -0.689 -0.1351E-06 -0.6443E-08
     -0.642 -0.3869E-05 -0.1868E-06
     -0.596 -0.7170E-04 -0.3529E-05
     -0.549 -0.8628E-03 -0.4375E-04
     -0.502 -0.6742E-02 -0.3580E-03
     -0.456 -0.3380E-01 -0.1934E-02
     -0.409 -0.1025E+00 -0.6711E-02
     -0.363 -0.1373E+00 -0.1311E-01
     -0.316  0.2286E+00 -0.2453E-02
     -0.269  0.1521E+01  0.6844E-01
     -0.223  0.3552E+01  0.2340E+00
     -0.176  0.5077E+01  0.4707E+00
     -0.130  0.5738E+01  0.7382E+00
     -0.083  0.7345E+01  0.1081E+01
     -0.036  0.1022E+02  0.1557E+01
      0.010  0.1101E+02  0.2070E+01
      0.057  0.9136E+01  0.2496E+01
      0.103  0.9402E+01  0.2934E+01
      0.150  0.1319E+02  0.3549E+01
      0.197  0.1592E+02  0.4291E+01
      0.243  0.1604E+02  0.5039E+01
      0.290  0.1674E+02  0.5819E+01
      0.337  0.1850E+02  0.6682E+01
      0.383  0.1832E+02  0.7536E+01
      0.430  0.1742E+02  0.8348E+01
      0.476  0.1982E+02  0.9272E+01
      0.523  0.2338E+02  0.1036E+02
      0.570  0.2404E+02  0.1148E+02
      0.616  0.2225E+02  0.1252E+02
      0.663  0.1869E+02  0.1339E+02
      0.709  0.1405E+02  0.1405E+02
      0.756  0.1113E+02  0.1456E+02
      0.803  0.1072E+02  0.1506E+02
      0.849  0.1116E+02  0.1558E+02
      0.896  0.1221E+02  0.1615E+02
      0.943  0.1472E+02  0.1684E+02
      0.989  0.1842E+02  0.1770E+02
      1.036  0.2296E+02  0.1877E+02
      1.082  0.2814E+02  0.2008E+02
      1.129  0.3126E+02  0.2154E+02
      1.176  0.2969E+02  0.2292E+02
      1.222  0.2585E+02  0.2413E+02
      1.269  0.2301E+02  0.2520E+02
      1.315  0.2091E+02  0.2617E+02
      1.362  0.2000E+02  0.2711E+02
      1.409  0.2165E+02  0.2812E+02
      1.455  0.2409E+02  0.2924E+02
      1.502  0.2567E+02  0.3044E+02
      1.549  0.2901E+02  0.3179E+02
      1.595  0.3516E+02  0.3343E+02
      1.642  0.3875E+02  0.3523E+02
      1.688  0.3786E+02  0.3700E+02
      1.735  0.3934E+02  0.3883E+02
      1.782  0.4559E+02  0.4096E+02
      1.828  0.4932E+02  0.4325E+02
      1.875  0.4777E+02  0.4548E+02
      1.921  0.4732E+02  0.4769E+02
      1.968  0.5097E+02  0.5006E+02
      2.015  0.5411E+02  0.5259E+02
      2.061  0.5549E+02  0.5517E+02
      2.108  0.6155E+02  0.5804E+02
      2.155  0.7486E+02  0.6153E+02
      2.201  0.8969E+02  0.6571E+02
      2.248  0.1034E+03  0.7053E+02
      2.294  0.1181E+03  0.7604E+02
      2.341  0.1312E+03  0.8215E+02
      2.388  0.1384E+03  0.8860E+02
      2.434  0.1434E+03  0.9528E+02
      2.481  0.1526E+03  0.1024E+03
      2.527  0.1611E+03  0.1099E+03
      2.574  0.1616E+03  0.1174E+03
      2.621  0.1613E+03  0.1250E+03
      2.667  0.1691E+03  0.1328E+03
      2.714  0.1786E+03  0.1412E+03
      2.760  0.1850E+03  0.1498E+03
      2.807  0.1983E+03  0.1590E+03
      2.854  0.2236E+03  0.1695E+03
      2.900  0.2481E+03  0.1810E+03
      2.947  0.2563E+03  0.1930E+03
      2.994  0.2496E+03  0.2046E+03
      3.040  0.2470E+03  0.2161E+03
      3.087  0.2627E+03  0.2284E+03
      3.133  0.2871E+03  0.2417E+03
      3.180  0.3015E+03  0.2558E+03
      3.227  0.3039E+03  0.2700E+03
      3.273  0.3051E+03  0.2842E+03
      3.320  0.3085E+03  0.2986E+03
      3.366  0.3112E+03  0.3131E+03
      3.413  0.3145E+03  0.3277E+03
      3.460  0.3219E+03  0.3427E+03
      3.506  0.3337E+03  0.3583E+03
      3.553  0.3443E+03  0.3743E+03
      3.600  0.3469E+03  0.3905E+03
      3.646  0.3449E+03  0.4066E+03
      3.693  0.3491E+03  0.4229E+03
      3.739  0.3581E+03  0.4395E+03
      3.786  0.3593E+03  0.4563E+03
      3.833  0.3521E+03  0.4727E+03
      3.879  0.3478E+03  0.4889E+03
      3.926  0.3498E+03  0.5052E+03
      3.972  0.3505E+03  0.5216E+03
      4.019  0.3409E+03  0.5375E+03
      4.066  0.3222E+03  0.5525E+03
      4.112  0.3063E+03  0.5667E+03
      4.159  0.2973E+03  0.5806E+03
      4.206  0.2869E+03  0.5940E+03
      4.252  0.2706E+03  0.6066E+03
      4.299  0.2531E+03  0.6184E+03
      4.345  0.2426E+03  0.6297E+03
      4.392  0.2456E+03  0.6411E+03
      4.439  0.2582E+03  0.6532E+03
      4.485  0.2615E+03  0.6654E+03
      4.532  0.2502E+03  0.6770E+03
      4.578  0.2480E+03  0.6886E+03
      4.625  0.2681E+03  0.7011E+03
      4.672  0.2927E+03  0.7147E+03
      4.718  0.3072E+03  0.7291E+03
      4.765  0.3138E+03  0.7437E+03
      4.812  0.3133E+03  0.7583E+03
      4.858  0.3044E+03  0.7725E+03
      4.905  0.2895E+03  0.7860E+03
      4.951  0.2783E+03  0.7990E+03
      4.998  0.2816E+03  0.8121E+03
      5.045  0.2959E+03  0.8259E+03
      5.091  0.3082E+03  0.8402E+03
      5.138  0.3089E+03  0.8546E+03
      5.184  0.2970E+03  0.8685E+03
      5.231  0.2853E+03  0.8818E+03
      5.278  0.2846E+03  0.8951E+03
      5.324  0.2907E+03  0.9086E+03
      5.371  0.2976E+03  0.9225E+03
      5.417  0.3019E+03  0.9365E+03
      5.464  0.2983E+03  0.9504E+03
      5.511  0.2884E+03  0.9639E+03
      5.557  0.2871E+03  0.9773E+03
      5.604  0.3036E+03  0.9914E+03
      5.651  0.3220E+03  0.1006E+04
      5.697  0.3251E+03  0.1022E+04
      5.744  0.3201E+03  0.1037E+04
      5.790  0.3202E+03  0.1051E+04
      5.837  0.3267E+03  0.1067E+04
      5.884  0.3373E+03  0.1082E+04
      5.930  0.3507E+03  0.1099E+04
      5.977  0.3660E+03  0.1116E+04
      6.023  0.3794E+03  0.1133E+04
      6.070  0.3856E+03  0.1151E+04
      6.117  0.3877E+03  0.1170E+04
      6.163  0.3920E+03  0.1188E+04
      6.210  0.3990E+03  0.1206E+04
      6.257  0.4101E+03  0.1226E+04
      6.303  0.4280E+03  0.1245E+04
      6.350  0.4472E+03  0.1266E+04
      6.396  0.4575E+03  0.1288E+04
      6.443  0.4570E+03  0.1309E+04
      6.490  0.4530E+03  0.1330E+04
      6.536  0.4499E+03  0.1351E+04
      6.583  0.4454E+03  0.1372E+04
      6.629  0.4389E+03  0.1392E+04
      6.676  0.4315E+03  0.1412E+04
      6.723  0.4244E+03  0.1432E+04
      6.769  0.4164E+03  0.1452E+04
      6.816  0.4005E+03  0.1470E+04
      6.863  0.3754E+03  0.1488E+04
      6.909  0.3535E+03  0.1504E+04
      6.956  0.3440E+03  0.1520E+04
      7.002  0.3388E+03  0.1536E+04
      7.049  0.3269E+03  0.1551E+04
      7.096  0.3144E+03  0.1566E+04
      7.142  0.3139E+03  0.1581E+04
      7.189  0.3196E+03  0.1595E+04
      7.235  0.3124E+03  0.1610E+04
      7.282  0.2857E+03  0.1623E+04
      7.329  0.2545E+03  0.1635E+04
      7.375  0.2400E+03  0.1646E+04
      7.422  0.2497E+03  0.1658E+04
      7.469  0.2724E+03  0.1671E+04
      7.515  0.2847E+03  0.1684E+04
      7.562  0.2755E+03  0.1697E+04
      7.608  0.2576E+03  0.1709E+04
      7.655  0.2482E+03  0.1720E+04
      7.702  0.2583E+03  0.1732E+04
      7.748  0.2845E+03  0.1746E+04
      7.795  0.3063E+03  0.1760E+04
      7.841  0.3120E+03  0.1775E+04
      7.888  0.3085E+03  0.1789E+04
      7.935  0.3026E+03  0.1803E+04
      7.981  0.2955E+03  0.1817E+04
      8.028  0.2909E+03  0.1830E+04
      8.074  0.2964E+03  0.1844E+04
      8.121  0.3100E+03  0.1859E+04
      8.168  0.3172E+03  0.1873E+04
      8.214  0.3180E+03  0.1888E+04
      8.261  0.3311E+03  0.1904E+04
      8.308  0.3549E+03  0.1920E+04
      8.354  0.3619E+03  0.1937E+04
      8.401  0.3376E+03  0.1953E+04
      8.447  0.2975E+03  0.1967E+04
      8.494  0.2655E+03  0.1979E+04
      8.541  0.2559E+03  0.1991E+04
      8.587  0.2725E+03  0.2004E+04
      8.634  0.2966E+03  0.2018E+04
      8.680  0.2996E+03  0.2031E+04
      8.727  0.2829E+03  0.2045E+04
      8.774  0.2668E+03  0.2057E+04
      8.820  0.2563E+03  0.2069E+04
      8.867  0.2486E+03  0.2081E+04
      8.914  0.2450E+03  0.2092E+04
      8.960  0.2455E+03  0.2104E+04
      9.007  0.2545E+03  0.2115E+04
      9.053  0.2748E+03  0.2128E+04
      9.100  0.2837E+03  0.2141E+04
      9.147  0.2643E+03  0.2154E+04
      9.193  0.2395E+03  0.2165E+04
      9.240  0.2277E+03  0.2175E+04
      9.286  0.2193E+03  0.2186E+04
      9.333  0.2138E+03  0.2196E+04
      9.380  0.2230E+03  0.2206E+04
      9.426  0.2439E+03  0.2217E+04
      9.473  0.2634E+03  0.2230E+04
      9.520  0.2740E+03  0.2243E+04
      9.566  0.2773E+03  0.2255E+04
      9.613  0.2759E+03  0.2268E+04
      9.659  0.2704E+03  0.2281E+04
      9.706  0.2601E+03  0.2293E+04
      9.753  0.2425E+03  0.2304E+04
      9.799  0.2233E+03  0.2315E+04
      9.846  0.2200E+03  0.2325E+04
      9.892  0.2383E+03  0.2336E+04
      9.939  0.2662E+03  0.2349E+04
      9.986  0.2974E+03  0.2362E+04
     10.032  0.3294E+03  0.2378E+04
     10.079  0.3498E+03  0.2394E+04
     10.126  0.3452E+03  0.2410E+04
     10.172  0.3223E+03  0.2425E+04
     10.219  0.3103E+03  0.2440E+04
     10.265  0.3320E+03  0.2455E+04
     10.312  0.3926E+03  0.2473E+04
     10.359  0.4717E+03  0.2495E+04
     10.405  0.5200E+03  0.2520E+04
     10.452  0.5061E+03  0.2543E+04
     10.498  0.4453E+03  0.2564E+04
     10.545  0.3686E+03  0.2581E+04
     10.592  0.2977E+03  0.2595E+04
     10.638  0.2451E+03  0.2606E+04
     10.685  0.2099E+03  0.2616E+04
     10.731  0.1780E+03  0.2625E+04
     10.778  0.1386E+03  0.2631E+04
     10.825  0.9400E+02  0.2635E+04
     10.871  0.5386E+02  0.2638E+04
     10.918  0.2568E+02  0.2639E+04
     10.965  0.9705E+01  0.2640E+04
     11.011  0.2692E+01  0.2640E+04
     11.058  0.1224E+01  0.2640E+04
     11.104  0.1726E+01  0.2640E+04
     11.151  0.1575E+01  0.2640E+04
     11.198  0.6367E+00  0.2640E+04
     11.244 -0.9586E-02  0.2640E+04
     11.291 -0.1121E+00  0.2640E+04
     11.337 -0.4647E-01  0.2640E+04
     11.384 -0.9673E-02  0.2640E+04
     11.431 -0.3440E-02  0.2640E+04
     11.477 -0.1409E-01  0.2640E+04
     11.524 -0.4368E-01  0.2640E+04
     11.571 -0.3116E-01  0.2640E+04
     11.617  0.2196E+00  0.2640E+04
     11.664  0.7388E+00  0.2640E+04
     11.710  0.1023E+01  0.2640E+04
     11.757  0.6975E+00  0.2640E+04
     11.804  0.1872E+00  0.2640E+04
     11.850 -0.3777E-01  0.2640E+04
     11.897 -0.4119E-01  0.2640E+04
     11.943 -0.1243E-01  0.2640E+04
     11.990 -0.1973E-02  0.2640E+04
     12.037 -0.1845E-03  0.2640E+04
     12.083 -0.1058E-04  0.2640E+04
     12.130 -0.3801E-06  0.2640E+04
     12.177 -0.8638E-08  0.2640E+04
     12.223 -0.1251E-09  0.2640E+04
     12.270 -0.1158E-11  0.2640E+04
     12.316 -0.7145E-14  0.2640E+04
     12.363  0.0000E+00  0.2640E+04
     12.410  0.0000E+00  0.2640E+04
     12.456  0.0000E+00  0.2640E+04
     12.503  0.0000E+00  0.2640E+04
     12.549  0.0000E+00  0.2640E+04
     12.596  0.0000E+00  0.2640E+04
     12.643  0.0000E+00  0.2640E+04
     12.689  0.0000E+00  0.2640E+04
