  96  96   0   0
  0.1459365E+02  0.1098685E-08  0.1098895E-08  0.1339819E-08  0.5000000E-15
  1.000000000000000E-004
  CAR 
 Ir_Ru                                   
     16.00645442     -1.84887371  301      9.98871567      1.00000000
     -1.849  0.0000E+00  0.0000E+00
     -1.789  0.0000E+00  0.0000E+00
     -1.730  0.0000E+00  0.0000E+00
     -1.670 -0.3857E-29 -0.2296E-30
     -1.611 -0.4429E-25 -0.2636E-26
     -1.551 -0.2489E-21 -0.1482E-22
     -1.492 -0.6837E-18 -0.4071E-19
     -1.432 -0.8982E-15 -0.5350E-16
     -1.373 -0.5775E-12 -0.3442E-13
     -1.313 -0.1815E-09 -0.1084E-10
     -1.254 -0.2749E-07 -0.1647E-08
     -1.194 -0.1992E-05 -0.1202E-06
     -1.135 -0.6824E-04 -0.4181E-05
     -1.075 -0.1090E-02 -0.6903E-04
     -1.016 -0.7989E-02 -0.5445E-03
     -0.956 -0.2611E-01 -0.2099E-02
     -0.897 -0.1895E-01 -0.3226E-02
     -0.837  0.2037E+00  0.8900E-02
     -0.778  0.9782E+00  0.6712E-01
     -0.718  0.2069E+01  0.1903E+00
     -0.659  0.2364E+01  0.3309E+00
     -0.599  0.1705E+01  0.4324E+00
     -0.539  0.2278E+01  0.5680E+00
     -0.480  0.4684E+01  0.8468E+00
     -0.420  0.5547E+01  0.1177E+01
     -0.361  0.3340E+01  0.1376E+01
     -0.301  0.1626E+01  0.1472E+01
     -0.242  0.2937E+01  0.1647E+01
     -0.182  0.6076E+01  0.2009E+01
     -0.123  0.7984E+01  0.2484E+01
     -0.063  0.5881E+01  0.2834E+01
     -0.004  0.3386E+01  0.3036E+01
      0.056  0.5577E+01  0.3368E+01
      0.115  0.7544E+01  0.3817E+01
      0.175  0.5192E+01  0.4126E+01
      0.234  0.4032E+01  0.4366E+01
      0.294  0.6121E+01  0.4730E+01
      0.353  0.8977E+01  0.5264E+01
      0.413  0.9876E+01  0.5852E+01
      0.472  0.7491E+01  0.6298E+01
      0.532  0.7638E+01  0.6753E+01
      0.591  0.1117E+02  0.7417E+01
      0.651  0.8917E+01  0.7948E+01
      0.710  0.2385E+01  0.8090E+01
      0.770  0.2191E+01  0.8220E+01
      0.829  0.1014E+02  0.8824E+01
      0.889  0.1676E+02  0.9821E+01
      0.948  0.1445E+02  0.1068E+02
      1.008  0.1094E+02  0.1133E+02
      1.067  0.1094E+02  0.1198E+02
      1.127  0.9902E+01  0.1257E+02
      1.187  0.8350E+01  0.1307E+02
      1.246  0.7547E+01  0.1352E+02
      1.306  0.9441E+01  0.1408E+02
      1.365  0.1371E+02  0.1490E+02
      1.425  0.1751E+02  0.1594E+02
      1.484  0.1670E+02  0.1693E+02
      1.544  0.1290E+02  0.1770E+02
      1.603  0.1411E+02  0.1854E+02
      1.663  0.1673E+02  0.1954E+02
      1.722  0.1574E+02  0.2047E+02
      1.782  0.1677E+02  0.2147E+02
      1.841  0.1953E+02  0.2263E+02
      1.901  0.1968E+02  0.2380E+02
      1.960  0.1533E+02  0.2472E+02
      2.020  0.1100E+02  0.2537E+02
      2.079  0.1722E+02  0.2640E+02
      2.139  0.3351E+02  0.2839E+02
      2.198  0.4726E+02  0.3120E+02
      2.258  0.5215E+02  0.3431E+02
      2.317  0.6001E+02  0.3788E+02
      2.377  0.6675E+02  0.4185E+02
      2.436  0.6632E+02  0.4580E+02
      2.496  0.7729E+02  0.5040E+02
      2.555  0.8467E+02  0.5544E+02
      2.615  0.7332E+02  0.5980E+02
      2.674  0.7438E+02  0.6423E+02
      2.734  0.8900E+02  0.6953E+02
      2.794  0.9727E+02  0.7532E+02
      2.853  0.9833E+02  0.8117E+02
      2.913  0.8881E+02  0.8645E+02
      2.972  0.7796E+02  0.9109E+02
      3.032  0.8217E+02  0.9598E+02
      3.091  0.1088E+03  0.1025E+03
      3.151  0.1326E+03  0.1104E+03
      3.210  0.1190E+03  0.1174E+03
      3.270  0.8884E+02  0.1227E+03
      3.329  0.8065E+02  0.1275E+03
      3.389  0.1018E+03  0.1336E+03
      3.448  0.1369E+03  0.1417E+03
      3.508  0.1453E+03  0.1504E+03
      3.567  0.1212E+03  0.1576E+03
      3.627  0.1013E+03  0.1636E+03
      3.686  0.8682E+02  0.1688E+03
      3.746  0.8123E+02  0.1736E+03
      3.805  0.9392E+02  0.1792E+03
      3.865  0.9960E+02  0.1851E+03
      3.924  0.8777E+02  0.1904E+03
      3.984  0.6640E+02  0.1943E+03
      4.043  0.6314E+02  0.1981E+03
      4.103  0.9596E+02  0.2038E+03
      4.162  0.1395E+03  0.2121E+03
      4.222  0.1534E+03  0.2212E+03
      4.281  0.1348E+03  0.2292E+03
      4.341  0.1166E+03  0.2362E+03
      4.400  0.1052E+03  0.2425E+03
      4.460  0.9829E+02  0.2483E+03
      4.520  0.1027E+03  0.2544E+03
      4.579  0.1050E+03  0.2607E+03
      4.639  0.1021E+03  0.2667E+03
      4.698  0.1042E+03  0.2729E+03
      4.758  0.1046E+03  0.2792E+03
      4.817  0.1108E+03  0.2858E+03
      4.877  0.1250E+03  0.2932E+03
      4.936  0.1362E+03  0.3013E+03
      4.996  0.1427E+03  0.3098E+03
      5.055  0.1554E+03  0.3191E+03
      5.115  0.1524E+03  0.3281E+03
      5.174  0.1268E+03  0.3357E+03
      5.234  0.1068E+03  0.3420E+03
      5.293  0.1036E+03  0.3482E+03
      5.353  0.9332E+02  0.3537E+03
      5.412  0.7073E+02  0.3580E+03
      5.472  0.5467E+02  0.3612E+03
      5.531  0.4969E+02  0.3642E+03
      5.591  0.5875E+02  0.3677E+03
      5.650  0.8076E+02  0.3725E+03
      5.710  0.1030E+03  0.3786E+03
      5.769  0.1282E+03  0.3862E+03
      5.829  0.1634E+03  0.3959E+03
      5.888  0.1752E+03  0.4064E+03
      5.948  0.1693E+03  0.4165E+03
      6.007  0.1741E+03  0.4268E+03
      6.067  0.1636E+03  0.4366E+03
      6.127  0.1362E+03  0.4447E+03
      6.186  0.1347E+03  0.4527E+03
      6.246  0.1607E+03  0.4622E+03
      6.305  0.1710E+03  0.4724E+03
      6.365  0.1502E+03  0.4814E+03
      6.424  0.1296E+03  0.4891E+03
      6.484  0.1298E+03  0.4968E+03
      6.543  0.1384E+03  0.5050E+03
      6.603  0.1452E+03  0.5137E+03
      6.662  0.1406E+03  0.5220E+03
      6.722  0.1430E+03  0.5305E+03
      6.781  0.1715E+03  0.5408E+03
      6.841  0.1757E+03  0.5512E+03
      6.900  0.1471E+03  0.5600E+03
      6.960  0.1393E+03  0.5683E+03
      7.019  0.1570E+03  0.5776E+03
      7.079  0.1709E+03  0.5878E+03
      7.138  0.1706E+03  0.5979E+03
      7.198  0.1619E+03  0.6076E+03
      7.257  0.1511E+03  0.6166E+03
      7.317  0.1431E+03  0.6251E+03
      7.376  0.1322E+03  0.6329E+03
      7.436  0.1188E+03  0.6400E+03
      7.495  0.1168E+03  0.6470E+03
      7.555  0.1217E+03  0.6542E+03
      7.614  0.1122E+03  0.6609E+03
      7.674  0.9420E+02  0.6665E+03
      7.733  0.8605E+02  0.6716E+03
      7.793  0.8431E+02  0.6766E+03
      7.853  0.8350E+02  0.6816E+03
      7.912  0.8906E+02  0.6869E+03
      7.972  0.1002E+03  0.6929E+03
      8.031  0.1124E+03  0.6996E+03
      8.091  0.1060E+03  0.7059E+03
      8.150  0.7482E+02  0.7103E+03
      8.210  0.5489E+02  0.7136E+03
      8.269  0.6437E+02  0.7174E+03
      8.329  0.8149E+02  0.7223E+03
      8.388  0.9236E+02  0.7278E+03
      8.448  0.9809E+02  0.7336E+03
      8.507  0.9560E+02  0.7393E+03
      8.567  0.7774E+02  0.7439E+03
      8.626  0.7074E+02  0.7481E+03
      8.686  0.7152E+02  0.7524E+03
      8.745  0.5570E+02  0.7557E+03
      8.805  0.5152E+02  0.7588E+03
      8.864  0.6431E+02  0.7626E+03
      8.924  0.7695E+02  0.7672E+03
      8.983  0.8633E+02  0.7723E+03
      9.043  0.9687E+02  0.7781E+03
      9.102  0.9881E+02  0.7840E+03
      9.162  0.8396E+02  0.7890E+03
      9.221  0.6459E+02  0.7928E+03
      9.281  0.5666E+02  0.7962E+03
      9.340  0.5512E+02  0.7995E+03
      9.400  0.5797E+02  0.8029E+03
      9.460  0.7048E+02  0.8071E+03
      9.519  0.7876E+02  0.8118E+03
      9.579  0.1010E+03  0.8178E+03
      9.638  0.1256E+03  0.8253E+03
      9.698  0.1107E+03  0.8319E+03
      9.757  0.9259E+02  0.8374E+03
      9.817  0.1163E+03  0.8443E+03
      9.876  0.1321E+03  0.8522E+03
      9.936  0.1151E+03  0.8590E+03
      9.995  0.9359E+02  0.8646E+03
     10.055  0.9716E+02  0.8704E+03
     10.114  0.1132E+03  0.8771E+03
     10.174  0.1230E+03  0.8844E+03
     10.233  0.1421E+03  0.8929E+03
     10.293  0.1602E+03  0.9024E+03
     10.352  0.1655E+03  0.9123E+03
     10.412  0.1617E+03  0.9219E+03
     10.471  0.1509E+03  0.9309E+03
     10.531  0.1646E+03  0.9407E+03
     10.590  0.2058E+03  0.9529E+03
     10.650  0.2084E+03  0.9653E+03
     10.709  0.1703E+03  0.9755E+03
     10.769  0.1503E+03  0.9844E+03
     10.828  0.1388E+03  0.9927E+03
     10.888  0.1294E+03  0.1000E+04
     10.947  0.1235E+03  0.1008E+04
     11.007  0.9352E+02  0.1013E+04
     11.066  0.5525E+02  0.1017E+04
     11.126  0.3259E+02  0.1019E+04
     11.186  0.2263E+02  0.1020E+04
     11.245  0.2073E+02  0.1021E+04
     11.305  0.1887E+02  0.1022E+04
     11.364  0.1305E+02  0.1023E+04
     11.424  0.1055E+02  0.1024E+04
     11.483  0.1049E+02  0.1024E+04
     11.543  0.9854E+01  0.1025E+04
     11.602  0.1025E+02  0.1025E+04
     11.662  0.1273E+02  0.1026E+04
     11.721  0.1494E+02  0.1027E+04
     11.781  0.1417E+02  0.1028E+04
     11.840  0.1122E+02  0.1029E+04
     11.900  0.9039E+01  0.1029E+04
     11.959  0.7093E+01  0.1030E+04
     12.019  0.4568E+01  0.1030E+04
     12.078  0.3558E+01  0.1030E+04
     12.138  0.3769E+01  0.1030E+04
     12.197  0.4486E+01  0.1031E+04
     12.257  0.6033E+01  0.1031E+04
     12.316  0.7057E+01  0.1031E+04
     12.376  0.6846E+01  0.1032E+04
     12.435  0.6915E+01  0.1032E+04
     12.495  0.6503E+01  0.1033E+04
     12.554  0.5490E+01  0.1033E+04
     12.614  0.5817E+01  0.1033E+04
     12.673  0.6256E+01  0.1034E+04
     12.733  0.5704E+01  0.1034E+04
     12.792  0.5212E+01  0.1034E+04
     12.852  0.4976E+01  0.1035E+04
     12.912  0.4822E+01  0.1035E+04
     12.971  0.4745E+01  0.1035E+04
     13.031  0.4592E+01  0.1035E+04
     13.090  0.3811E+01  0.1036E+04
     13.150  0.3070E+01  0.1036E+04
     13.209  0.2869E+01  0.1036E+04
     13.269  0.2920E+01  0.1036E+04
     13.328  0.3109E+01  0.1036E+04
     13.388  0.3290E+01  0.1036E+04
     13.447  0.4305E+01  0.1037E+04
     13.507  0.4910E+01  0.1037E+04
     13.566  0.4677E+01  0.1037E+04
     13.626  0.4932E+01  0.1038E+04
     13.685  0.4394E+01  0.1038E+04
     13.745  0.2515E+01  0.1038E+04
     13.804  0.1389E+01  0.1038E+04
     13.864  0.1669E+01  0.1038E+04
     13.923  0.1800E+01  0.1038E+04
     13.983  0.1457E+01  0.1038E+04
     14.042  0.1625E+01  0.1038E+04
     14.102  0.2414E+01  0.1039E+04
     14.161  0.2444E+01  0.1039E+04
     14.221  0.1414E+01  0.1039E+04
     14.280  0.1109E+01  0.1039E+04
     14.340  0.2026E+01  0.1039E+04
     14.399  0.2800E+01  0.1039E+04
     14.459  0.2844E+01  0.1039E+04
     14.519  0.2338E+01  0.1040E+04
     14.578  0.1489E+01  0.1040E+04
     14.638  0.8677E+00  0.1040E+04
     14.697  0.1076E+01  0.1040E+04
     14.757  0.1184E+01  0.1040E+04
     14.816  0.6968E+00  0.1040E+04
     14.876  0.5728E+00  0.1040E+04
     14.935  0.8765E+00  0.1040E+04
     14.995  0.8156E+00  0.1040E+04
     15.054  0.4158E+00  0.1040E+04
     15.114  0.8203E-01  0.1040E+04
     15.173 -0.2375E-01  0.1040E+04
     15.233 -0.1355E-01  0.1040E+04
     15.292 -0.2097E-02  0.1040E+04
     15.352 -0.1355E-03  0.1040E+04
     15.411 -0.3983E-05  0.1040E+04
     15.471 -0.5504E-07  0.1040E+04
     15.530 -0.3633E-09  0.1040E+04
     15.590 -0.1155E-11  0.1040E+04
     15.649 -0.1791E-14  0.1040E+04
     15.709  0.0000E+00  0.1040E+04
     15.768  0.0000E+00  0.1040E+04
     15.828  0.0000E+00  0.1040E+04
     15.887  0.0000E+00  0.1040E+04
     15.947  0.0000E+00  0.1040E+04
     16.006  0.0000E+00  0.1040E+04
