 256 256   0   0
  0.1419206E+02  0.1537080E-08  0.1537218E-08  0.1537636E-08  0.5000000E-15
  1.000000000000000E-004
  CAR 
 Ir_Ru                                   
     12.68457816     -1.29511124  301      9.24211549      1.00000000
     -1.295  0.0000E+00  0.0000E+00
     -1.249  0.0000E+00  0.0000E+00
     -1.202  0.0000E+00  0.0000E+00
     -1.155  0.0000E+00  0.0000E+00
     -1.109 -0.2748E-28 -0.1281E-29
     -1.062 -0.4100E-25 -0.1912E-26
     -1.016 -0.3945E-22 -0.1840E-23
     -0.969 -0.2450E-19 -0.1143E-20
     -0.922 -0.9815E-17 -0.4585E-18
     -0.876 -0.2462E-14 -0.1152E-15
     -0.829 -0.4083E-12 -0.1914E-13
     -0.783 -0.4361E-10 -0.2051E-11
     -0.736 -0.3001E-08 -0.1419E-09
     -0.689 -0.1331E-06 -0.6346E-08
     -0.643 -0.3815E-05 -0.1841E-06
     -0.596 -0.7079E-04 -0.3483E-05
     -0.550 -0.8530E-03 -0.4323E-04
     -0.503 -0.6677E-02 -0.3544E-03
     -0.456 -0.3355E-01 -0.1918E-02
     -0.410 -0.1020E+00 -0.6671E-02
     -0.363 -0.1378E+00 -0.1309E-01
     -0.317  0.2236E+00 -0.2671E-02
     -0.270  0.1509E+01  0.6763E-01
     -0.223  0.3538E+01  0.2325E+00
     -0.177  0.5071E+01  0.4688E+00
     -0.130  0.5733E+01  0.7360E+00
     -0.084  0.7327E+01  0.1077E+01
     -0.037  0.1020E+02  0.1553E+01
      0.010  0.1102E+02  0.2066E+01
      0.056  0.9153E+01  0.2493E+01
      0.103  0.9385E+01  0.2930E+01
      0.149  0.1315E+02  0.3543E+01
      0.196  0.1592E+02  0.4285E+01
      0.243  0.1605E+02  0.5033E+01
      0.289  0.1674E+02  0.5813E+01
      0.336  0.1850E+02  0.6674E+01
      0.382  0.1834E+02  0.7529E+01
      0.429  0.1744E+02  0.8342E+01
      0.476  0.1982E+02  0.9265E+01
      0.522  0.2339E+02  0.1035E+02
      0.569  0.2407E+02  0.1148E+02
      0.615  0.2228E+02  0.1251E+02
      0.662  0.1873E+02  0.1339E+02
      0.709  0.1407E+02  0.1404E+02
      0.755  0.1112E+02  0.1456E+02
      0.802  0.1070E+02  0.1506E+02
      0.848  0.1112E+02  0.1558E+02
      0.895  0.1210E+02  0.1614E+02
      0.942  0.1457E+02  0.1682E+02
      0.988  0.1827E+02  0.1767E+02
      1.035  0.2282E+02  0.1874E+02
      1.081  0.2802E+02  0.2004E+02
      1.128  0.3125E+02  0.2150E+02
      1.175  0.2979E+02  0.2289E+02
      1.221  0.2595E+02  0.2409E+02
      1.268  0.2308E+02  0.2517E+02
      1.314  0.2099E+02  0.2615E+02
      1.361  0.2006E+02  0.2708E+02
      1.408  0.2165E+02  0.2809E+02
      1.454  0.2408E+02  0.2921E+02
      1.501  0.2562E+02  0.3041E+02
      1.547  0.2889E+02  0.3175E+02
      1.594  0.3506E+02  0.3339E+02
      1.641  0.3877E+02  0.3520E+02
      1.687  0.3789E+02  0.3696E+02
      1.734  0.3920E+02  0.3879E+02
      1.780  0.4543E+02  0.4090E+02
      1.827  0.4935E+02  0.4320E+02
      1.874  0.4788E+02  0.4543E+02
      1.920  0.4727E+02  0.4764E+02
      1.967  0.5081E+02  0.5000E+02
      2.013  0.5402E+02  0.5252E+02
      2.060  0.5546E+02  0.5511E+02
      2.107  0.6141E+02  0.5797E+02
      2.153  0.7459E+02  0.6144E+02
      2.200  0.8936E+02  0.6561E+02
      2.246  0.1030E+03  0.7041E+02
      2.293  0.1177E+03  0.7589E+02
      2.340  0.1309E+03  0.8199E+02
      2.386  0.1382E+03  0.8843E+02
      2.433  0.1432E+03  0.9510E+02
      2.479  0.1522E+03  0.1022E+03
      2.526  0.1609E+03  0.1097E+03
      2.573  0.1617E+03  0.1172E+03
      2.619  0.1613E+03  0.1247E+03
      2.666  0.1689E+03  0.1326E+03
      2.712  0.1784E+03  0.1409E+03
      2.759  0.1847E+03  0.1495E+03
      2.806  0.1976E+03  0.1587E+03
      2.852  0.2226E+03  0.1691E+03
      2.899  0.2474E+03  0.1807E+03
      2.945  0.2563E+03  0.1926E+03
      2.992  0.2499E+03  0.2042E+03
      3.039  0.2468E+03  0.2157E+03
      3.085  0.2620E+03  0.2280E+03
      3.132  0.2864E+03  0.2413E+03
      3.178  0.3011E+03  0.2553E+03
      3.225  0.3037E+03  0.2695E+03
      3.272  0.3049E+03  0.2837E+03
      3.318  0.3083E+03  0.2981E+03
      3.365  0.3111E+03  0.3126E+03
      3.411  0.3143E+03  0.3272E+03
      3.458  0.3215E+03  0.3422E+03
      3.505  0.3332E+03  0.3577E+03
      3.551  0.3439E+03  0.3737E+03
      3.598  0.3468E+03  0.3899E+03
      3.644  0.3448E+03  0.4060E+03
      3.691  0.3486E+03  0.4222E+03
      3.738  0.3576E+03  0.4389E+03
      3.784  0.3594E+03  0.4556E+03
      3.831  0.3525E+03  0.4720E+03
      3.877  0.3480E+03  0.4883E+03
      3.924  0.3498E+03  0.5046E+03
      3.971  0.3508E+03  0.5209E+03
      4.017  0.3417E+03  0.5368E+03
      4.064  0.3230E+03  0.5519E+03
      4.110  0.3067E+03  0.5662E+03
      4.157  0.2976E+03  0.5800E+03
      4.204  0.2875E+03  0.5934E+03
      4.250  0.2714E+03  0.6061E+03
      4.297  0.2538E+03  0.6179E+03
      4.343  0.2429E+03  0.6292E+03
      4.390  0.2453E+03  0.6407E+03
      4.437  0.2576E+03  0.6527E+03
      4.483  0.2616E+03  0.6649E+03
      4.530  0.2506E+03  0.6765E+03
      4.576  0.2475E+03  0.6881E+03
      4.623  0.2669E+03  0.7005E+03
      4.670  0.2917E+03  0.7141E+03
      4.716  0.3067E+03  0.7284E+03
      4.763  0.3137E+03  0.7430E+03
      4.809  0.3137E+03  0.7576E+03
      4.856  0.3052E+03  0.7718E+03
      4.903  0.2903E+03  0.7854E+03
      4.949  0.2784E+03  0.7983E+03
      4.996  0.2810E+03  0.8114E+03
      5.042  0.2950E+03  0.8252E+03
      5.089  0.3078E+03  0.8395E+03
      5.136  0.3093E+03  0.8539E+03
      5.182  0.2978E+03  0.8678E+03
      5.229  0.2856E+03  0.8811E+03
      5.275  0.2843E+03  0.8944E+03
      5.322  0.2902E+03  0.9079E+03
      5.369  0.2973E+03  0.9218E+03
      5.415  0.3019E+03  0.9358E+03
      5.462  0.2988E+03  0.9498E+03
      5.508  0.2889E+03  0.9632E+03
      5.555  0.2867E+03  0.9766E+03
      5.602  0.3025E+03  0.9907E+03
      5.648  0.3214E+03  0.1006E+04
      5.695  0.3253E+03  0.1021E+04
      5.741  0.3202E+03  0.1036E+04
      5.788  0.3199E+03  0.1051E+04
      5.835  0.3263E+03  0.1066E+04
      5.881  0.3367E+03  0.1082E+04
      5.928  0.3500E+03  0.1098E+04
      5.974  0.3651E+03  0.1115E+04
      6.021  0.3788E+03  0.1132E+04
      6.068  0.3854E+03  0.1150E+04
      6.114  0.3876E+03  0.1169E+04
      6.161  0.3917E+03  0.1187E+04
      6.207  0.3986E+03  0.1205E+04
      6.254  0.4094E+03  0.1224E+04
      6.301  0.4271E+03  0.1244E+04
      6.347  0.4465E+03  0.1265E+04
      6.394  0.4574E+03  0.1286E+04
      6.440  0.4571E+03  0.1308E+04
      6.487  0.4530E+03  0.1329E+04
      6.534  0.4500E+03  0.1350E+04
      6.580  0.4458E+03  0.1371E+04
      6.627  0.4394E+03  0.1391E+04
      6.673  0.4319E+03  0.1411E+04
      6.720  0.4247E+03  0.1431E+04
      6.767  0.4169E+03  0.1450E+04
      6.813  0.4016E+03  0.1469E+04
      6.860  0.3769E+03  0.1487E+04
      6.906  0.3545E+03  0.1503E+04
      6.953  0.3444E+03  0.1519E+04
      7.000  0.3395E+03  0.1535E+04
      7.046  0.3279E+03  0.1550E+04
      7.093  0.3149E+03  0.1565E+04
      7.139  0.3134E+03  0.1580E+04
      7.186  0.3193E+03  0.1595E+04
      7.232  0.3134E+03  0.1609E+04
      7.279  0.2877E+03  0.1623E+04
      7.326  0.2561E+03  0.1634E+04
      7.372  0.2402E+03  0.1646E+04
      7.419  0.2485E+03  0.1657E+04
      7.465  0.2710E+03  0.1670E+04
      7.512  0.2846E+03  0.1683E+04
      7.559  0.2766E+03  0.1696E+04
      7.605  0.2586E+03  0.1708E+04
      7.652  0.2483E+03  0.1720E+04
      7.698  0.2569E+03  0.1732E+04
      7.745  0.2825E+03  0.1745E+04
      7.792  0.3052E+03  0.1759E+04
      7.838  0.3120E+03  0.1774E+04
      7.885  0.3089E+03  0.1788E+04
      7.931  0.3032E+03  0.1802E+04
      7.978  0.2961E+03  0.1816E+04
      8.025  0.2911E+03  0.1829E+04
      8.071  0.2957E+03  0.1843E+04
      8.118  0.3091E+03  0.1858E+04
      8.164  0.3170E+03  0.1872E+04
      8.211  0.3177E+03  0.1887E+04
      8.258  0.3296E+03  0.1903E+04
      8.304  0.3534E+03  0.1919E+04
      8.351  0.3624E+03  0.1936E+04
      8.397  0.3402E+03  0.1952E+04
      8.444  0.3004E+03  0.1966E+04
      8.491  0.2671E+03  0.1978E+04
      8.537  0.2556E+03  0.1990E+04
      8.584  0.2706E+03  0.2003E+04
      8.630  0.2954E+03  0.2016E+04
      8.677  0.3004E+03  0.2030E+04
      8.724  0.2842E+03  0.2044E+04
      8.770  0.2676E+03  0.2056E+04
      8.817  0.2570E+03  0.2068E+04
      8.863  0.2491E+03  0.2080E+04
      8.910  0.2451E+03  0.2091E+04
      8.957  0.2453E+03  0.2103E+04
      9.003  0.2533E+03  0.2114E+04
      9.050  0.2732E+03  0.2127E+04
      9.096  0.2841E+03  0.2140E+04
      9.143  0.2665E+03  0.2153E+04
      9.190  0.2410E+03  0.2164E+04
      9.236  0.2283E+03  0.2175E+04
      9.283  0.2200E+03  0.2185E+04
      9.329  0.2139E+03  0.2195E+04
      9.376  0.2217E+03  0.2205E+04
      9.423  0.2422E+03  0.2217E+04
      9.469  0.2621E+03  0.2229E+04
      9.516  0.2735E+03  0.2241E+04
      9.562  0.2773E+03  0.2254E+04
      9.609  0.2763E+03  0.2267E+04
      9.656  0.2711E+03  0.2280E+04
      9.702  0.2612E+03  0.2292E+04
      9.749  0.2441E+03  0.2303E+04
      9.795  0.2245E+03  0.2314E+04
      9.842  0.2194E+03  0.2324E+04
      9.889  0.2363E+03  0.2335E+04
      9.935  0.2638E+03  0.2347E+04
      9.982  0.2947E+03  0.2361E+04
     10.028  0.3268E+03  0.2376E+04
     10.075  0.3489E+03  0.2393E+04
     10.122  0.3465E+03  0.2409E+04
     10.168  0.3242E+03  0.2424E+04
     10.215  0.3102E+03  0.2438E+04
     10.261  0.3286E+03  0.2454E+04
     10.308  0.3862E+03  0.2472E+04
     10.355  0.4655E+03  0.2493E+04
     10.401  0.5184E+03  0.2518E+04
     10.448  0.5096E+03  0.2541E+04
     10.494  0.4512E+03  0.2562E+04
     10.541  0.3747E+03  0.2580E+04
     10.588  0.3029E+03  0.2594E+04
     10.634  0.2489E+03  0.2605E+04
     10.681  0.2128E+03  0.2615E+04
     10.727  0.1811E+03  0.2624E+04
     10.774  0.1423E+03  0.2630E+04
     10.821  0.9775E+02  0.2635E+04
     10.867  0.5685E+02  0.2638E+04
     10.914  0.2758E+02  0.2639E+04
     10.960  0.1076E+02  0.2639E+04
     11.007  0.3272E+01  0.2640E+04
     11.054  0.1532E+01  0.2640E+04
     11.100  0.1853E+01  0.2640E+04
     11.147  0.1630E+01  0.2640E+04
     11.193  0.6742E+00  0.2640E+04
     11.240  0.3362E-02  0.2640E+04
     11.287 -0.1156E+00  0.2640E+04
     11.333 -0.5057E-01  0.2640E+04
     11.380 -0.1096E-01  0.2640E+04
     11.426 -0.3427E-02  0.2640E+04
     11.473 -0.1315E-01  0.2640E+04
     11.520 -0.4238E-01  0.2640E+04
     11.566 -0.3578E-01  0.2640E+04
     11.613  0.2000E+00  0.2640E+04
     11.659  0.7162E+00  0.2640E+04
     11.706  0.1026E+01  0.2640E+04
     11.753  0.7221E+00  0.2640E+04
     11.799  0.2046E+00  0.2640E+04
     11.846 -0.3485E-01  0.2640E+04
     11.892 -0.4273E-01  0.2640E+04
     11.939 -0.1328E-01  0.2640E+04
     11.986 -0.2151E-02  0.2640E+04
     12.032 -0.2046E-03  0.2640E+04
     12.079 -0.1191E-04  0.2640E+04
     12.125 -0.4337E-06  0.2640E+04
     12.172 -0.9982E-08  0.2640E+04
     12.219 -0.1462E-09  0.2640E+04
     12.265 -0.1369E-11  0.2640E+04
     12.312 -0.8339E-14  0.2640E+04
     12.358  0.0000E+00  0.2640E+04
     12.405  0.0000E+00  0.2640E+04
     12.452  0.0000E+00  0.2640E+04
     12.498  0.0000E+00  0.2640E+04
     12.545  0.0000E+00  0.2640E+04
     12.591  0.0000E+00  0.2640E+04
     12.638  0.0000E+00  0.2640E+04
     12.685  0.0000E+00  0.2640E+04
