 256 256   0   0
  0.1419206E+02  0.1537080E-08  0.1537218E-08  0.1537636E-08  0.5000000E-15
  1.000000000000000E-004
  CAR 
 Ir_Ru                                   
     12.68318244     -1.29540513  301      9.24212175      1.00000000
     -1.295  0.0000E+00  0.0000E+00
     -1.249  0.0000E+00  0.0000E+00
     -1.202  0.0000E+00  0.0000E+00
     -1.156  0.0000E+00  0.0000E+00
     -1.109 -0.2742E-28 -0.1278E-29
     -1.062 -0.4089E-25 -0.1906E-26
     -1.016 -0.3933E-22 -0.1835E-23
     -0.969 -0.2442E-19 -0.1140E-20
     -0.923 -0.9781E-17 -0.4569E-18
     -0.876 -0.2453E-14 -0.1147E-15
     -0.829 -0.4068E-12 -0.1907E-13
     -0.783 -0.4344E-10 -0.2043E-11
     -0.736 -0.2990E-08 -0.1414E-09
     -0.690 -0.1327E-06 -0.6323E-08
     -0.643 -0.3803E-05 -0.1835E-06
     -0.596 -0.7058E-04 -0.3472E-05
     -0.550 -0.8507E-03 -0.4311E-04
     -0.503 -0.6662E-02 -0.3535E-03
     -0.457 -0.3349E-01 -0.1914E-02
     -0.410 -0.1019E+00 -0.6663E-02
     -0.363 -0.1379E+00 -0.1309E-01
     -0.317  0.2225E+00 -0.2724E-02
     -0.270  0.1506E+01  0.6744E-01
     -0.224  0.3535E+01  0.2322E+00
     -0.177  0.5069E+01  0.4684E+00
     -0.131  0.5733E+01  0.7355E+00
     -0.084  0.7324E+01  0.1077E+01
     -0.037  0.1019E+02  0.1552E+01
      0.009  0.1102E+02  0.2065E+01
      0.056  0.9157E+01  0.2492E+01
      0.102  0.9384E+01  0.2929E+01
      0.149  0.1315E+02  0.3542E+01
      0.196  0.1592E+02  0.4284E+01
      0.242  0.1606E+02  0.5032E+01
      0.289  0.1674E+02  0.5812E+01
      0.335  0.1850E+02  0.6674E+01
      0.382  0.1834E+02  0.7528E+01
      0.429  0.1745E+02  0.8341E+01
      0.475  0.1982E+02  0.9265E+01
      0.522  0.2340E+02  0.1036E+02
      0.568  0.2407E+02  0.1148E+02
      0.615  0.2229E+02  0.1252E+02
      0.662  0.1873E+02  0.1339E+02
      0.708  0.1408E+02  0.1404E+02
      0.755  0.1114E+02  0.1456E+02
      0.801  0.1071E+02  0.1506E+02
      0.848  0.1110E+02  0.1558E+02
      0.895  0.1209E+02  0.1614E+02
      0.941  0.1456E+02  0.1682E+02
      0.988  0.1829E+02  0.1767E+02
      1.034  0.2285E+02  0.1874E+02
      1.081  0.2807E+02  0.2005E+02
      1.128  0.3128E+02  0.2150E+02
      1.174  0.2980E+02  0.2289E+02
      1.221  0.2595E+02  0.2410E+02
      1.267  0.2308E+02  0.2518E+02
      1.314  0.2096E+02  0.2615E+02
      1.361  0.1999E+02  0.2709E+02
      1.407  0.2158E+02  0.2809E+02
      1.454  0.2404E+02  0.2921E+02
      1.500  0.2563E+02  0.3040E+02
      1.547  0.2887E+02  0.3175E+02
      1.594  0.3496E+02  0.3338E+02
      1.640  0.3867E+02  0.3518E+02
      1.687  0.3784E+02  0.3694E+02
      1.733  0.3917E+02  0.3877E+02
      1.780  0.4541E+02  0.4089E+02
      1.826  0.4933E+02  0.4318E+02
      1.873  0.4786E+02  0.4541E+02
      1.920  0.4729E+02  0.4762E+02
      1.966  0.5089E+02  0.4999E+02
      2.013  0.5410E+02  0.5251E+02
      2.059  0.5541E+02  0.5509E+02
      2.106  0.6119E+02  0.5794E+02
      2.153  0.7434E+02  0.6141E+02
      2.199  0.8922E+02  0.6556E+02
      2.246  0.1029E+03  0.7036E+02
      2.292  0.1176E+03  0.7584E+02
      2.339  0.1308E+03  0.8194E+02
      2.386  0.1382E+03  0.8838E+02
      2.432  0.1432E+03  0.9505E+02
      2.479  0.1522E+03  0.1021E+03
      2.525  0.1610E+03  0.1096E+03
      2.572  0.1618E+03  0.1172E+03
      2.619  0.1614E+03  0.1247E+03
      2.665  0.1689E+03  0.1326E+03
      2.712  0.1784E+03  0.1409E+03
      2.758  0.1848E+03  0.1495E+03
      2.805  0.1976E+03  0.1587E+03
      2.852  0.2226E+03  0.1691E+03
      2.898  0.2474E+03  0.1806E+03
      2.945  0.2562E+03  0.1925E+03
      2.991  0.2497E+03  0.2042E+03
      3.038  0.2466E+03  0.2157E+03
      3.085  0.2617E+03  0.2279E+03
      3.131  0.2861E+03  0.2412E+03
      3.178  0.3009E+03  0.2552E+03
      3.224  0.3035E+03  0.2693E+03
      3.271  0.3046E+03  0.2835E+03
      3.318  0.3081E+03  0.2979E+03
      3.364  0.3109E+03  0.3124E+03
      3.411  0.3142E+03  0.3270E+03
      3.457  0.3213E+03  0.3420E+03
      3.504  0.3328E+03  0.3575E+03
      3.551  0.3437E+03  0.3735E+03
      3.597  0.3469E+03  0.3897E+03
      3.644  0.3449E+03  0.4057E+03
      3.690  0.3485E+03  0.4220E+03
      3.737  0.3574E+03  0.4386E+03
      3.783  0.3592E+03  0.4554E+03
      3.830  0.3523E+03  0.4718E+03
      3.877  0.3478E+03  0.4880E+03
      3.923  0.3496E+03  0.5043E+03
      3.970  0.3507E+03  0.5206E+03
      4.016  0.3419E+03  0.5366E+03
      4.063  0.3234E+03  0.5516E+03
      4.110  0.3071E+03  0.5659E+03
      4.156  0.2978E+03  0.5798E+03
      4.203  0.2876E+03  0.5932E+03
      4.249  0.2716E+03  0.6059E+03
      4.296  0.2540E+03  0.6177E+03
      4.343  0.2428E+03  0.6290E+03
      4.389  0.2450E+03  0.6404E+03
      4.436  0.2574E+03  0.6524E+03
      4.482  0.2619E+03  0.6646E+03
      4.529  0.2511E+03  0.6763E+03
      4.576  0.2474E+03  0.6879E+03
      4.622  0.2663E+03  0.7003E+03
      4.669  0.2913E+03  0.7138E+03
      4.715  0.3065E+03  0.7281E+03
      4.762  0.3136E+03  0.7427E+03
      4.809  0.3136E+03  0.7574E+03
      4.855  0.3053E+03  0.7716E+03
      4.902  0.2906E+03  0.7851E+03
      4.948  0.2787E+03  0.7981E+03
      4.995  0.2809E+03  0.8112E+03
      5.042  0.2948E+03  0.8249E+03
      5.088  0.3076E+03  0.8393E+03
      5.135  0.3094E+03  0.8537E+03
      5.181  0.2981E+03  0.8676E+03
      5.228  0.2859E+03  0.8809E+03
      5.275  0.2845E+03  0.8941E+03
      5.321  0.2902E+03  0.9077E+03
      5.368  0.2971E+03  0.9215E+03
      5.414  0.3018E+03  0.9356E+03
      5.461  0.2989E+03  0.9495E+03
      5.508  0.2890E+03  0.9630E+03
      5.554  0.2865E+03  0.9763E+03
      5.601  0.3020E+03  0.9904E+03
      5.647  0.3211E+03  0.1005E+04
      5.694  0.3253E+03  0.1021E+04
      5.740  0.3203E+03  0.1035E+04
      5.787  0.3199E+03  0.1050E+04
      5.834  0.3261E+03  0.1066E+04
      5.880  0.3364E+03  0.1081E+04
      5.927  0.3497E+03  0.1098E+04
      5.973  0.3648E+03  0.1115E+04
      6.020  0.3787E+03  0.1132E+04
      6.067  0.3856E+03  0.1150E+04
      6.113  0.3876E+03  0.1168E+04
      6.160  0.3915E+03  0.1186E+04
      6.206  0.3983E+03  0.1205E+04
      6.253  0.4092E+03  0.1224E+04
      6.300  0.4267E+03  0.1244E+04
      6.346  0.4460E+03  0.1265E+04
      6.393  0.4571E+03  0.1286E+04
      6.439  0.4571E+03  0.1307E+04
      6.486  0.4532E+03  0.1328E+04
      6.533  0.4500E+03  0.1349E+04
      6.579  0.4457E+03  0.1370E+04
      6.626  0.4392E+03  0.1391E+04
      6.672  0.4318E+03  0.1411E+04
      6.719  0.4248E+03  0.1431E+04
      6.766  0.4172E+03  0.1450E+04
      6.812  0.4022E+03  0.1469E+04
      6.859  0.3776E+03  0.1486E+04
      6.905  0.3548E+03  0.1503E+04
      6.952  0.3443E+03  0.1519E+04
      6.999  0.3394E+03  0.1535E+04
      7.045  0.3281E+03  0.1550E+04
      7.092  0.3150E+03  0.1565E+04
      7.138  0.3133E+03  0.1579E+04
      7.185  0.3193E+03  0.1594E+04
      7.232  0.3140E+03  0.1609E+04
      7.278  0.2886E+03  0.1622E+04
      7.325  0.2568E+03  0.1634E+04
      7.371  0.2404E+03  0.1645E+04
      7.418  0.2481E+03  0.1657E+04
      7.465  0.2705E+03  0.1670E+04
      7.511  0.2844E+03  0.1683E+04
      7.558  0.2769E+03  0.1696E+04
      7.604  0.2590E+03  0.1708E+04
      7.651  0.2484E+03  0.1719E+04
      7.697  0.2566E+03  0.1731E+04
      7.744  0.2820E+03  0.1744E+04
      7.791  0.3050E+03  0.1759E+04
      7.837  0.3121E+03  0.1773E+04
      7.884  0.3090E+03  0.1788E+04
      7.930  0.3033E+03  0.1802E+04
      7.977  0.2962E+03  0.1816E+04
      8.024  0.2911E+03  0.1829E+04
      8.070  0.2955E+03  0.1843E+04
      8.117  0.3089E+03  0.1857E+04
      8.163  0.3170E+03  0.1872E+04
      8.210  0.3176E+03  0.1887E+04
      8.257  0.3291E+03  0.1902E+04
      8.303  0.3529E+03  0.1919E+04
      8.350  0.3625E+03  0.1936E+04
      8.396  0.3410E+03  0.1951E+04
      8.443  0.3014E+03  0.1965E+04
      8.490  0.2678E+03  0.1978E+04
      8.536  0.2556E+03  0.1990E+04
      8.583  0.2700E+03  0.2002E+04
      8.629  0.2949E+03  0.2016E+04
      8.676  0.3005E+03  0.2030E+04
      8.723  0.2847E+03  0.2043E+04
      8.769  0.2680E+03  0.2056E+04
      8.816  0.2572E+03  0.2068E+04
      8.862  0.2493E+03  0.2080E+04
      8.909  0.2452E+03  0.2091E+04
      8.956  0.2452E+03  0.2102E+04
      9.002  0.2529E+03  0.2114E+04
      9.049  0.2727E+03  0.2127E+04
      9.095  0.2842E+03  0.2140E+04
      9.142  0.2670E+03  0.2153E+04
      9.189  0.2415E+03  0.2164E+04
      9.235  0.2286E+03  0.2174E+04
      9.282  0.2202E+03  0.2185E+04
      9.328  0.2138E+03  0.2195E+04
      9.375  0.2213E+03  0.2205E+04
      9.422  0.2417E+03  0.2216E+04
      9.468  0.2617E+03  0.2228E+04
      9.515  0.2733E+03  0.2241E+04
      9.561  0.2772E+03  0.2254E+04
      9.608  0.2763E+03  0.2267E+04
      9.654  0.2713E+03  0.2280E+04
      9.701  0.2615E+03  0.2292E+04
      9.748  0.2446E+03  0.2303E+04
      9.794  0.2249E+03  0.2314E+04
      9.841  0.2192E+03  0.2324E+04
      9.887  0.2356E+03  0.2335E+04
      9.934  0.2630E+03  0.2347E+04
      9.981  0.2938E+03  0.2361E+04
     10.027  0.3262E+03  0.2376E+04
     10.074  0.3488E+03  0.2392E+04
     10.120  0.3470E+03  0.2408E+04
     10.167  0.3248E+03  0.2424E+04
     10.214  0.3102E+03  0.2438E+04
     10.260  0.3276E+03  0.2453E+04
     10.307  0.3843E+03  0.2471E+04
     10.353  0.4636E+03  0.2493E+04
     10.400  0.5178E+03  0.2517E+04
     10.447  0.5107E+03  0.2541E+04
     10.493  0.4533E+03  0.2562E+04
     10.540  0.3770E+03  0.2579E+04
     10.586  0.3046E+03  0.2594E+04
     10.633  0.2498E+03  0.2605E+04
     10.680  0.2135E+03  0.2615E+04
     10.726  0.1820E+03  0.2624E+04
     10.773  0.1434E+03  0.2630E+04
     10.819  0.9863E+02  0.2635E+04
     10.866  0.5770E+02  0.2638E+04
     10.913  0.2839E+02  0.2639E+04
     10.959  0.1131E+02  0.2639E+04
     11.006  0.3552E+01  0.2640E+04
     11.052  0.1599E+01  0.2640E+04
     11.099  0.1775E+01  0.2640E+04
     11.146  0.1565E+01  0.2640E+04
     11.192  0.6789E+00  0.2640E+04
     11.239  0.2066E-01  0.2640E+04
     11.285 -0.1119E+00  0.2640E+04
     11.332 -0.5163E-01  0.2640E+04
     11.379 -0.1154E-01  0.2640E+04
     11.425 -0.3485E-02  0.2640E+04
     11.472 -0.1293E-01  0.2640E+04
     11.518 -0.4202E-01  0.2640E+04
     11.565 -0.3681E-01  0.2640E+04
     11.611  0.1951E+00  0.2640E+04
     11.658  0.7101E+00  0.2640E+04
     11.705  0.1026E+01  0.2640E+04
     11.751  0.7285E+00  0.2640E+04
     11.798  0.2095E+00  0.2640E+04
     11.844 -0.3391E-01  0.2640E+04
     11.891 -0.4313E-01  0.2640E+04
     11.938 -0.1352E-01  0.2640E+04
     11.984 -0.2204E-02  0.2640E+04
     12.031 -0.2107E-03  0.2640E+04
     12.077 -0.1234E-04  0.2640E+04
     12.124 -0.4513E-06  0.2640E+04
     12.171 -0.1044E-07  0.2640E+04
     12.217 -0.1536E-09  0.2640E+04
     12.264 -0.1444E-11  0.2640E+04
     12.310 -0.8637E-14  0.2640E+04
     12.357  0.0000E+00  0.2640E+04
     12.404  0.0000E+00  0.2640E+04
     12.450  0.0000E+00  0.2640E+04
     12.497  0.0000E+00  0.2640E+04
     12.543  0.0000E+00  0.2640E+04
     12.590  0.0000E+00  0.2640E+04
     12.637  0.0000E+00  0.2640E+04
     12.683  0.0000E+00  0.2640E+04
