<?xml version="1.0" encoding="ISO-8859-1"?>
<modeling>
 <generator>
  <i name="program" type="string">vasp </i>
  <i name="version" type="string">5.4.1  </i>
  <i name="subversion" type="string">24Jun15 (build Feb 03 2017 16:24:58) complex                          parallel </i>
  <i name="platform" type="string">IFC91_ompi </i>
  <i name="date" type="string">2018 06 30 </i>
  <i name="time" type="string">19:26:11 </i>
 </generator>
 <incar>
  <i type="string" name="SYSTEM"> Ir_Ru</i>
  <i type="int" name="ISTART">     0</i>
  <i type="string" name="PREC">accurate</i>
  <i type="string" name="ALGO"> Fast</i>
  <i type="int" name="ICHARG">     2</i>
  <i type="int" name="NELMIN">     5</i>
  <i type="int" name="IBRION">    -1</i>
  <i name="EDIFFG">      0.00001000</i>
  <i type="int" name="ISIF">     2</i>
  <i type="string" name="LREAL"> AUTO</i>
  <i type="int" name="ISMEAR">     1</i>
  <i name="SIGMA">      0.10000000</i>
  <v type="int" name="KPOINT_BSE">    -1     0     0     0</v>
 </incar>
 <kpoints>
  <generation param="Gamma">
   <v type="int" name="divisions">       4        4        4 </v>
   <v name="usershift">      0.00000000       0.00000000       0.00000000 </v>
   <v name="genvec1">      0.25000000       0.00000000      -0.00000000 </v>
   <v name="genvec2">      0.00000000       0.25000000       0.00000000 </v>
   <v name="genvec3">     -0.00000000      -0.00000000       0.25000000 </v>
   <v name="shift">      0.00000000       0.00000000       0.00000000 </v>
  </generation>
  <varray name="kpointlist" >
   <v>       0.00000000       0.00000000       0.00000000 </v>
   <v>       0.25000000      -0.00000000      -0.00000000 </v>
   <v>       0.50000000      -0.00000000      -0.00000000 </v>
   <v>      -0.00000000       0.25000000       0.00000000 </v>
   <v>       0.25000000       0.25000000      -0.00000000 </v>
   <v>       0.50000000       0.25000000      -0.00000000 </v>
   <v>      -0.25000000       0.25000000       0.00000000 </v>
   <v>      -0.00000000       0.50000000       0.00000000 </v>
   <v>       0.25000000       0.50000000      -0.00000000 </v>
   <v>       0.50000000       0.50000000      -0.00000000 </v>
   <v>      -0.00000000      -0.00000000       0.25000000 </v>
   <v>       0.25000000      -0.00000000       0.25000000 </v>
   <v>       0.50000000      -0.00000000       0.25000000 </v>
   <v>      -0.25000000       0.00000000       0.25000000 </v>
   <v>      -0.00000000       0.25000000       0.25000000 </v>
   <v>       0.25000000       0.25000000       0.25000000 </v>
   <v>       0.50000000       0.25000000       0.25000000 </v>
   <v>      -0.25000000       0.25000000       0.25000000 </v>
   <v>      -0.00000000       0.50000000       0.25000000 </v>
   <v>       0.25000000       0.50000000       0.25000000 </v>
   <v>       0.50000000       0.50000000       0.25000000 </v>
   <v>      -0.25000000       0.50000000       0.25000000 </v>
   <v>       0.00000000      -0.25000000       0.25000000 </v>
   <v>       0.25000000      -0.25000000       0.25000000 </v>
   <v>       0.50000000      -0.25000000       0.25000000 </v>
   <v>      -0.25000000      -0.25000000       0.25000000 </v>
   <v>      -0.00000000      -0.00000000       0.50000000 </v>
   <v>       0.25000000      -0.00000000       0.50000000 </v>
   <v>       0.50000000      -0.00000000       0.50000000 </v>
   <v>      -0.00000000       0.25000000       0.50000000 </v>
   <v>       0.25000000       0.25000000       0.50000000 </v>
   <v>       0.50000000       0.25000000       0.50000000 </v>
   <v>      -0.25000000       0.25000000       0.50000000 </v>
   <v>      -0.00000000       0.50000000       0.50000000 </v>
   <v>       0.25000000       0.50000000       0.50000000 </v>
   <v>       0.50000000       0.50000000       0.50000000 </v>
  </varray>
  <varray name="weights" >
   <v>       0.01562500 </v>
   <v>       0.03125000 </v>
   <v>       0.01562500 </v>
   <v>       0.03125000 </v>
   <v>       0.03125000 </v>
   <v>       0.03125000 </v>
   <v>       0.03125000 </v>
   <v>       0.01562500 </v>
   <v>       0.03125000 </v>
   <v>       0.01562500 </v>
   <v>       0.03125000 </v>
   <v>       0.03125000 </v>
   <v>       0.03125000 </v>
   <v>       0.03125000 </v>
   <v>       0.03125000 </v>
   <v>       0.03125000 </v>
   <v>       0.03125000 </v>
   <v>       0.03125000 </v>
   <v>       0.03125000 </v>
   <v>       0.03125000 </v>
   <v>       0.03125000 </v>
   <v>       0.03125000 </v>
   <v>       0.03125000 </v>
   <v>       0.03125000 </v>
   <v>       0.03125000 </v>
   <v>       0.03125000 </v>
   <v>       0.01562500 </v>
   <v>       0.03125000 </v>
   <v>       0.01562500 </v>
   <v>       0.03125000 </v>
   <v>       0.03125000 </v>
   <v>       0.03125000 </v>
   <v>       0.03125000 </v>
   <v>       0.01562500 </v>
   <v>       0.03125000 </v>
   <v>       0.01562500 </v>
  </varray>
 </kpoints>
 <parameters>
  <separator name="general" >
   <i type="string" name="SYSTEM">Ir_Ru</i>
   <i type="logical" name="LCOMPAT"> F  </i>
  </separator>
  <separator name="electronic" >
   <i type="string" name="PREC">accura</i>
   <i name="ENMAX">    213.27600000</i>
   <i name="ENAUG">    333.49400000</i>
   <i name="EDIFF">      0.00010000</i>
   <i type="int" name="IALGO">    68</i>
   <i type="int" name="IWAVPR">    10</i>
   <i type="int" name="NBANDS">  1320</i>
   <i name="NELECT">   2176.00000000</i>
   <i type="int" name="TURBO">     0</i>
   <i type="int" name="IRESTART">     0</i>
   <i type="int" name="NREBOOT">     0</i>
   <i type="int" name="NMIN">     0</i>
   <i name="EREF">      0.00000000</i>
   <separator name="electronic smearing" >
    <i type="int" name="ISMEAR">     1</i>
    <i name="SIGMA">      0.10000000</i>
    <i name="KSPACING">      0.50000000</i>
    <i type="logical" name="KGAMMA"> T  </i>
   </separator>
   <separator name="electronic projectors" >
    <i type="logical" name="LREAL"> T  </i>
    <v name="ROPT">     -0.00025000     -0.00025000</v>
    <i type="int" name="LMAXPAW">  -100</i>
    <i type="int" name="LMAXMIX">     2</i>
    <i type="logical" name="NLSPLINE"> F  </i>
   </separator>
   <separator name="electronic startup" >
    <i type="int" name="ISTART">     0</i>
    <i type="int" name="ICHARG">     2</i>
    <i type="int" name="INIWAV">     1</i>
   </separator>
   <separator name="electronic spin" >
    <i type="int" name="ISPIN">     1</i>
    <i type="logical" name="LNONCOLLINEAR"> F  </i>
    <v name="MAGMOM">      1.00000000      1.00000000      1.00000000      1.00000000      1.00000000      1.00000000      1.00000000      1.00000000      1.00000000      1.00000000      1.00000000      1.00000000      1.00000000      1.00000000      1.00000000      1.00000000      1.00000000      1.00000000      1.00000000      1.00000000
      1.00000000      1.00000000      1.00000000      1.00000000      1.00000000      1.00000000      1.00000000      1.00000000      1.00000000      1.00000000      1.00000000      1.00000000      1.00000000      1.00000000      1.00000000      1.00000000      1.00000000      1.00000000      1.00000000      1.00000000
      1.00000000      1.00000000      1.00000000      1.00000000      1.00000000      1.00000000      1.00000000      1.00000000      1.00000000      1.00000000      1.00000000      1.00000000      1.00000000      1.00000000      1.00000000      1.00000000      1.00000000      1.00000000      1.00000000      1.00000000
      1.00000000      1.00000000      1.00000000      1.00000000      1.00000000      1.00000000      1.00000000      1.00000000      1.00000000      1.00000000      1.00000000      1.00000000      1.00000000      1.00000000      1.00000000      1.00000000      1.00000000      1.00000000      1.00000000      1.00000000
      1.00000000      1.00000000      1.00000000      1.00000000      1.00000000      1.00000000      1.00000000      1.00000000      1.00000000      1.00000000      1.00000000      1.00000000      1.00000000      1.00000000      1.00000000      1.00000000      1.00000000      1.00000000      1.00000000      1.00000000
      1.00000000      1.00000000      1.00000000      1.00000000      1.00000000      1.00000000      1.00000000      1.00000000      1.00000000      1.00000000      1.00000000      1.00000000      1.00000000      1.00000000      1.00000000      1.00000000      1.00000000      1.00000000      1.00000000      1.00000000
      1.00000000      1.00000000      1.00000000      1.00000000      1.00000000      1.00000000      1.00000000      1.00000000      1.00000000      1.00000000      1.00000000      1.00000000      1.00000000      1.00000000      1.00000000      1.00000000      1.00000000      1.00000000      1.00000000      1.00000000
      1.00000000      1.00000000      1.00000000      1.00000000      1.00000000      1.00000000      1.00000000      1.00000000      1.00000000      1.00000000      1.00000000      1.00000000      1.00000000      1.00000000      1.00000000      1.00000000      1.00000000      1.00000000      1.00000000      1.00000000
      1.00000000      1.00000000      1.00000000      1.00000000      1.00000000      1.00000000      1.00000000      1.00000000      1.00000000      1.00000000      1.00000000      1.00000000      1.00000000      1.00000000      1.00000000      1.00000000      1.00000000      1.00000000      1.00000000      1.00000000
      1.00000000      1.00000000      1.00000000      1.00000000      1.00000000      1.00000000      1.00000000      1.00000000      1.00000000      1.00000000      1.00000000      1.00000000      1.00000000      1.00000000      1.00000000      1.00000000      1.00000000      1.00000000      1.00000000      1.00000000
      1.00000000      1.00000000      1.00000000      1.00000000      1.00000000      1.00000000      1.00000000      1.00000000      1.00000000      1.00000000      1.00000000      1.00000000      1.00000000      1.00000000      1.00000000      1.00000000      1.00000000      1.00000000      1.00000000      1.00000000
      1.00000000      1.00000000      1.00000000      1.00000000      1.00000000      1.00000000      1.00000000      1.00000000      1.00000000      1.00000000      1.00000000      1.00000000      1.00000000      1.00000000      1.00000000      1.00000000      1.00000000      1.00000000      1.00000000      1.00000000
      1.00000000      1.00000000      1.00000000      1.00000000      1.00000000      1.00000000      1.00000000      1.00000000      1.00000000      1.00000000      1.00000000      1.00000000      1.00000000      1.00000000      1.00000000      1.00000000</v>
    <i name="NUPDOWN">     -1.00000000</i>
    <i type="logical" name="LSORBIT"> F  </i>
    <v name="SAXIS">      0.00000000      0.00000000      1.00000000</v>
    <i type="logical" name="LSPIRAL"> F  </i>
    <v name="QSPIRAL">      0.00000000      0.00000000      0.00000000</v>
    <i type="logical" name="LZEROZ"> F  </i>
   </separator>
   <separator name="electronic exchange-correlation" >
    <i type="logical" name="LASPH"> F  </i>
    <i type="logical" name="LMETAGGA"> F  </i>
   </separator>
   <separator name="electronic convergence" >
    <i type="int" name="NELM">    60</i>
    <i type="int" name="NELMDL">    -5</i>
    <i type="int" name="NELMIN">     5</i>
    <i name="ENINI">    213.27600000</i>
    <separator name="electronic convergence detail" >
     <i type="logical" name="LDIAG"> T  </i>
     <i type="logical" name="LSUBROT"> F  </i>
     <i name="WEIMIN">      0.00000000</i>
     <i name="EBREAK">      0.00000000</i>
     <i name="DEPER">      0.30000000</i>
     <i type="int" name="NRMM">     4</i>
     <i name="TIME">      0.40000000</i>
    </separator>
   </separator>
   <separator name="electronic mixer" >
    <i name="AMIX">      0.40000000</i>
    <i name="BMIX">      1.00000000</i>
    <i name="AMIN">      0.10000000</i>
    <i name="AMIX_MAG">      1.60000000</i>
    <i name="BMIX_MAG">      1.00000000</i>
    <separator name="electronic mixer details" >
     <i type="int" name="IMIX">     4</i>
     <i type="logical" name="MIXFIRST"> F  </i>
     <i type="int" name="MAXMIX">   -45</i>
     <i name="WC">    100.00000000</i>
     <i type="int" name="INIMIX">     1</i>
     <i type="int" name="MIXPRE">     1</i>
     <i type="int" name="MREMOVE">     5</i>
    </separator>
   </separator>
   <separator name="electronic dipolcorrection" >
    <i type="logical" name="LDIPOL"> F  </i>
    <i type="logical" name="LMONO"> F  </i>
    <i type="int" name="IDIPOL">     0</i>
    <i name="EPSILON">      1.00000000</i>
    <v name="DIPOL">   -100.00000000   -100.00000000   -100.00000000</v>
    <i name="EFIELD">      0.00000000</i>
   </separator>
  </separator>
  <separator name="grids" >
   <i type="int" name="NGX">    80</i>
   <i type="int" name="NGY">    80</i>
   <i type="int" name="NGZ">    80</i>
   <i type="int" name="NGXF">   160</i>
   <i type="int" name="NGYF">   160</i>
   <i type="int" name="NGZF">   160</i>
   <i type="logical" name="ADDGRID"> F  </i>
  </separator>
  <separator name="ionic" >
   <i type="int" name="NSW">     0</i>
   <i type="int" name="IBRION">    -1</i>
   <i type="int" name="ISIF">     2</i>
   <i name="PSTRESS">      0.00000000</i>
   <i name="EDIFFG">      0.00001000</i>
   <i type="int" name="NFREE">     0</i>
   <i name="POTIM">      0.50000000</i>
   <i name="SMASS">     -3.00000000</i>
   <i name="SCALEE">      1.00000000</i>
  </separator>
  <separator name="ionic md" >
   <i name="TEBEG">      0.00010000</i>
   <i name="TEEND">      0.00010000</i>
   <i type="int" name="NBLOCK">     1</i>
   <i type="int" name="KBLOCK">     1</i>
   <i type="int" name="NPACO">   256</i>
   <i name="APACO">     16.00000000</i>
  </separator>
  <separator name="symmetry" >
   <i type="int" name="ISYM">     2</i>
   <i name="SYMPREC">      0.00001000</i>
  </separator>
  <separator name="dos" >
   <i type="logical" name="LORBIT"> F  </i>
   <v name="RWIGS">     -1.00000000     -1.00000000</v>
   <i type="int" name="NEDOS">   301</i>
   <i name="EMIN">     10.00000000</i>
   <i name="EMAX">    -10.00000000</i>
   <i name="EFERMI">      0.00000000</i>
  </separator>
  <separator name="writing" >
   <i type="int" name="NWRITE">     2</i>
   <i type="logical" name="LWAVE"> T  </i>
   <i type="logical" name="LCHARG"> T  </i>
   <i type="logical" name="LPARD"> F  </i>
   <i type="logical" name="LVTOT"> F  </i>
   <i type="logical" name="LVHAR"> F  </i>
   <i type="logical" name="LELF"> F  </i>
   <i type="logical" name="LOPTICS"> F  </i>
   <v name="STM">      0.00000000      0.00000000      0.00000000      0.00000000      0.00000000      0.00000000      0.00000000</v>
  </separator>
  <separator name="performance" >
   <i type="int" name="NPAR">    20</i>
   <i type="int" name="NSIM">     4</i>
   <i type="int" name="NBLK">    -1</i>
   <i type="logical" name="LPLANE"> T  </i>
   <i type="logical" name="LSCALAPACK"> T  </i>
   <i type="logical" name="LSCAAWARE"> F  </i>
   <i type="logical" name="LSCALU"> F  </i>
   <i type="logical" name="LASYNC"> F  </i>
   <i type="logical" name="LORBITALREAL"> F  </i>
  </separator>
  <separator name="miscellaneous" >
   <i type="int" name="IDIOT">     3</i>
   <i type="logical" name="LMUSIC"> F  </i>
   <v name="POMASS">    192.22000000    101.07000000</v>
   <v name="DARWINR">      0.00000000      0.00000000</v>
   <v name="DARWINV">      1.00000000      1.00000000</v>
   <i type="logical" name="LCORR"> T  </i>
  </separator>
  <i type="logical" name="GGA_COMPAT"> T  </i>
  <i type="logical" name="LBERRY"> F  </i>
  <i type="int" name="ICORELEVEL">     0</i>
  <i type="logical" name="LDAU"> F  </i>
  <i type="int" name="I_CONSTRAINED_M">     0</i>
  <separator name="electronic exchange-correlation" >
   <i type="string" name="GGA">--</i>
   <i type="int" name="VOSKOWN">     0</i>
   <i type="logical" name="LHFCALC"> F  </i>
   <i type="string" name="PRECFOCK"></i>
   <i type="logical" name="LSYMGRAD"> F  </i>
   <i type="logical" name="LHFONE"> F  </i>
   <i type="logical" name="LRHFCALC"> F  </i>
   <i type="logical" name="LTHOMAS"> F  </i>
   <i type="logical" name="LMODELHF"> F  </i>
   <i name="ENCUT4O">     -1.00000000</i>
   <i type="int" name="EXXOEP">     0</i>
   <i type="int" name="FOURORBIT">     0</i>
   <i name="AEXX">      0.00000000</i>
   <i name="HFALPHA">      0.00000000</i>
   <i name="MCALPHA">      0.00000000</i>
   <i name="ALDAX">      1.00000000</i>
   <i name="AGGAX">      1.00000000</i>
   <i name="ALDAC">      1.00000000</i>
   <i name="AGGAC">      1.00000000</i>
   <i type="int" name="NKREDX">     1</i>
   <i type="int" name="NKREDY">     1</i>
   <i type="int" name="NKREDZ">     1</i>
   <i type="logical" name="SHIFTRED"> F  </i>
   <i type="logical" name="ODDONLY"> F  </i>
   <i type="logical" name="EVENONLY"> F  </i>
   <i type="int" name="LMAXFOCK">     0</i>
   <i type="int" name="NMAXFOCKAE">     0</i>
   <i type="logical" name="LFOCKAEDFT"> F  </i>
   <i name="HFSCREEN">      0.00000000</i>
   <i name="HFSCREENC">      0.00000000</i>
   <i type="int" name="NBANDSGWLOW">     0</i>
  </separator>
  <separator name="vdW DFT" >
   <i type="logical" name="LUSE_VDW"> F  </i>
   <i name="Zab_VDW">     -0.84910000</i>
   <i name="PARAM1">      0.12340000</i>
   <i name="PARAM2">      1.00000000</i>
   <i name="PARAM3">      0.00000000</i>
  </separator>
  <separator name="model GW" >
   <i type="int" name="MODEL_GW">     0</i>
   <i name="MODEL_EPS0">      8.51523704</i>
   <i name="MODEL_ALPHA">      1.00000000</i>
  </separator>
  <separator name="linear response parameters" >
   <i type="logical" name="LEPSILON"> F  </i>
   <i type="logical" name="LRPA"> F  </i>
   <i type="logical" name="LNABLA"> F  </i>
   <i type="logical" name="LVEL"> F  </i>
   <i type="int" name="KINTER">     0</i>
   <i name="CSHIFT">      0.10000000</i>
   <i name="OMEGAMAX">     -1.00000000</i>
   <i name="DEG_THRESHOLD">      0.00200000</i>
  </separator>
  <separator name="orbital magnetization" >
   <i type="logical" name="NUCIND"> F  </i>
   <v name="MAGPOS">      0.00000000      0.00000000      0.00000000</v>
   <i type="logical" name="LNICSALL"> T  </i>
   <i type="logical" name="ORBITALMAG"> F  </i>
   <i type="logical" name="LMAGBLOCH"> F  </i>
   <i type="logical" name="LCHIMAG"> F  </i>
   <i type="logical" name="LGAUGE"> T  </i>
   <i type="int" name="MAGATOM">     0</i>
   <v name="MAGDIPOL">      0.00000000      0.00000000      0.00000000</v>
   <v name="AVECCONST">      0.00000000      0.00000000      0.00000000</v>
  </separator>
  <separator name="response functions" >
   <i type="logical" name="LADDER"> F  </i>
   <i type="logical" name="LFXC"> F  </i>
   <i type="logical" name="LHARTREE"> T  </i>
   <i type="int" name="IBSE">     0</i>
   <v type="int" name="KPOINT">    -1     0     0     0</v>
   <i type="logical" name="LTCTE"> F  </i>
   <i type="logical" name="LTETE"> F  </i>
   <i type="logical" name="LTRIPLET"> F  </i>
   <i type="logical" name="LFXCEPS"> F  </i>
   <i type="logical" name="LFXHEG"> F  </i>
   <i type="int" name="NATURALO">     0</i>
   <i type="logical" name="L2ORDER"> F  </i>
   <i type="logical" name="LUSEW"> F  </i>
   <i name="ENCUTGW">     -2.00000000</i>
   <i name="ENCUTGWSOFT">     -2.00000000</i>
   <i name="ENCUTLF">     -1.00000000</i>
   <i type="int" name="LMAXMP2">    -1</i>
   <i name="SCISSOR">      0.00000000</i>
   <i type="int" name="NOMEGA">     0</i>
   <i type="int" name="NOMEGAR">     0</i>
   <i type="int" name="NBANDSGW">    -1</i>
   <i type="int" name="NBANDSO">    -1</i>
   <i type="int" name="NBANDSV">    -1</i>
   <i type="int" name="NELM">     1</i>
   <i type="int" name="NELMHF">     1</i>
   <i type="int" name="DIM">     3</i>
   <i type="int" name="ANTIRES">     0</i>
   <i name="OMEGAMAX">    -30.00000000</i>
   <i name="OMEGAMIN">    -30.00000000</i>
   <i name="OMEGATL">   -200.00000000</i>
   <i type="int" name="OMEGAGRID">     0</i>
   <i name="CSHIFT">     -0.10000000</i>
   <i type="logical" name="SELFENERGY"> F  </i>
   <i type="logical" name="LSPECTRAL"> F  </i>
   <i type="logical" name="LSPECTRALGW"> F  </i>
   <i type="logical" name="LSINGLES"> F  </i>
   <i type="logical" name="LFERMIGW"> F  </i>
   <i type="logical" name="ODDONLYGW"> F  </i>
   <i type="logical" name="EVENONLYGW"> F  </i>
   <i type="int" name="NKREDLFX">     1</i>
   <i type="int" name="NKREDLFY">     1</i>
   <i type="int" name="NKREDLFZ">     1</i>
   <i type="int" name="MAXMEM">  1800</i>
   <i type="int" name="TELESCOPE">     0</i>
   <i type="int" name="TAUPAR">     1</i>
   <i type="int" name="OMEGAPAR">    -1</i>
   <i name="LAMBDA">      1.00000000</i>
  </separator>
  <separator name="External order field" >
   <i name="OFIELD_KAPPA">      0.00000000</i>
   <v name="OFIELD_K">      0.00000000      0.00000000      0.00000000</v>
   <i name="OFIELD_Q6_NEAR">      0.00000000</i>
   <i name="OFIELD_Q6_FAR">      0.00000000</i>
   <i name="OFIELD_A">      0.00000000</i>
  </separator>
 </parameters>
 <atominfo>
  <atoms>     256 </atoms>
  <types>       2 </types>
  <array name="atoms" >
   <dimension dim="1">ion</dimension>
   <field type="string">element</field>
   <field type="int">atomtype</field>
   <set>
    <rc><c>Ir</c><c>   1</c></rc>
    <rc><c>Ir</c><c>   1</c></rc>
    <rc><c>Ir</c><c>   1</c></rc>
    <rc><c>Ir</c><c>   1</c></rc>
    <rc><c>Ir</c><c>   1</c></rc>
    <rc><c>Ir</c><c>   1</c></rc>
    <rc><c>Ir</c><c>   1</c></rc>
    <rc><c>Ir</c><c>   1</c></rc>
    <rc><c>Ir</c><c>   1</c></rc>
    <rc><c>Ir</c><c>   1</c></rc>
    <rc><c>Ir</c><c>   1</c></rc>
    <rc><c>Ir</c><c>   1</c></rc>
    <rc><c>Ir</c><c>   1</c></rc>
    <rc><c>Ir</c><c>   1</c></rc>
    <rc><c>Ir</c><c>   1</c></rc>
    <rc><c>Ir</c><c>   1</c></rc>
    <rc><c>Ir</c><c>   1</c></rc>
    <rc><c>Ir</c><c>   1</c></rc>
    <rc><c>Ir</c><c>   1</c></rc>
    <rc><c>Ir</c><c>   1</c></rc>
    <rc><c>Ir</c><c>   1</c></rc>
    <rc><c>Ir</c><c>   1</c></rc>
    <rc><c>Ir</c><c>   1</c></rc>
    <rc><c>Ir</c><c>   1</c></rc>
    <rc><c>Ir</c><c>   1</c></rc>
    <rc><c>Ir</c><c>   1</c></rc>
    <rc><c>Ir</c><c>   1</c></rc>
    <rc><c>Ir</c><c>   1</c></rc>
    <rc><c>Ir</c><c>   1</c></rc>
    <rc><c>Ir</c><c>   1</c></rc>
    <rc><c>Ir</c><c>   1</c></rc>
    <rc><c>Ir</c><c>   1</c></rc>
    <rc><c>Ir</c><c>   1</c></rc>
    <rc><c>Ir</c><c>   1</c></rc>
    <rc><c>Ir</c><c>   1</c></rc>
    <rc><c>Ir</c><c>   1</c></rc>
    <rc><c>Ir</c><c>   1</c></rc>
    <rc><c>Ir</c><c>   1</c></rc>
    <rc><c>Ir</c><c>   1</c></rc>
    <rc><c>Ir</c><c>   1</c></rc>
    <rc><c>Ir</c><c>   1</c></rc>
    <rc><c>Ir</c><c>   1</c></rc>
    <rc><c>Ir</c><c>   1</c></rc>
    <rc><c>Ir</c><c>   1</c></rc>
    <rc><c>Ir</c><c>   1</c></rc>
    <rc><c>Ir</c><c>   1</c></rc>
    <rc><c>Ir</c><c>   1</c></rc>
    <rc><c>Ir</c><c>   1</c></rc>
    <rc><c>Ir</c><c>   1</c></rc>
    <rc><c>Ir</c><c>   1</c></rc>
    <rc><c>Ir</c><c>   1</c></rc>
    <rc><c>Ir</c><c>   1</c></rc>
    <rc><c>Ir</c><c>   1</c></rc>
    <rc><c>Ir</c><c>   1</c></rc>
    <rc><c>Ir</c><c>   1</c></rc>
    <rc><c>Ir</c><c>   1</c></rc>
    <rc><c>Ir</c><c>   1</c></rc>
    <rc><c>Ir</c><c>   1</c></rc>
    <rc><c>Ir</c><c>   1</c></rc>
    <rc><c>Ir</c><c>   1</c></rc>
    <rc><c>Ir</c><c>   1</c></rc>
    <rc><c>Ir</c><c>   1</c></rc>
    <rc><c>Ir</c><c>   1</c></rc>
    <rc><c>Ir</c><c>   1</c></rc>
    <rc><c>Ir</c><c>   1</c></rc>
    <rc><c>Ir</c><c>   1</c></rc>
    <rc><c>Ir</c><c>   1</c></rc>
    <rc><c>Ir</c><c>   1</c></rc>
    <rc><c>Ir</c><c>   1</c></rc>
    <rc><c>Ir</c><c>   1</c></rc>
    <rc><c>Ir</c><c>   1</c></rc>
    <rc><c>Ir</c><c>   1</c></rc>
    <rc><c>Ir</c><c>   1</c></rc>
    <rc><c>Ir</c><c>   1</c></rc>
    <rc><c>Ir</c><c>   1</c></rc>
    <rc><c>Ir</c><c>   1</c></rc>
    <rc><c>Ir</c><c>   1</c></rc>
    <rc><c>Ir</c><c>   1</c></rc>
    <rc><c>Ir</c><c>   1</c></rc>
    <rc><c>Ir</c><c>   1</c></rc>
    <rc><c>Ir</c><c>   1</c></rc>
    <rc><c>Ir</c><c>   1</c></rc>
    <rc><c>Ir</c><c>   1</c></rc>
    <rc><c>Ir</c><c>   1</c></rc>
    <rc><c>Ir</c><c>   1</c></rc>
    <rc><c>Ir</c><c>   1</c></rc>
    <rc><c>Ir</c><c>   1</c></rc>
    <rc><c>Ir</c><c>   1</c></rc>
    <rc><c>Ir</c><c>   1</c></rc>
    <rc><c>Ir</c><c>   1</c></rc>
    <rc><c>Ir</c><c>   1</c></rc>
    <rc><c>Ir</c><c>   1</c></rc>
    <rc><c>Ir</c><c>   1</c></rc>
    <rc><c>Ir</c><c>   1</c></rc>
    <rc><c>Ir</c><c>   1</c></rc>
    <rc><c>Ir</c><c>   1</c></rc>
    <rc><c>Ir</c><c>   1</c></rc>
    <rc><c>Ir</c><c>   1</c></rc>
    <rc><c>Ir</c><c>   1</c></rc>
    <rc><c>Ir</c><c>   1</c></rc>
    <rc><c>Ir</c><c>   1</c></rc>
    <rc><c>Ir</c><c>   1</c></rc>
    <rc><c>Ir</c><c>   1</c></rc>
    <rc><c>Ir</c><c>   1</c></rc>
    <rc><c>Ir</c><c>   1</c></rc>
    <rc><c>Ir</c><c>   1</c></rc>
    <rc><c>Ir</c><c>   1</c></rc>
    <rc><c>Ir</c><c>   1</c></rc>
    <rc><c>Ir</c><c>   1</c></rc>
    <rc><c>Ir</c><c>   1</c></rc>
    <rc><c>Ir</c><c>   1</c></rc>
    <rc><c>Ir</c><c>   1</c></rc>
    <rc><c>Ir</c><c>   1</c></rc>
    <rc><c>Ir</c><c>   1</c></rc>
    <rc><c>Ir</c><c>   1</c></rc>
    <rc><c>Ir</c><c>   1</c></rc>
    <rc><c>Ir</c><c>   1</c></rc>
    <rc><c>Ir</c><c>   1</c></rc>
    <rc><c>Ir</c><c>   1</c></rc>
    <rc><c>Ir</c><c>   1</c></rc>
    <rc><c>Ir</c><c>   1</c></rc>
    <rc><c>Ir</c><c>   1</c></rc>
    <rc><c>Ir</c><c>   1</c></rc>
    <rc><c>Ir</c><c>   1</c></rc>
    <rc><c>Ir</c><c>   1</c></rc>
    <rc><c>Ir</c><c>   1</c></rc>
    <rc><c>Ir</c><c>   1</c></rc>
    <rc><c>Ir</c><c>   1</c></rc>
    <rc><c>Ru</c><c>   2</c></rc>
    <rc><c>Ru</c><c>   2</c></rc>
    <rc><c>Ru</c><c>   2</c></rc>
    <rc><c>Ru</c><c>   2</c></rc>
    <rc><c>Ru</c><c>   2</c></rc>
    <rc><c>Ru</c><c>   2</c></rc>
    <rc><c>Ru</c><c>   2</c></rc>
    <rc><c>Ru</c><c>   2</c></rc>
    <rc><c>Ru</c><c>   2</c></rc>
    <rc><c>Ru</c><c>   2</c></rc>
    <rc><c>Ru</c><c>   2</c></rc>
    <rc><c>Ru</c><c>   2</c></rc>
    <rc><c>Ru</c><c>   2</c></rc>
    <rc><c>Ru</c><c>   2</c></rc>
    <rc><c>Ru</c><c>   2</c></rc>
    <rc><c>Ru</c><c>   2</c></rc>
    <rc><c>Ru</c><c>   2</c></rc>
    <rc><c>Ru</c><c>   2</c></rc>
    <rc><c>Ru</c><c>   2</c></rc>
    <rc><c>Ru</c><c>   2</c></rc>
    <rc><c>Ru</c><c>   2</c></rc>
    <rc><c>Ru</c><c>   2</c></rc>
    <rc><c>Ru</c><c>   2</c></rc>
    <rc><c>Ru</c><c>   2</c></rc>
    <rc><c>Ru</c><c>   2</c></rc>
    <rc><c>Ru</c><c>   2</c></rc>
    <rc><c>Ru</c><c>   2</c></rc>
    <rc><c>Ru</c><c>   2</c></rc>
    <rc><c>Ru</c><c>   2</c></rc>
    <rc><c>Ru</c><c>   2</c></rc>
    <rc><c>Ru</c><c>   2</c></rc>
    <rc><c>Ru</c><c>   2</c></rc>
    <rc><c>Ru</c><c>   2</c></rc>
    <rc><c>Ru</c><c>   2</c></rc>
    <rc><c>Ru</c><c>   2</c></rc>
    <rc><c>Ru</c><c>   2</c></rc>
    <rc><c>Ru</c><c>   2</c></rc>
    <rc><c>Ru</c><c>   2</c></rc>
    <rc><c>Ru</c><c>   2</c></rc>
    <rc><c>Ru</c><c>   2</c></rc>
    <rc><c>Ru</c><c>   2</c></rc>
    <rc><c>Ru</c><c>   2</c></rc>
    <rc><c>Ru</c><c>   2</c></rc>
    <rc><c>Ru</c><c>   2</c></rc>
    <rc><c>Ru</c><c>   2</c></rc>
    <rc><c>Ru</c><c>   2</c></rc>
    <rc><c>Ru</c><c>   2</c></rc>
    <rc><c>Ru</c><c>   2</c></rc>
    <rc><c>Ru</c><c>   2</c></rc>
    <rc><c>Ru</c><c>   2</c></rc>
    <rc><c>Ru</c><c>   2</c></rc>
    <rc><c>Ru</c><c>   2</c></rc>
    <rc><c>Ru</c><c>   2</c></rc>
    <rc><c>Ru</c><c>   2</c></rc>
    <rc><c>Ru</c><c>   2</c></rc>
    <rc><c>Ru</c><c>   2</c></rc>
    <rc><c>Ru</c><c>   2</c></rc>
    <rc><c>Ru</c><c>   2</c></rc>
    <rc><c>Ru</c><c>   2</c></rc>
    <rc><c>Ru</c><c>   2</c></rc>
    <rc><c>Ru</c><c>   2</c></rc>
    <rc><c>Ru</c><c>   2</c></rc>
    <rc><c>Ru</c><c>   2</c></rc>
    <rc><c>Ru</c><c>   2</c></rc>
    <rc><c>Ru</c><c>   2</c></rc>
    <rc><c>Ru</c><c>   2</c></rc>
    <rc><c>Ru</c><c>   2</c></rc>
    <rc><c>Ru</c><c>   2</c></rc>
    <rc><c>Ru</c><c>   2</c></rc>
    <rc><c>Ru</c><c>   2</c></rc>
    <rc><c>Ru</c><c>   2</c></rc>
    <rc><c>Ru</c><c>   2</c></rc>
    <rc><c>Ru</c><c>   2</c></rc>
    <rc><c>Ru</c><c>   2</c></rc>
    <rc><c>Ru</c><c>   2</c></rc>
    <rc><c>Ru</c><c>   2</c></rc>
    <rc><c>Ru</c><c>   2</c></rc>
    <rc><c>Ru</c><c>   2</c></rc>
    <rc><c>Ru</c><c>   2</c></rc>
    <rc><c>Ru</c><c>   2</c></rc>
    <rc><c>Ru</c><c>   2</c></rc>
    <rc><c>Ru</c><c>   2</c></rc>
    <rc><c>Ru</c><c>   2</c></rc>
    <rc><c>Ru</c><c>   2</c></rc>
    <rc><c>Ru</c><c>   2</c></rc>
    <rc><c>Ru</c><c>   2</c></rc>
    <rc><c>Ru</c><c>   2</c></rc>
    <rc><c>Ru</c><c>   2</c></rc>
    <rc><c>Ru</c><c>   2</c></rc>
    <rc><c>Ru</c><c>   2</c></rc>
    <rc><c>Ru</c><c>   2</c></rc>
    <rc><c>Ru</c><c>   2</c></rc>
    <rc><c>Ru</c><c>   2</c></rc>
    <rc><c>Ru</c><c>   2</c></rc>
    <rc><c>Ru</c><c>   2</c></rc>
    <rc><c>Ru</c><c>   2</c></rc>
    <rc><c>Ru</c><c>   2</c></rc>
    <rc><c>Ru</c><c>   2</c></rc>
    <rc><c>Ru</c><c>   2</c></rc>
    <rc><c>Ru</c><c>   2</c></rc>
    <rc><c>Ru</c><c>   2</c></rc>
    <rc><c>Ru</c><c>   2</c></rc>
    <rc><c>Ru</c><c>   2</c></rc>
    <rc><c>Ru</c><c>   2</c></rc>
    <rc><c>Ru</c><c>   2</c></rc>
    <rc><c>Ru</c><c>   2</c></rc>
    <rc><c>Ru</c><c>   2</c></rc>
    <rc><c>Ru</c><c>   2</c></rc>
    <rc><c>Ru</c><c>   2</c></rc>
    <rc><c>Ru</c><c>   2</c></rc>
    <rc><c>Ru</c><c>   2</c></rc>
    <rc><c>Ru</c><c>   2</c></rc>
    <rc><c>Ru</c><c>   2</c></rc>
    <rc><c>Ru</c><c>   2</c></rc>
    <rc><c>Ru</c><c>   2</c></rc>
    <rc><c>Ru</c><c>   2</c></rc>
    <rc><c>Ru</c><c>   2</c></rc>
    <rc><c>Ru</c><c>   2</c></rc>
    <rc><c>Ru</c><c>   2</c></rc>
    <rc><c>Ru</c><c>   2</c></rc>
    <rc><c>Ru</c><c>   2</c></rc>
    <rc><c>Ru</c><c>   2</c></rc>
    <rc><c>Ru</c><c>   2</c></rc>
    <rc><c>Ru</c><c>   2</c></rc>
    <rc><c>Ru</c><c>   2</c></rc>
    <rc><c>Ru</c><c>   2</c></rc>
    <rc><c>Ru</c><c>   2</c></rc>
    <rc><c>Ru</c><c>   2</c></rc>
   </set>
  </array>
  <array name="atomtypes" >
   <dimension dim="1">type</dimension>
   <field type="int">atomspertype</field>
   <field type="string">element</field>
   <field>mass</field>
   <field>valence</field>
   <field type="string">pseudopotential</field>
   <set>
    <rc><c> 128</c><c>Ir</c><c>    192.22000000</c><c>      9.00000000</c><c> PAW_PBE Ir 06Sep2000                   </c></rc>
    <rc><c> 128</c><c>Ru</c><c>    101.07000000</c><c>      8.00000000</c><c> PAW_PBE Ru 06Sep2000                   </c></rc>
   </set>
  </array>
 </atominfo>
 <structure name="initialpos" >
  <crystal>
   <varray name="basis" >
    <v>       0.00188000      15.37080000       0.00140000 </v>
    <v>       0.00152000      -0.00140000     -15.37218000 </v>
    <v>     -15.37636000      -0.00188000       0.00151000 </v>
   </varray>
   <i name="volume">   3633.16780401 </i>
   <varray name="rec_basis" >
    <v>      -0.00000795       0.06505842      -0.00000593 </v>
    <v>      -0.00000639       0.00000593      -0.06505258 </v>
    <v>      -0.06503490       0.00000795      -0.00000643 </v>
   </varray>
  </crystal>
  <varray name="positions" >
   <v>       0.12544250       0.12495750       0.00137500 </v>
   <v>       0.25023500       0.87425500       0.37476000 </v>
   <v>       0.50095250       0.12407750       0.62474500 </v>
   <v>       0.37553250       0.12507750       0.50016500 </v>
   <v>       0.24973750       0.12571750       0.37459500 </v>
   <v>       0.37600500       0.00007500       0.37466000 </v>
   <v>       0.25039000       0.00088000       0.24854000 </v>
   <v>       0.37534750       0.24987750       0.37305500 </v>
   <v>       0.49970000       0.00076500       0.24985000 </v>
   <v>       0.25027250       0.00022250       0.00012500 </v>
   <v>       0.62466750       0.24912250       0.37463500 </v>
   <v>       0.37446000       0.12498500       0.00162000 </v>
   <v>       0.49907250       0.37499750       0.12491500 </v>
   <v>       0.49965250       0.24988250       0.00137500 </v>
   <v>       0.37398000       0.25085000       0.87599000 </v>
   <v>       0.62457250       0.37420750       0.24977500 </v>
   <v>       0.37544250       0.37495750       0.50137500 </v>
   <v>       0.50023500       0.12425500       0.87476000 </v>
   <v>       0.75095250       0.37407750       0.12474500 </v>
   <v>       0.62553250       0.37507750       0.00016500 </v>
   <v>       0.49973750       0.37571750       0.87459500 </v>
   <v>       0.62600500       0.25007500       0.87466000 </v>
   <v>       0.50039000       0.25088000       0.74854000 </v>
   <v>       0.62534750       0.49987750       0.87305500 </v>
   <v>       0.74970000       0.25076500       0.74985000 </v>
   <v>       0.50027250       0.25022250       0.50012500 </v>
   <v>       0.87466750       0.49912250       0.87463500 </v>
   <v>       0.62446000       0.37498500       0.50162000 </v>
   <v>       0.74907250       0.62499750       0.62491500 </v>
   <v>       0.74965250       0.49988250       0.50137500 </v>
   <v>       0.62398000       0.50085000       0.37599000 </v>
   <v>       0.87457250       0.62420750       0.74977500 </v>
   <v>       0.62544250       0.12495750       0.00137500 </v>
   <v>       0.75023500       0.87425500       0.37476000 </v>
   <v>       0.00095250       0.12407750       0.62474500 </v>
   <v>       0.87553250       0.12507750       0.50016500 </v>
   <v>       0.74973750       0.12571750       0.37459500 </v>
   <v>       0.87600500       0.00007500       0.37466000 </v>
   <v>       0.75039000       0.00088000       0.24854000 </v>
   <v>       0.87534750       0.24987750       0.37305500 </v>
   <v>       0.99970000       0.00076500       0.24985000 </v>
   <v>       0.75027250       0.00022250       0.00012500 </v>
   <v>       0.12466750       0.24912250       0.37463500 </v>
   <v>       0.87445750       0.12498750       0.00161500 </v>
   <v>       0.99907250       0.37499750       0.12491500 </v>
   <v>       0.99965250       0.24988250       0.00137500 </v>
   <v>       0.87397750       0.24824750       0.87598500 </v>
   <v>       0.12457250       0.37420750       0.24977500 </v>
   <v>       0.12544250       0.62495750       0.00137500 </v>
   <v>       0.25023500       0.37425500       0.37476000 </v>
   <v>       0.50095250       0.62407750       0.62474500 </v>
   <v>       0.37553250       0.62507750       0.50016500 </v>
   <v>       0.24973750       0.62571750       0.37459500 </v>
   <v>       0.37600500       0.50007500       0.37466000 </v>
   <v>       0.25039000       0.50088000       0.24854000 </v>
   <v>       0.37534750       0.74987750       0.37305500 </v>
   <v>       0.49970000       0.50076500       0.24985000 </v>
   <v>       0.25027250       0.50022250       0.00012500 </v>
   <v>       0.62466750       0.74912250       0.37463500 </v>
   <v>       0.37446000       0.62498500       0.00162000 </v>
   <v>       0.49907250       0.87499750       0.12491500 </v>
   <v>       0.49965250       0.74988250       0.00137500 </v>
   <v>       0.37397750       0.75084750       0.87598500 </v>
   <v>       0.62457250       0.87420750       0.24977500 </v>
   <v>       0.87544250       0.37495750       0.50137500 </v>
   <v>       0.00023500       0.12425500       0.87476000 </v>
   <v>       0.25095250       0.37407750       0.12474500 </v>
   <v>       0.12553250       0.37507750       0.00016500 </v>
   <v>       0.99973750       0.37571750       0.87459500 </v>
   <v>       0.12600500       0.25007500       0.87466000 </v>
   <v>       0.00039000       0.25088000       0.74854000 </v>
   <v>       0.12534750       0.49987750       0.87305500 </v>
   <v>       0.24970000       0.25076500       0.74985000 </v>
   <v>       0.00027250       0.25022250       0.50012500 </v>
   <v>       0.37466750       0.49912250       0.87463500 </v>
   <v>       0.12446000       0.37498500       0.50162000 </v>
   <v>       0.24907250       0.62499750       0.62491500 </v>
   <v>       0.24965250       0.49988250       0.50137500 </v>
   <v>       0.12397750       0.50084750       0.37598500 </v>
   <v>       0.37457250       0.62420750       0.74977500 </v>
   <v>       0.37544250       0.87495750       0.50137500 </v>
   <v>       0.50023500       0.62425500       0.87476000 </v>
   <v>       0.75095250       0.87407750       0.12474500 </v>
   <v>       0.62553250       0.87507750       0.00016500 </v>
   <v>       0.49973750       0.87571750       0.87459500 </v>
   <v>       0.62600250       0.75007250       0.87465500 </v>
   <v>       0.50039000       0.75088000       0.74854000 </v>
   <v>       0.62534750       0.99987750       0.87305500 </v>
   <v>       0.74970000       0.75076500       0.74985000 </v>
   <v>       0.50027250       0.75022250       0.50012500 </v>
   <v>       0.87466750       0.99912250       0.87463500 </v>
   <v>       0.62446000       0.87498500       0.50162000 </v>
   <v>       0.74907250       0.12499750       0.62491500 </v>
   <v>       0.74965250       0.99988250       0.50137500 </v>
   <v>       0.62397750       0.00084750       0.37598500 </v>
   <v>       0.87457250       0.12420750       0.74977500 </v>
   <v>       0.62544250       0.62495750       0.00137500 </v>
   <v>       0.75023500       0.37425500       0.37476000 </v>
   <v>       0.00095250       0.62407750       0.62474500 </v>
   <v>       0.87553250       0.62507750       0.50016500 </v>
   <v>       0.74973750       0.62571750       0.37459500 </v>
   <v>       0.87600500       0.50007500       0.37466000 </v>
   <v>       0.75039000       0.50088000       0.24854000 </v>
   <v>       0.87534750       0.74987750       0.37305500 </v>
   <v>       0.99970000       0.50076500       0.24985000 </v>
   <v>       0.75027250       0.50022250       0.00012500 </v>
   <v>       0.12466750       0.74912250       0.37463500 </v>
   <v>       0.87445750       0.62498750       0.00161500 </v>
   <v>       0.99907250       0.87499750       0.12491500 </v>
   <v>       0.99965250       0.74988250       0.00137500 </v>
   <v>       0.87398000       0.75085000       0.87599000 </v>
   <v>       0.12457250       0.87420750       0.24977500 </v>
   <v>       0.87544250       0.87495750       0.50137500 </v>
   <v>       0.00023500       0.62425500       0.87476000 </v>
   <v>       0.25095000       0.87407500       0.12474000 </v>
   <v>       0.12553250       0.87507750       0.00016500 </v>
   <v>       0.99973750       0.87571750       0.87459500 </v>
   <v>       0.12600250       0.75007250       0.87465500 </v>
   <v>       0.00039000       0.75088000       0.74854000 </v>
   <v>       0.12534750       0.99987750       0.87305500 </v>
   <v>       0.24970000       0.75076500       0.74985000 </v>
   <v>       0.00027250       0.75022250       0.50012500 </v>
   <v>       0.37466750       0.99912250       0.87463500 </v>
   <v>       0.12446000       0.87498500       0.50162000 </v>
   <v>       0.24907250       0.12499750       0.62491500 </v>
   <v>       0.24965250       0.99988250       0.50137500 </v>
   <v>       0.12397750       0.00084750       0.37598500 </v>
   <v>       0.37457250       0.12420750       0.74977500 </v>
   <v>       0.25026250       0.24934750       0.24886500 </v>
   <v>       0.37540000       0.99901500       0.62581000 </v>
   <v>       0.25026250       0.24988250       0.99990500 </v>
   <v>       0.37536500       0.37434000       0.25012000 </v>
   <v>       0.12452500       0.00102500       0.12470000 </v>
   <v>       0.62450750       0.12506750       0.49982500 </v>
   <v>       0.50015250       0.12515750       0.37466500 </v>
   <v>       0.37555250       0.12560250       0.24861500 </v>
   <v>       0.24996250       0.12589750       0.12593500 </v>
   <v>       0.37545500       0.00032500       0.12460000 </v>
   <v>       0.49970750       0.24909250       0.24996500 </v>
   <v>       0.37461750       0.87555250       0.74886500 </v>
   <v>       0.37463500       0.24969000       0.12600000 </v>
   <v>       0.50001500       0.12515000       0.12596000 </v>
   <v>       0.49971750       0.00013750       0.00129500 </v>
   <v>       0.24985750       0.12477250       0.87470500 </v>
   <v>       0.50026250       0.49934750       0.74886500 </v>
   <v>       0.62540000       0.24901500       0.12581000 </v>
   <v>       0.50026250       0.49988250       0.49990500 </v>
   <v>       0.62536500       0.62434000       0.75012000 </v>
   <v>       0.37452500       0.25102500       0.62470000 </v>
   <v>       0.87450750       0.37506750       0.99982500 </v>
   <v>       0.75015250       0.37515750       0.87466500 </v>
   <v>       0.62555250       0.37560250       0.74861500 </v>
   <v>       0.49996250       0.37589750       0.62593500 </v>
   <v>       0.62545500       0.25032500       0.62460000 </v>
   <v>       0.74970750       0.49909250       0.74996500 </v>
   <v>       0.62461750       0.12555250       0.24886500 </v>
   <v>       0.62463250       0.49969250       0.62599500 </v>
   <v>       0.75001500       0.37515000       0.62596000 </v>
   <v>       0.74971750       0.25013750       0.50129500 </v>
   <v>       0.49985750       0.37477250       0.37470500 </v>
   <v>       0.75026250       0.24934750       0.24886500 </v>
   <v>       0.87540000       0.99901500       0.62581000 </v>
   <v>       0.75026250       0.24988250       0.99990500 </v>
   <v>       0.87536500       0.37434000       0.25012000 </v>
   <v>       0.62452500       0.00102500       0.12470000 </v>
   <v>       0.12450750       0.12506750       0.49982500 </v>
   <v>       0.00015250       0.12515750       0.37466500 </v>
   <v>       0.87555250       0.12560250       0.24861500 </v>
   <v>       0.74996250       0.12589750       0.12593500 </v>
   <v>       0.87545500       0.00032500       0.12460000 </v>
   <v>       0.99970750       0.24909250       0.24996500 </v>
   <v>       0.87461750       0.87555250       0.74886500 </v>
   <v>       0.87463250       0.24969250       0.12599500 </v>
   <v>       0.00001500       0.12515000       0.12596000 </v>
   <v>       0.99971750       0.00013750       0.00129500 </v>
   <v>       0.74985750       0.12477250       0.87470500 </v>
   <v>       0.25026250       0.74934750       0.24886500 </v>
   <v>       0.37540000       0.49901500       0.62581000 </v>
   <v>       0.25026250       0.74988250       0.99990500 </v>
   <v>       0.37536500       0.87434000       0.25012000 </v>
   <v>       0.12452500       0.50102500       0.12470000 </v>
   <v>       0.62450750       0.62506750       0.49982500 </v>
   <v>       0.50015250       0.62515750       0.37466500 </v>
   <v>       0.37555250       0.62560250       0.24861500 </v>
   <v>       0.24996250       0.62589750       0.12593500 </v>
   <v>       0.37545500       0.50032500       0.12460000 </v>
   <v>       0.49970750       0.74909250       0.24996500 </v>
   <v>       0.37461750       0.37555250       0.74886500 </v>
   <v>       0.37463500       0.74969000       0.12600000 </v>
   <v>       0.50001500       0.62515000       0.12596000 </v>
   <v>       0.49971750       0.50013750       0.00129500 </v>
   <v>       0.24985750       0.62477250       0.87470500 </v>
   <v>       0.00026250       0.49934750       0.74886500 </v>
   <v>       0.12540000       0.24901500       0.12581000 </v>
   <v>       0.00026250       0.49988250       0.49990500 </v>
   <v>       0.12536500       0.62434000       0.75012000 </v>
   <v>       0.87452500       0.25102500       0.62470000 </v>
   <v>       0.37450750       0.37506750       0.99982500 </v>
   <v>       0.25015250       0.37515750       0.87466500 </v>
   <v>       0.12555250       0.37560250       0.74861500 </v>
   <v>       0.99996250       0.37589750       0.62593500 </v>
   <v>       0.12545500       0.25032500       0.62460000 </v>
   <v>       0.24970750       0.49909250       0.74996500 </v>
   <v>       0.12461750       0.12555250       0.24886500 </v>
   <v>       0.12463250       0.49969250       0.62599500 </v>
   <v>       0.25001500       0.37515000       0.62596000 </v>
   <v>       0.24971750       0.25013750       0.50129500 </v>
   <v>       0.99985750       0.37477250       0.37470500 </v>
   <v>       0.50026250       0.99934750       0.74886500 </v>
   <v>       0.62540000       0.74901500       0.12581000 </v>
   <v>       0.50026250       0.99988250       0.49990500 </v>
   <v>       0.62536500       0.12434000       0.75012000 </v>
   <v>       0.37452500       0.75102500       0.62470000 </v>
   <v>       0.87450750       0.87506750       0.99982500 </v>
   <v>       0.75015250       0.87515750       0.87466500 </v>
   <v>       0.62555250       0.87560250       0.74861500 </v>
   <v>       0.49996250       0.87589750       0.62593500 </v>
   <v>       0.62545500       0.75032500       0.62460000 </v>
   <v>       0.74970750       0.99909250       0.74996500 </v>
   <v>       0.62461750       0.62555250       0.24886500 </v>
   <v>       0.62463250       0.99969250       0.62599500 </v>
   <v>       0.75001500       0.87515000       0.62596000 </v>
   <v>       0.74971750       0.75013750       0.50129500 </v>
   <v>       0.49985750       0.87477250       0.37470500 </v>
   <v>       0.75026250       0.74934750       0.24886500 </v>
   <v>       0.87540000       0.49901500       0.62581000 </v>
   <v>       0.75026250       0.74988250       0.99990500 </v>
   <v>       0.87536500       0.87434000       0.25012000 </v>
   <v>       0.62452500       0.50102500       0.12470000 </v>
   <v>       0.12450750       0.62506750       0.49982500 </v>
   <v>       0.00015250       0.62515750       0.37466500 </v>
   <v>       0.87555250       0.62560250       0.24861500 </v>
   <v>       0.74996250       0.62589750       0.12593500 </v>
   <v>       0.87545500       0.50032500       0.12460000 </v>
   <v>       0.99970750       0.74909250       0.24996500 </v>
   <v>       0.87461750       0.37555250       0.74886500 </v>
   <v>       0.87463250       0.74969250       0.12599500 </v>
   <v>       0.00001500       0.62515000       0.12596000 </v>
   <v>       0.99971750       0.50013750       0.00129500 </v>
   <v>       0.74985750       0.62477250       0.87470500 </v>
   <v>       0.00026250       0.99934750       0.74886500 </v>
   <v>       0.12540000       0.74901500       0.12581000 </v>
   <v>       0.00026250       0.99988250       0.49990500 </v>
   <v>       0.12536500       0.12434000       0.75012000 </v>
   <v>       0.87452500       0.75102500       0.62470000 </v>
   <v>       0.37450750       0.87506750       0.99982500 </v>
   <v>       0.25015250       0.87515750       0.87466500 </v>
   <v>       0.12555250       0.87560250       0.74861500 </v>
   <v>       0.99996250       0.87589750       0.62593500 </v>
   <v>       0.12545500       0.75032500       0.62460000 </v>
   <v>       0.24970750       0.99909250       0.74996500 </v>
   <v>       0.12461750       0.62555250       0.24886500 </v>
   <v>       0.12463500       0.99969000       0.62600000 </v>
   <v>       0.25001250       0.87514750       0.62596500 </v>
   <v>       0.24971750       0.75013750       0.50129500 </v>
   <v>       0.99985750       0.87477250       0.37470500 </v>
  </varray>
 </structure>
 <calculation>
  <scstep>
   <time name="dav"> 1195.86 1206.03</time>
   <time name="total"> 1196.12 1206.30</time>
   <energy>
    <i name="alphaZ">  17816.49363791 </i>
    <i name="ewald">-159090.43898198 </i>
    <i name="hartreedc"> -10358.15234746 </i>
    <i name="XCdc">  -6288.28575123 </i>
    <i name="pawpsdc"> 107387.23103886 </i>
    <i name="pawaedc"> -95870.62587529 </i>
    <i name="eentropy">      0.00135658 </i>
    <i name="bandstr">  27752.64794045 </i>
    <i name="atom"> 129934.13886476 </i>
    <i name="e_fr_energy">  11283.00988260 </i>
    <i name="e_wo_entrp">  11283.00852602 </i>
    <i name="e_0_energy">  11283.00943041 </i>
   </energy>
  </scstep>
  <scstep>
   <time name="dav"> 1197.18 1206.66</time>
   <time name="total"> 1197.20 1206.68</time>
   <energy>
    <i name="e_fr_energy">  -1438.92051099 </i>
    <i name="e_wo_entrp">  -1438.92003327 </i>
    <i name="e_0_energy">  -1438.92035175 </i>
   </energy>
  </scstep>
  <scstep>
   <time name="dav"> 1581.42 1595.16</time>
   <time name="total"> 1581.44 1595.18</time>
   <energy>
    <i name="e_fr_energy">  -2410.87416473 </i>
    <i name="e_wo_entrp">  -2410.86109583 </i>
    <i name="e_0_energy">  -2410.86980843 </i>
   </energy>
  </scstep>
  <scstep>
   <time name="dav"> 1551.08 1563.16</time>
   <time name="total"> 1551.10 1563.18</time>
   <energy>
    <i name="e_fr_energy">  -2482.28402714 </i>
    <i name="e_wo_entrp">  -2482.28335382 </i>
    <i name="e_0_energy">  -2482.28380270 </i>
   </energy>
  </scstep>
  <scstep>
   <time name="dav"> 1617.69 1630.71</time>
   <time name="total"> 1649.16 1662.39</time>
   <energy>
    <i name="e_fr_energy">  -2485.12040137 </i>
    <i name="e_wo_entrp">  -2485.12068646 </i>
    <i name="e_0_energy">  -2485.12049640 </i>
   </energy>
  </scstep>
  <scstep>
   <time name="diag">  121.99  123.25</time>
   <time name="diis">  578.32  584.41</time>
   <time name="orth">   42.36   42.73</time>
   <time name="total">  774.53  782.52</time>
   <energy>
    <i name="e_fr_energy">  -2416.47077830 </i>
    <i name="e_wo_entrp">  -2416.46897291 </i>
    <i name="e_0_energy">  -2416.47017650 </i>
   </energy>
  </scstep>
  <scstep>
   <time name="diag">  122.55  123.91</time>
   <time name="diis">  533.11  538.38</time>
   <time name="orth">   42.38   42.67</time>
   <time name="total">  729.72  736.77</time>
   <energy>
    <i name="e_fr_energy">  -2369.98464199 </i>
    <i name="e_wo_entrp">  -2369.96425449 </i>
    <i name="e_0_energy">  -2369.97784615 </i>
   </energy>
  </scstep>
  <scstep>
   <time name="diag">  122.71  123.79</time>
   <time name="diis">  534.70  539.65</time>
   <time name="orth">   42.25   42.42</time>
   <time name="total">  731.56  737.88</time>
   <energy>
    <i name="e_fr_energy">  -2339.85923313 </i>
    <i name="e_wo_entrp">  -2339.85504792 </i>
    <i name="e_0_energy">  -2339.85783806 </i>
   </energy>
  </scstep>
  <scstep>
   <time name="diag">  122.61  123.47</time>
   <time name="diis">  542.68  548.27</time>
   <time name="orth">   41.96   42.30</time>
   <time name="total">  738.86  746.10</time>
   <energy>
    <i name="e_fr_energy">  -2315.62294810 </i>
    <i name="e_wo_entrp">  -2315.65681728 </i>
    <i name="e_0_energy">  -2315.63423783 </i>
   </energy>
  </scstep>
  <scstep>
   <time name="diag">  122.38  123.60</time>
   <time name="diis">  738.62  746.64</time>
   <time name="orth">   42.24   42.41</time>
   <time name="total">  934.97  944.76</time>
   <energy>
    <i name="e_fr_energy">  -2315.40257990 </i>
    <i name="e_wo_entrp">  -2315.42371849 </i>
    <i name="e_0_energy">  -2315.40962610 </i>
   </energy>
  </scstep>
  <scstep>
   <time name="diag">  123.21  124.11</time>
   <time name="diis">  649.67  656.10</time>
   <time name="orth">   42.14   42.56</time>
   <time name="total">  846.72  854.82</time>
   <energy>
    <i name="e_fr_energy">  -2315.16876652 </i>
    <i name="e_wo_entrp">  -2315.18757393 </i>
    <i name="e_0_energy">  -2315.17503566 </i>
   </energy>
  </scstep>
  <scstep>
   <time name="diag">  123.13  124.46</time>
   <time name="diis">  659.25  665.25</time>
   <time name="orth">   42.32   42.74</time>
   <time name="total">  856.70  864.69</time>
   <energy>
    <i name="e_fr_energy">  -2314.90563582 </i>
    <i name="e_wo_entrp">  -2314.92505009 </i>
    <i name="e_0_energy">  -2314.91210724 </i>
   </energy>
  </scstep>
  <scstep>
   <time name="diag">  122.70  124.35</time>
   <time name="diis">  616.98  622.32</time>
   <time name="orth">   42.18   42.43</time>
   <time name="total">  813.66  821.13</time>
   <energy>
    <i name="e_fr_energy">  -2314.77782498 </i>
    <i name="e_wo_entrp">  -2314.79891006 </i>
    <i name="e_0_energy">  -2314.78485334 </i>
   </energy>
  </scstep>
  <scstep>
   <time name="diag">  123.21  124.22</time>
   <time name="diis">  612.59  616.81</time>
   <time name="orth">   42.07   42.26</time>
   <time name="total">  809.98  815.85</time>
   <energy>
    <i name="e_fr_energy">  -2314.74845694 </i>
    <i name="e_wo_entrp">  -2314.77331501 </i>
    <i name="e_0_energy">  -2314.75674297 </i>
   </energy>
  </scstep>
  <scstep>
   <time name="diag">  122.93  124.00</time>
   <time name="diis">  656.01  661.01</time>
   <time name="orth">   42.33   42.65</time>
   <time name="total">  853.12  859.68</time>
   <energy>
    <i name="e_fr_energy">  -2314.72917903 </i>
    <i name="e_wo_entrp">  -2314.75389771 </i>
    <i name="e_0_energy">  -2314.73741859 </i>
   </energy>
  </scstep>
  <scstep>
   <time name="diag">  123.78  124.56</time>
   <time name="diis">  623.81  629.02</time>
   <time name="orth">   42.13   42.63</time>
   <time name="total">  821.62  828.39</time>
   <energy>
    <i name="e_fr_energy">  -2314.71468680 </i>
    <i name="e_wo_entrp">  -2314.73882949 </i>
    <i name="e_0_energy">  -2314.72273436 </i>
   </energy>
  </scstep>
  <scstep>
   <time name="diag">  122.66  123.45</time>
   <time name="diis">  646.38  653.08</time>
   <time name="orth">   42.02   42.60</time>
   <time name="total">  842.66  851.26</time>
   <energy>
    <i name="e_fr_energy">  -2314.71142640 </i>
    <i name="e_wo_entrp">  -2314.73439631 </i>
    <i name="e_0_energy">  -2314.71908304 </i>
   </energy>
  </scstep>
  <scstep>
   <time name="diag">  121.74  123.70</time>
   <time name="diis">  713.46  725.15</time>
   <time name="orth">   41.82   42.46</time>
   <time name="total">  908.63  923.49</time>
   <energy>
    <i name="e_fr_energy">  -2314.71246281 </i>
    <i name="e_wo_entrp">  -2314.73463685 </i>
    <i name="e_0_energy">  -2314.71985416 </i>
   </energy>
  </scstep>
  <scstep>
   <time name="diag">  122.90  124.79</time>
   <time name="diis">  749.35  759.10</time>
   <time name="orth">   42.30   42.89</time>
   <time name="total">  946.02  958.72</time>
   <energy>
    <i name="e_fr_energy">  -2314.71225770 </i>
    <i name="e_wo_entrp">  -2314.73437016 </i>
    <i name="e_0_energy">  -2314.71962852 </i>
   </energy>
  </scstep>
  <scstep>
   <time name="diag">  122.60  124.11</time>
   <time name="diis">  613.95  622.88</time>
   <time name="orth">   42.00   42.42</time>
   <time name="total">  810.63  821.88</time>
   <energy>
    <i name="e_fr_energy">  -2314.71151076 </i>
    <i name="e_wo_entrp">  -2314.73384446 </i>
    <i name="e_0_energy">  -2314.71895532 </i>
   </energy>
  </scstep>
  <scstep>
   <time name="diag">  122.31  124.51</time>
   <time name="diis">  654.85  665.74</time>
   <time name="orth">   41.91   42.74</time>
   <time name="total">  851.02  865.23</time>
   <energy>
    <i name="e_fr_energy">  -2314.71110114 </i>
    <i name="e_wo_entrp">  -2314.73390311 </i>
    <i name="e_0_energy">  -2314.71870180 </i>
   </energy>
  </scstep>
  <scstep>
   <time name="diag">  121.77  123.80</time>
   <time name="diis">  749.13  760.87</time>
   <time name="orth">   41.57   42.57</time>
   <time name="total">  912.70  927.49</time>
   <energy>
    <i name="alphaZ">  17816.49363791 </i>
    <i name="ewald">-159090.43898198 </i>
    <i name="hartreedc">  -7947.60985062 </i>
    <i name="XCdc">  -6308.13936912 </i>
    <i name="pawpsdc"> 121857.33005387 </i>
    <i name="pawaedc">-111029.57616650 </i>
    <i name="eentropy">      0.02284801 </i>
    <i name="bandstr">  12453.06788270 </i>
    <i name="atom"> 129934.13886476 </i>
    <i name="e_fr_energy">  -2314.71108097 </i>
    <i name="e_wo_entrp">  -2314.73392898 </i>
    <i name="e_0_energy">  -2314.71869698 </i>
   </energy>
  </scstep>
  <structure>
   <crystal>
    <varray name="basis" >
     <v>       0.00188000      15.37080000       0.00140000 </v>
     <v>       0.00152000      -0.00140000     -15.37218000 </v>
     <v>     -15.37636000      -0.00188000       0.00151000 </v>
    </varray>
    <i name="volume">   3633.16780401 </i>
    <varray name="rec_basis" >
     <v>      -0.00000795       0.06505842      -0.00000593 </v>
     <v>      -0.00000639       0.00000593      -0.06505258 </v>
     <v>      -0.06503490       0.00000795      -0.00000643 </v>
    </varray>
   </crystal>
   <varray name="positions" >
    <v>       0.12544250       0.12495750       0.00137500 </v>
    <v>       0.25023500       0.87425500       0.37476000 </v>
    <v>       0.50095250       0.12407750       0.62474500 </v>
    <v>       0.37553250       0.12507750       0.50016500 </v>
    <v>       0.24973750       0.12571750       0.37459500 </v>
    <v>       0.37600500       0.00007500       0.37466000 </v>
    <v>       0.25039000       0.00088000       0.24854000 </v>
    <v>       0.37534750       0.24987750       0.37305500 </v>
    <v>       0.49970000       0.00076500       0.24985000 </v>
    <v>       0.25027250       0.00022250       0.00012500 </v>
    <v>       0.62466750       0.24912250       0.37463500 </v>
    <v>       0.37446000       0.12498500       0.00162000 </v>
    <v>       0.49907250       0.37499750       0.12491500 </v>
    <v>       0.49965250       0.24988250       0.00137500 </v>
    <v>       0.37398000       0.25085000       0.87599000 </v>
    <v>       0.62457250       0.37420750       0.24977500 </v>
    <v>       0.37544250       0.37495750       0.50137500 </v>
    <v>       0.50023500       0.12425500       0.87476000 </v>
    <v>       0.75095250       0.37407750       0.12474500 </v>
    <v>       0.62553250       0.37507750       0.00016500 </v>
    <v>       0.49973750       0.37571750       0.87459500 </v>
    <v>       0.62600500       0.25007500       0.87466000 </v>
    <v>       0.50039000       0.25088000       0.74854000 </v>
    <v>       0.62534750       0.49987750       0.87305500 </v>
    <v>       0.74970000       0.25076500       0.74985000 </v>
    <v>       0.50027250       0.25022250       0.50012500 </v>
    <v>       0.87466750       0.49912250       0.87463500 </v>
    <v>       0.62446000       0.37498500       0.50162000 </v>
    <v>       0.74907250       0.62499750       0.62491500 </v>
    <v>       0.74965250       0.49988250       0.50137500 </v>
    <v>       0.62398000       0.50085000       0.37599000 </v>
    <v>       0.87457250       0.62420750       0.74977500 </v>
    <v>       0.62544250       0.12495750       0.00137500 </v>
    <v>       0.75023500       0.87425500       0.37476000 </v>
    <v>       0.00095250       0.12407750       0.62474500 </v>
    <v>       0.87553250       0.12507750       0.50016500 </v>
    <v>       0.74973750       0.12571750       0.37459500 </v>
    <v>       0.87600500       0.00007500       0.37466000 </v>
    <v>       0.75039000       0.00088000       0.24854000 </v>
    <v>       0.87534750       0.24987750       0.37305500 </v>
    <v>       0.99970000       0.00076500       0.24985000 </v>
    <v>       0.75027250       0.00022250       0.00012500 </v>
    <v>       0.12466750       0.24912250       0.37463500 </v>
    <v>       0.87445750       0.12498750       0.00161500 </v>
    <v>       0.99907250       0.37499750       0.12491500 </v>
    <v>       0.99965250       0.24988250       0.00137500 </v>
    <v>       0.87397750       0.24824750       0.87598500 </v>
    <v>       0.12457250       0.37420750       0.24977500 </v>
    <v>       0.12544250       0.62495750       0.00137500 </v>
    <v>       0.25023500       0.37425500       0.37476000 </v>
    <v>       0.50095250       0.62407750       0.62474500 </v>
    <v>       0.37553250       0.62507750       0.50016500 </v>
    <v>       0.24973750       0.62571750       0.37459500 </v>
    <v>       0.37600500       0.50007500       0.37466000 </v>
    <v>       0.25039000       0.50088000       0.24854000 </v>
    <v>       0.37534750       0.74987750       0.37305500 </v>
    <v>       0.49970000       0.50076500       0.24985000 </v>
    <v>       0.25027250       0.50022250       0.00012500 </v>
    <v>       0.62466750       0.74912250       0.37463500 </v>
    <v>       0.37446000       0.62498500       0.00162000 </v>
    <v>       0.49907250       0.87499750       0.12491500 </v>
    <v>       0.49965250       0.74988250       0.00137500 </v>
    <v>       0.37397750       0.75084750       0.87598500 </v>
    <v>       0.62457250       0.87420750       0.24977500 </v>
    <v>       0.87544250       0.37495750       0.50137500 </v>
    <v>       0.00023500       0.12425500       0.87476000 </v>
    <v>       0.25095250       0.37407750       0.12474500 </v>
    <v>       0.12553250       0.37507750       0.00016500 </v>
    <v>       0.99973750       0.37571750       0.87459500 </v>
    <v>       0.12600500       0.25007500       0.87466000 </v>
    <v>       0.00039000       0.25088000       0.74854000 </v>
    <v>       0.12534750       0.49987750       0.87305500 </v>
    <v>       0.24970000       0.25076500       0.74985000 </v>
    <v>       0.00027250       0.25022250       0.50012500 </v>
    <v>       0.37466750       0.49912250       0.87463500 </v>
    <v>       0.12446000       0.37498500       0.50162000 </v>
    <v>       0.24907250       0.62499750       0.62491500 </v>
    <v>       0.24965250       0.49988250       0.50137500 </v>
    <v>       0.12397750       0.50084750       0.37598500 </v>
    <v>       0.37457250       0.62420750       0.74977500 </v>
    <v>       0.37544250       0.87495750       0.50137500 </v>
    <v>       0.50023500       0.62425500       0.87476000 </v>
    <v>       0.75095250       0.87407750       0.12474500 </v>
    <v>       0.62553250       0.87507750       0.00016500 </v>
    <v>       0.49973750       0.87571750       0.87459500 </v>
    <v>       0.62600250       0.75007250       0.87465500 </v>
    <v>       0.50039000       0.75088000       0.74854000 </v>
    <v>       0.62534750       0.99987750       0.87305500 </v>
    <v>       0.74970000       0.75076500       0.74985000 </v>
    <v>       0.50027250       0.75022250       0.50012500 </v>
    <v>       0.87466750       0.99912250       0.87463500 </v>
    <v>       0.62446000       0.87498500       0.50162000 </v>
    <v>       0.74907250       0.12499750       0.62491500 </v>
    <v>       0.74965250       0.99988250       0.50137500 </v>
    <v>       0.62397750       0.00084750       0.37598500 </v>
    <v>       0.87457250       0.12420750       0.74977500 </v>
    <v>       0.62544250       0.62495750       0.00137500 </v>
    <v>       0.75023500       0.37425500       0.37476000 </v>
    <v>       0.00095250       0.62407750       0.62474500 </v>
    <v>       0.87553250       0.62507750       0.50016500 </v>
    <v>       0.74973750       0.62571750       0.37459500 </v>
    <v>       0.87600500       0.50007500       0.37466000 </v>
    <v>       0.75039000       0.50088000       0.24854000 </v>
    <v>       0.87534750       0.74987750       0.37305500 </v>
    <v>       0.99970000       0.50076500       0.24985000 </v>
    <v>       0.75027250       0.50022250       0.00012500 </v>
    <v>       0.12466750       0.74912250       0.37463500 </v>
    <v>       0.87445750       0.62498750       0.00161500 </v>
    <v>       0.99907250       0.87499750       0.12491500 </v>
    <v>       0.99965250       0.74988250       0.00137500 </v>
    <v>       0.87398000       0.75085000       0.87599000 </v>
    <v>       0.12457250       0.87420750       0.24977500 </v>
    <v>       0.87544250       0.87495750       0.50137500 </v>
    <v>       0.00023500       0.62425500       0.87476000 </v>
    <v>       0.25095000       0.87407500       0.12474000 </v>
    <v>       0.12553250       0.87507750       0.00016500 </v>
    <v>       0.99973750       0.87571750       0.87459500 </v>
    <v>       0.12600250       0.75007250       0.87465500 </v>
    <v>       0.00039000       0.75088000       0.74854000 </v>
    <v>       0.12534750       0.99987750       0.87305500 </v>
    <v>       0.24970000       0.75076500       0.74985000 </v>
    <v>       0.00027250       0.75022250       0.50012500 </v>
    <v>       0.37466750       0.99912250       0.87463500 </v>
    <v>       0.12446000       0.87498500       0.50162000 </v>
    <v>       0.24907250       0.12499750       0.62491500 </v>
    <v>       0.24965250       0.99988250       0.50137500 </v>
    <v>       0.12397750       0.00084750       0.37598500 </v>
    <v>       0.37457250       0.12420750       0.74977500 </v>
    <v>       0.25026250       0.24934750       0.24886500 </v>
    <v>       0.37540000       0.99901500       0.62581000 </v>
    <v>       0.25026250       0.24988250       0.99990500 </v>
    <v>       0.37536500       0.37434000       0.25012000 </v>
    <v>       0.12452500       0.00102500       0.12470000 </v>
    <v>       0.62450750       0.12506750       0.49982500 </v>
    <v>       0.50015250       0.12515750       0.37466500 </v>
    <v>       0.37555250       0.12560250       0.24861500 </v>
    <v>       0.24996250       0.12589750       0.12593500 </v>
    <v>       0.37545500       0.00032500       0.12460000 </v>
    <v>       0.49970750       0.24909250       0.24996500 </v>
    <v>       0.37461750       0.87555250       0.74886500 </v>
    <v>       0.37463500       0.24969000       0.12600000 </v>
    <v>       0.50001500       0.12515000       0.12596000 </v>
    <v>       0.49971750       0.00013750       0.00129500 </v>
    <v>       0.24985750       0.12477250       0.87470500 </v>
    <v>       0.50026250       0.49934750       0.74886500 </v>
    <v>       0.62540000       0.24901500       0.12581000 </v>
    <v>       0.50026250       0.49988250       0.49990500 </v>
    <v>       0.62536500       0.62434000       0.75012000 </v>
    <v>       0.37452500       0.25102500       0.62470000 </v>
    <v>       0.87450750       0.37506750       0.99982500 </v>
    <v>       0.75015250       0.37515750       0.87466500 </v>
    <v>       0.62555250       0.37560250       0.74861500 </v>
    <v>       0.49996250       0.37589750       0.62593500 </v>
    <v>       0.62545500       0.25032500       0.62460000 </v>
    <v>       0.74970750       0.49909250       0.74996500 </v>
    <v>       0.62461750       0.12555250       0.24886500 </v>
    <v>       0.62463250       0.49969250       0.62599500 </v>
    <v>       0.75001500       0.37515000       0.62596000 </v>
    <v>       0.74971750       0.25013750       0.50129500 </v>
    <v>       0.49985750       0.37477250       0.37470500 </v>
    <v>       0.75026250       0.24934750       0.24886500 </v>
    <v>       0.87540000       0.99901500       0.62581000 </v>
    <v>       0.75026250       0.24988250       0.99990500 </v>
    <v>       0.87536500       0.37434000       0.25012000 </v>
    <v>       0.62452500       0.00102500       0.12470000 </v>
    <v>       0.12450750       0.12506750       0.49982500 </v>
    <v>       0.00015250       0.12515750       0.37466500 </v>
    <v>       0.87555250       0.12560250       0.24861500 </v>
    <v>       0.74996250       0.12589750       0.12593500 </v>
    <v>       0.87545500       0.00032500       0.12460000 </v>
    <v>       0.99970750       0.24909250       0.24996500 </v>
    <v>       0.87461750       0.87555250       0.74886500 </v>
    <v>       0.87463250       0.24969250       0.12599500 </v>
    <v>       0.00001500       0.12515000       0.12596000 </v>
    <v>       0.99971750       0.00013750       0.00129500 </v>
    <v>       0.74985750       0.12477250       0.87470500 </v>
    <v>       0.25026250       0.74934750       0.24886500 </v>
    <v>       0.37540000       0.49901500       0.62581000 </v>
    <v>       0.25026250       0.74988250       0.99990500 </v>
    <v>       0.37536500       0.87434000       0.25012000 </v>
    <v>       0.12452500       0.50102500       0.12470000 </v>
    <v>       0.62450750       0.62506750       0.49982500 </v>
    <v>       0.50015250       0.62515750       0.37466500 </v>
    <v>       0.37555250       0.62560250       0.24861500 </v>
    <v>       0.24996250       0.62589750       0.12593500 </v>
    <v>       0.37545500       0.50032500       0.12460000 </v>
    <v>       0.49970750       0.74909250       0.24996500 </v>
    <v>       0.37461750       0.37555250       0.74886500 </v>
    <v>       0.37463500       0.74969000       0.12600000 </v>
    <v>       0.50001500       0.62515000       0.12596000 </v>
    <v>       0.49971750       0.50013750       0.00129500 </v>
    <v>       0.24985750       0.62477250       0.87470500 </v>
    <v>       0.00026250       0.49934750       0.74886500 </v>
    <v>       0.12540000       0.24901500       0.12581000 </v>
    <v>       0.00026250       0.49988250       0.49990500 </v>
    <v>       0.12536500       0.62434000       0.75012000 </v>
    <v>       0.87452500       0.25102500       0.62470000 </v>
    <v>       0.37450750       0.37506750       0.99982500 </v>
    <v>       0.25015250       0.37515750       0.87466500 </v>
    <v>       0.12555250       0.37560250       0.74861500 </v>
    <v>       0.99996250       0.37589750       0.62593500 </v>
    <v>       0.12545500       0.25032500       0.62460000 </v>
    <v>       0.24970750       0.49909250       0.74996500 </v>
    <v>       0.12461750       0.12555250       0.24886500 </v>
    <v>       0.12463250       0.49969250       0.62599500 </v>
    <v>       0.25001500       0.37515000       0.62596000 </v>
    <v>       0.24971750       0.25013750       0.50129500 </v>
    <v>       0.99985750       0.37477250       0.37470500 </v>
    <v>       0.50026250       0.99934750       0.74886500 </v>
    <v>       0.62540000       0.74901500       0.12581000 </v>
    <v>       0.50026250       0.99988250       0.49990500 </v>
    <v>       0.62536500       0.12434000       0.75012000 </v>
    <v>       0.37452500       0.75102500       0.62470000 </v>
    <v>       0.87450750       0.87506750       0.99982500 </v>
    <v>       0.75015250       0.87515750       0.87466500 </v>
    <v>       0.62555250       0.87560250       0.74861500 </v>
    <v>       0.49996250       0.87589750       0.62593500 </v>
    <v>       0.62545500       0.75032500       0.62460000 </v>
    <v>       0.74970750       0.99909250       0.74996500 </v>
    <v>       0.62461750       0.62555250       0.24886500 </v>
    <v>       0.62463250       0.99969250       0.62599500 </v>
    <v>       0.75001500       0.87515000       0.62596000 </v>
    <v>       0.74971750       0.75013750       0.50129500 </v>
    <v>       0.49985750       0.87477250       0.37470500 </v>
    <v>       0.75026250       0.74934750       0.24886500 </v>
    <v>       0.87540000       0.49901500       0.62581000 </v>
    <v>       0.75026250       0.74988250       0.99990500 </v>
    <v>       0.87536500       0.87434000       0.25012000 </v>
    <v>       0.62452500       0.50102500       0.12470000 </v>
    <v>       0.12450750       0.62506750       0.49982500 </v>
    <v>       0.00015250       0.62515750       0.37466500 </v>
    <v>       0.87555250       0.62560250       0.24861500 </v>
    <v>       0.74996250       0.62589750       0.12593500 </v>
    <v>       0.87545500       0.50032500       0.12460000 </v>
    <v>       0.99970750       0.74909250       0.24996500 </v>
    <v>       0.87461750       0.37555250       0.74886500 </v>
    <v>       0.87463250       0.74969250       0.12599500 </v>
    <v>       0.00001500       0.62515000       0.12596000 </v>
    <v>       0.99971750       0.50013750       0.00129500 </v>
    <v>       0.74985750       0.62477250       0.87470500 </v>
    <v>       0.00026250       0.99934750       0.74886500 </v>
    <v>       0.12540000       0.74901500       0.12581000 </v>
    <v>       0.00026250       0.99988250       0.49990500 </v>
    <v>       0.12536500       0.12434000       0.75012000 </v>
    <v>       0.87452500       0.75102500       0.62470000 </v>
    <v>       0.37450750       0.87506750       0.99982500 </v>
    <v>       0.25015250       0.87515750       0.87466500 </v>
    <v>       0.12555250       0.87560250       0.74861500 </v>
    <v>       0.99996250       0.87589750       0.62593500 </v>
    <v>       0.12545500       0.75032500       0.62460000 </v>
    <v>       0.24970750       0.99909250       0.74996500 </v>
    <v>       0.12461750       0.62555250       0.24886500 </v>
    <v>       0.12463500       0.99969000       0.62600000 </v>
    <v>       0.25001250       0.87514750       0.62596500 </v>
    <v>       0.24971750       0.75013750       0.50129500 </v>
    <v>       0.99985750       0.87477250       0.37470500 </v>
   </varray>
  </structure>
  <varray name="forces" >
   <v>       0.01457432       0.00585167       0.00695684 </v>
   <v>      -0.00553860      -0.00203677       0.00072639 </v>
   <v>       0.01052113       0.00475462      -0.00066524 </v>
   <v>       0.00318142       0.00082672      -0.00396140 </v>
   <v>       0.00871363       0.00368845      -0.00274034 </v>
   <v>      -0.00079537      -0.00351367      -0.00017579 </v>
   <v>      -0.00450685      -0.00231061      -0.00420301 </v>
   <v>      -0.00499399       0.00590142      -0.00033944 </v>
   <v>      -0.00860232       0.00082465      -0.00739808 </v>
   <v>       0.00609191      -0.00289826      -0.00334356 </v>
   <v>      -0.00333072      -0.00227249       0.00485025 </v>
   <v>      -0.00489956      -0.00270937       0.00239418 </v>
   <v>      -0.00208368      -0.00575851       0.00852587 </v>
   <v>      -0.00586310      -0.00002461      -0.00200072 </v>
   <v>       0.00522250       0.00095497      -0.00414156 </v>
   <v>       0.00169014      -0.00259321       0.00027144 </v>
   <v>       0.01048688       0.00204282       0.00061847 </v>
   <v>      -0.00526804      -0.00085351       0.00074370 </v>
   <v>       0.01502917       0.00235436       0.00566071 </v>
   <v>      -0.00105117       0.00533148       0.00247695 </v>
   <v>       0.00827553       0.00129404      -0.00332470 </v>
   <v>      -0.00070440      -0.00364278      -0.00561133 </v>
   <v>      -0.00478845      -0.00217591      -0.00630601 </v>
   <v>      -0.00527897       0.02337198       0.01962197 </v>
   <v>      -0.00911640       0.00041093      -0.00782270 </v>
   <v>       0.00533662      -0.00124736      -0.00185088 </v>
   <v>      -0.00391415      -0.00127002       0.03467728 </v>
   <v>      -0.00514392      -0.00287462       0.00169664 </v>
   <v>      -0.00071627      -0.00596138       0.00812632 </v>
   <v>      -0.00465645       0.00063528      -0.00091474 </v>
   <v>       0.00507799       0.00163718      -0.00467090 </v>
   <v>       0.00278092      -0.00196515      -0.00134217 </v>
   <v>       0.01413219      -0.00148968       0.00679680 </v>
   <v>      -0.00562137      -0.00265141       0.00086601 </v>
   <v>       0.01461224       0.00020784       0.00553858 </v>
   <v>       0.00222418       0.00096602      -0.00389994 </v>
   <v>       0.00865752       0.00336691      -0.00259269 </v>
   <v>      -0.00110506      -0.00357847       0.00040056 </v>
   <v>      -0.00316615      -0.00157583      -0.00606353 </v>
   <v>      -0.00515359       0.00577425       0.00096832 </v>
   <v>      -0.00716486       0.00011638      -0.00838347 </v>
   <v>       0.00065308      -0.00605018       0.00921124 </v>
   <v>      -0.00350718      -0.00257815       0.00495202 </v>
   <v>      -0.06280870      -0.00420421       0.04693911 </v>
   <v>       0.00342739      -0.00375607       0.01524527 </v>
   <v>      -0.00556642       0.00147961      -0.00136525 </v>
   <v>      -0.00027271       0.00219414      -0.56487917 </v>
   <v>       0.00189372      -0.00108190       0.00013187 </v>
   <v>       0.00912838       0.00350432      -0.00059108 </v>
   <v>      -0.00553083      -0.00252488       0.00111218 </v>
   <v>       0.01062325       0.00425935       0.00020457 </v>
   <v>       0.00252570       0.00074484      -0.00382801 </v>
   <v>       0.00875815       0.00286358      -0.00346505 </v>
   <v>      -0.00091955      -0.00371206       0.00006082 </v>
   <v>      -0.00465463      -0.00196979      -0.00433996 </v>
   <v>      -0.00497852       0.00576381       0.00104697 </v>
   <v>      -0.00837949       0.00071272      -0.00726235 </v>
   <v>       0.00458274       0.00032385      -0.00336952 </v>
   <v>      -0.00320893      -0.00232825       0.00367754 </v>
   <v>      -0.00532546      -0.00248639       0.00253643 </v>
   <v>      -0.00163354      -0.00576141       0.00934874 </v>
   <v>      -0.00541150       0.00027071       0.00027240 </v>
   <v>       0.00408294       0.00111975      -0.01647808 </v>
   <v>       0.00231503      -0.00197879       0.00111297 </v>
   <v>       0.01216999       0.00219104       0.00117269 </v>
   <v>      -0.00530852       0.04943739       0.04196172 </v>
   <v>       0.00995144       0.00500319      -0.00104200 </v>
   <v>      -0.00128601      -0.00349661       0.00257018 </v>
   <v>       0.00859838      -0.04026442       0.03487097 </v>
   <v>      -0.00098811      -0.00350253      -0.00801740 </v>
   <v>      -0.00522462      -0.00176545      -0.00559248 </v>
   <v>      -0.00433308      -0.00595326       0.01241438 </v>
   <v>      -0.00872859       0.00059415      -0.00892883 </v>
   <v>       0.00588835      -0.00087287      -0.00330500 </v>
   <v>      -0.00342495      -0.00240576       0.00626907 </v>
   <v>      -0.00541648      -0.00200664       0.00115412 </v>
   <v>      -0.00147437      -0.00599390       0.00937793 </v>
   <v>      -0.00578625       0.00010539       0.00003053 </v>
   <v>       0.00424476       0.00128943      -0.00525000 </v>
   <v>       0.00169379      -0.00210803       0.00106476 </v>
   <v>       0.01016823       0.00199042       0.00076329 </v>
   <v>      -0.00553803       0.00138492       0.00434322 </v>
   <v>       0.01294849       0.00456431      -0.00197156 </v>
   <v>       0.00334150       0.00227067      -0.00591620 </v>
   <v>       0.00868932      -0.00128778       0.00129595 </v>
   <v>      -0.00178373      -0.00306546      -0.00395857 </v>
   <v>      -0.00463608      -0.00222671      -0.00379461 </v>
   <v>      -0.00519163      -0.01112176       0.01929109 </v>
   <v>      -0.00876418       0.00067615      -0.00733086 </v>
   <v>       0.00514923      -0.00139587      -0.00213457 </v>
   <v>      -0.00349409      -0.00331956       0.03627063 </v>
   <v>      -0.00593990      -0.00240337       0.00260501 </v>
   <v>       0.00213807      -0.00139280       0.01529885 </v>
   <v>      -0.00675984       0.00091572      -0.00088092 </v>
   <v>       0.00424605       0.00102369      -0.00529726 </v>
   <v>       0.05531157      -0.00293124       0.04101523 </v>
   <v>       0.00923671       0.00066164      -0.00083329 </v>
   <v>      -0.00559770      -0.00175996       0.00178062 </v>
   <v>       0.01124378       0.00516312      -0.00160054 </v>
   <v>       0.00137294       0.00053274      -0.00199993 </v>
   <v>       0.00845820       0.00347700      -0.00282647 </v>
   <v>      -0.00095758      -0.00335014       0.00081657 </v>
   <v>      -0.00573139      -0.00213291      -0.00588189 </v>
   <v>      -0.00466063       0.00603799      -0.00784639 </v>
   <v>      -0.00934199       0.00038732      -0.00797742 </v>
   <v>       0.00951023       0.00289455       0.00791742 </v>
   <v>      -0.00327128      -0.00236800       0.00343973 </v>
   <v>      -0.00690378      -0.00179498       0.00051373 </v>
   <v>      -0.00029538      -0.00619248       0.00759390 </v>
   <v>      -0.00564743       0.00039143      -0.00006766 </v>
   <v>       0.00529981       0.00089219      -0.00187982 </v>
   <v>       0.00263646      -0.00155831       0.00134187 </v>
   <v>       0.01479787       0.00247020       0.00523422 </v>
[...]
       <r>     9.7477   244.6488  2303.1720 </r>
       <r>     9.7943   224.8910  2313.6509 </r>
       <r>     9.8409   219.2368  2323.8663 </r>
       <r>     9.8875   235.5970  2334.8440 </r>
       <r>     9.9341   262.9806  2347.0976 </r>
       <r>     9.9807   293.8319  2360.7888 </r>
       <r>    10.0273   326.1502  2375.9859 </r>
       <r>    10.0738   348.7523  2392.2361 </r>
       <r>    10.1204   347.0168  2408.4054 </r>
       <r>    10.1670   324.8241  2423.5407 </r>
       <r>    10.2136   310.1599  2437.9927 </r>
       <r>    10.2602   327.6319  2453.2588 </r>
       <r>    10.3068   384.2789  2471.1644 </r>
       <r>    10.3534   463.5838  2492.7652 </r>
       <r>    10.4000   517.8184  2516.8931 </r>
       <r>    10.4466   510.7463  2540.6915 </r>
       <r>    10.4932   453.3134  2561.8138 </r>
       <r>    10.5398   376.9765  2579.3791 </r>
       <r>    10.5864   304.6430  2593.5740 </r>
       <r>    10.6330   249.8192  2605.2144 </r>
       <r>    10.6796   213.4563  2615.1605 </r>
       <r>    10.7262   182.0046  2623.6410 </r>
       <r>    10.7728   143.3618  2630.3210 </r>
       <r>    10.8194    98.6319  2634.9168 </r>
       <r>    10.8660    57.7016  2637.6054 </r>
       <r>    10.9126    28.3855  2638.9281 </r>
       <r>    10.9592    11.3079  2639.4550 </r>
       <r>    11.0058     3.5523  2639.6205 </r>
       <r>    11.0523     1.5989  2639.6950 </r>
       <r>    11.0989     1.7753  2639.7777 </r>
       <r>    11.1455     1.5652  2639.8506 </r>
       <r>    11.1921     0.6789  2639.8823 </r>
       <r>    11.2387     0.0207  2639.8832 </r>
       <r>    11.2853    -0.1119  2639.8780 </r>
       <r>    11.3319    -0.0516  2639.8756 </r>
       <r>    11.3785    -0.0115  2639.8751 </r>
       <r>    11.4251    -0.0035  2639.8749 </r>
       <r>    11.4717    -0.0129  2639.8743 </r>
       <r>    11.5183    -0.0420  2639.8723 </r>
       <r>    11.5649    -0.0368  2639.8706 </r>
       <r>    11.6115     0.1951  2639.8797 </r>
       <r>    11.6581     0.7101  2639.9128 </r>
       <r>    11.7047     1.0264  2639.9606 </r>
       <r>    11.7513     0.7285  2639.9946 </r>
       <r>    11.7979     0.2095  2640.0043 </r>
       <r>    11.8445    -0.0339  2640.0028 </r>
       <r>    11.8911    -0.0431  2640.0007 </r>
       <r>    11.9377    -0.0135  2640.0001 </r>
       <r>    11.9843    -0.0022  2640.0000 </r>
       <r>    12.0308    -0.0002  2640.0000 </r>
       <r>    12.0774    -0.0000  2640.0000 </r>
       <r>    12.1240    -0.0000  2640.0000 </r>
       <r>    12.1706    -0.0000  2640.0000 </r>
       <r>    12.2172    -0.0000  2640.0000 </r>
       <r>    12.2638    -0.0000  2640.0000 </r>
       <r>    12.3104    -0.0000  2640.0000 </r>
       <r>    12.3570     0.0000  2640.0000 </r>
       <r>    12.4036     0.0000  2640.0000 </r>
       <r>    12.4502     0.0000  2640.0000 </r>
       <r>    12.4968     0.0000  2640.0000 </r>
       <r>    12.5434     0.0000  2640.0000 </r>
       <r>    12.5900     0.0000  2640.0000 </r>
       <r>    12.6366     0.0000  2640.0000 </r>
       <r>    12.6832     0.0000  2640.0000 </r>
      </set>
     </set>
    </array>
   </total>
  </dos>
 </calculation>
 <structure name="finalpos" >
  <crystal>
   <varray name="basis" >
    <v>       0.00188000      15.37080000       0.00140000 </v>
    <v>       0.00152000      -0.00140000     -15.37218000 </v>
    <v>     -15.37636000      -0.00188000       0.00151000 </v>
   </varray>
   <i name="volume">   3633.16780401 </i>
   <varray name="rec_basis" >
    <v>      -0.00000795       0.06505842      -0.00000593 </v>
    <v>      -0.00000639       0.00000593      -0.06505258 </v>
    <v>      -0.06503490       0.00000795      -0.00000643 </v>
   </varray>
  </crystal>
  <varray name="positions" >
   <v>       0.12544250       0.12495750       0.00137500 </v>
   <v>       0.25023500       0.87425500       0.37476000 </v>
   <v>       0.50095250       0.12407750       0.62474500 </v>
   <v>       0.37553250       0.12507750       0.50016500 </v>
   <v>       0.24973750       0.12571750       0.37459500 </v>
   <v>       0.37600500       0.00007500       0.37466000 </v>
   <v>       0.25039000       0.00088000       0.24854000 </v>
   <v>       0.37534750       0.24987750       0.37305500 </v>
   <v>       0.49970000       0.00076500       0.24985000 </v>
   <v>       0.25027250       0.00022250       0.00012500 </v>
   <v>       0.62466750       0.24912250       0.37463500 </v>
   <v>       0.37446000       0.12498500       0.00162000 </v>
   <v>       0.49907250       0.37499750       0.12491500 </v>
   <v>       0.49965250       0.24988250       0.00137500 </v>
   <v>       0.37398000       0.25085000       0.87599000 </v>
   <v>       0.62457250       0.37420750       0.24977500 </v>
   <v>       0.37544250       0.37495750       0.50137500 </v>
   <v>       0.50023500       0.12425500       0.87476000 </v>
   <v>       0.75095250       0.37407750       0.12474500 </v>
   <v>       0.62553250       0.37507750       0.00016500 </v>
   <v>       0.49973750       0.37571750       0.87459500 </v>
   <v>       0.62600500       0.25007500       0.87466000 </v>
   <v>       0.50039000       0.25088000       0.74854000 </v>
   <v>       0.62534750       0.49987750       0.87305500 </v>
   <v>       0.74970000       0.25076500       0.74985000 </v>
   <v>       0.50027250       0.25022250       0.50012500 </v>
   <v>       0.87466750       0.49912250       0.87463500 </v>
   <v>       0.62446000       0.37498500       0.50162000 </v>
   <v>       0.74907250       0.62499750       0.62491500 </v>
   <v>       0.74965250       0.49988250       0.50137500 </v>
   <v>       0.62398000       0.50085000       0.37599000 </v>
   <v>       0.87457250       0.62420750       0.74977500 </v>
   <v>       0.62544250       0.12495750       0.00137500 </v>
   <v>       0.75023500       0.87425500       0.37476000 </v>
   <v>       0.00095250       0.12407750       0.62474500 </v>
   <v>       0.87553250       0.12507750       0.50016500 </v>
   <v>       0.74973750       0.12571750       0.37459500 </v>
   <v>       0.87600500       0.00007500       0.37466000 </v>
   <v>       0.75039000       0.00088000       0.24854000 </v>
   <v>       0.87534750       0.24987750       0.37305500 </v>
   <v>       0.99970000       0.00076500       0.24985000 </v>
   <v>       0.75027250       0.00022250       0.00012500 </v>
   <v>       0.12466750       0.24912250       0.37463500 </v>
   <v>       0.87445750       0.12498750       0.00161500 </v>
   <v>       0.99907250       0.37499750       0.12491500 </v>
   <v>       0.99965250       0.24988250       0.00137500 </v>
   <v>       0.87397750       0.24824750       0.87598500 </v>
   <v>       0.12457250       0.37420750       0.24977500 </v>
   <v>       0.12544250       0.62495750       0.00137500 </v>
   <v>       0.25023500       0.37425500       0.37476000 </v>
   <v>       0.50095250       0.62407750       0.62474500 </v>
   <v>       0.37553250       0.62507750       0.50016500 </v>
   <v>       0.24973750       0.62571750       0.37459500 </v>
   <v>       0.37600500       0.50007500       0.37466000 </v>
   <v>       0.25039000       0.50088000       0.24854000 </v>
   <v>       0.37534750       0.74987750       0.37305500 </v>
   <v>       0.49970000       0.50076500       0.24985000 </v>
   <v>       0.25027250       0.50022250       0.00012500 </v>
   <v>       0.62466750       0.74912250       0.37463500 </v>
   <v>       0.37446000       0.62498500       0.00162000 </v>
   <v>       0.49907250       0.87499750       0.12491500 </v>
   <v>       0.49965250       0.74988250       0.00137500 </v>
   <v>       0.37397750       0.75084750       0.87598500 </v>
   <v>       0.62457250       0.87420750       0.24977500 </v>
   <v>       0.87544250       0.37495750       0.50137500 </v>
   <v>       0.00023500       0.12425500       0.87476000 </v>
   <v>       0.25095250       0.37407750       0.12474500 </v>
   <v>       0.12553250       0.37507750       0.00016500 </v>
   <v>       0.99973750       0.37571750       0.87459500 </v>
   <v>       0.12600500       0.25007500       0.87466000 </v>
   <v>       0.00039000       0.25088000       0.74854000 </v>
   <v>       0.12534750       0.49987750       0.87305500 </v>
   <v>       0.24970000       0.25076500       0.74985000 </v>
   <v>       0.00027250       0.25022250       0.50012500 </v>
   <v>       0.37466750       0.49912250       0.87463500 </v>
   <v>       0.12446000       0.37498500       0.50162000 </v>
   <v>       0.24907250       0.62499750       0.62491500 </v>
   <v>       0.24965250       0.49988250       0.50137500 </v>
   <v>       0.12397750       0.50084750       0.37598500 </v>
   <v>       0.37457250       0.62420750       0.74977500 </v>
   <v>       0.37544250       0.87495750       0.50137500 </v>
   <v>       0.50023500       0.62425500       0.87476000 </v>
   <v>       0.75095250       0.87407750       0.12474500 </v>
   <v>       0.62553250       0.87507750       0.00016500 </v>
   <v>       0.49973750       0.87571750       0.87459500 </v>
   <v>       0.62600250       0.75007250       0.87465500 </v>
   <v>       0.50039000       0.75088000       0.74854000 </v>
   <v>       0.62534750       0.99987750       0.87305500 </v>
   <v>       0.74970000       0.75076500       0.74985000 </v>
   <v>       0.50027250       0.75022250       0.50012500 </v>
   <v>       0.87466750       0.99912250       0.87463500 </v>
   <v>       0.62446000       0.87498500       0.50162000 </v>
   <v>       0.74907250       0.12499750       0.62491500 </v>
   <v>       0.74965250       0.99988250       0.50137500 </v>
   <v>       0.62397750       0.00084750       0.37598500 </v>
   <v>       0.87457250       0.12420750       0.74977500 </v>
   <v>       0.62544250       0.62495750       0.00137500 </v>
   <v>       0.75023500       0.37425500       0.37476000 </v>
   <v>       0.00095250       0.62407750       0.62474500 </v>
   <v>       0.87553250       0.62507750       0.50016500 </v>
   <v>       0.74973750       0.62571750       0.37459500 </v>
   <v>       0.87600500       0.50007500       0.37466000 </v>
   <v>       0.75039000       0.50088000       0.24854000 </v>
   <v>       0.87534750       0.74987750       0.37305500 </v>
   <v>       0.99970000       0.50076500       0.24985000 </v>
   <v>       0.75027250       0.50022250       0.00012500 </v>
   <v>       0.12466750       0.74912250       0.37463500 </v>
   <v>       0.87445750       0.62498750       0.00161500 </v>
   <v>       0.99907250       0.87499750       0.12491500 </v>
   <v>       0.99965250       0.74988250       0.00137500 </v>
   <v>       0.87398000       0.75085000       0.87599000 </v>
   <v>       0.12457250       0.87420750       0.24977500 </v>
   <v>       0.87544250       0.87495750       0.50137500 </v>
   <v>       0.00023500       0.62425500       0.87476000 </v>
   <v>       0.25095000       0.87407500       0.12474000 </v>
   <v>       0.12553250       0.87507750       0.00016500 </v>
   <v>       0.99973750       0.87571750       0.87459500 </v>
   <v>       0.12600250       0.75007250       0.87465500 </v>
   <v>       0.00039000       0.75088000       0.74854000 </v>
   <v>       0.12534750       0.99987750       0.87305500 </v>
   <v>       0.24970000       0.75076500       0.74985000 </v>
   <v>       0.00027250       0.75022250       0.50012500 </v>
   <v>       0.37466750       0.99912250       0.87463500 </v>
   <v>       0.12446000       0.87498500       0.50162000 </v>
   <v>       0.24907250       0.12499750       0.62491500 </v>
   <v>       0.24965250       0.99988250       0.50137500 </v>
   <v>       0.12397750       0.00084750       0.37598500 </v>
   <v>       0.37457250       0.12420750       0.74977500 </v>
   <v>       0.25026250       0.24934750       0.24886500 </v>
   <v>       0.37540000       0.99901500       0.62581000 </v>
   <v>       0.25026250       0.24988250       0.99990500 </v>
   <v>       0.37536500       0.37434000       0.25012000 </v>
   <v>       0.12452500       0.00102500       0.12470000 </v>
   <v>       0.62450750       0.12506750       0.49982500 </v>
   <v>       0.50015250       0.12515750       0.37466500 </v>
   <v>       0.37555250       0.12560250       0.24861500 </v>
   <v>       0.24996250       0.12589750       0.12593500 </v>
   <v>       0.37545500       0.00032500       0.12460000 </v>
   <v>       0.49970750       0.24909250       0.24996500 </v>
   <v>       0.37461750       0.87555250       0.74886500 </v>
   <v>       0.37463500       0.24969000       0.12600000 </v>
   <v>       0.50001500       0.12515000       0.12596000 </v>
   <v>       0.49971750       0.00013750       0.00129500 </v>
   <v>       0.24985750       0.12477250       0.87470500 </v>
   <v>       0.50026250       0.49934750       0.74886500 </v>
   <v>       0.62540000       0.24901500       0.12581000 </v>
   <v>       0.50026250       0.49988250       0.49990500 </v>
   <v>       0.62536500       0.62434000       0.75012000 </v>
   <v>       0.37452500       0.25102500       0.62470000 </v>
   <v>       0.87450750       0.37506750       0.99982500 </v>
   <v>       0.75015250       0.37515750       0.87466500 </v>
   <v>       0.62555250       0.37560250       0.74861500 </v>
   <v>       0.49996250       0.37589750       0.62593500 </v>
   <v>       0.62545500       0.25032500       0.62460000 </v>
   <v>       0.74970750       0.49909250       0.74996500 </v>
   <v>       0.62461750       0.12555250       0.24886500 </v>
   <v>       0.62463250       0.49969250       0.62599500 </v>
   <v>       0.75001500       0.37515000       0.62596000 </v>
   <v>       0.74971750       0.25013750       0.50129500 </v>
   <v>       0.49985750       0.37477250       0.37470500 </v>
   <v>       0.75026250       0.24934750       0.24886500 </v>
   <v>       0.87540000       0.99901500       0.62581000 </v>
   <v>       0.75026250       0.24988250       0.99990500 </v>
   <v>       0.87536500       0.37434000       0.25012000 </v>
   <v>       0.62452500       0.00102500       0.12470000 </v>
   <v>       0.12450750       0.12506750       0.49982500 </v>
   <v>       0.00015250       0.12515750       0.37466500 </v>
   <v>       0.87555250       0.12560250       0.24861500 </v>
   <v>       0.74996250       0.12589750       0.12593500 </v>
   <v>       0.87545500       0.00032500       0.12460000 </v>
   <v>       0.99970750       0.24909250       0.24996500 </v>
   <v>       0.87461750       0.87555250       0.74886500 </v>
   <v>       0.87463250       0.24969250       0.12599500 </v>
   <v>       0.00001500       0.12515000       0.12596000 </v>
   <v>       0.99971750       0.00013750       0.00129500 </v>
   <v>       0.74985750       0.12477250       0.87470500 </v>
   <v>       0.25026250       0.74934750       0.24886500 </v>
   <v>       0.37540000       0.49901500       0.62581000 </v>
   <v>       0.25026250       0.74988250       0.99990500 </v>
   <v>       0.37536500       0.87434000       0.25012000 </v>
   <v>       0.12452500       0.50102500       0.12470000 </v>
   <v>       0.62450750       0.62506750       0.49982500 </v>
   <v>       0.50015250       0.62515750       0.37466500 </v>
   <v>       0.37555250       0.62560250       0.24861500 </v>
   <v>       0.24996250       0.62589750       0.12593500 </v>
   <v>       0.37545500       0.50032500       0.12460000 </v>
   <v>       0.49970750       0.74909250       0.24996500 </v>
   <v>       0.37461750       0.37555250       0.74886500 </v>
   <v>       0.37463500       0.74969000       0.12600000 </v>
   <v>       0.50001500       0.62515000       0.12596000 </v>
   <v>       0.49971750       0.50013750       0.00129500 </v>
   <v>       0.24985750       0.62477250       0.87470500 </v>
   <v>       0.00026250       0.49934750       0.74886500 </v>
   <v>       0.12540000       0.24901500       0.12581000 </v>
   <v>       0.00026250       0.49988250       0.49990500 </v>
   <v>       0.12536500       0.62434000       0.75012000 </v>
   <v>       0.87452500       0.25102500       0.62470000 </v>
   <v>       0.37450750       0.37506750       0.99982500 </v>
   <v>       0.25015250       0.37515750       0.87466500 </v>
   <v>       0.12555250       0.37560250       0.74861500 </v>
   <v>       0.99996250       0.37589750       0.62593500 </v>
   <v>       0.12545500       0.25032500       0.62460000 </v>
   <v>       0.24970750       0.49909250       0.74996500 </v>
   <v>       0.12461750       0.12555250       0.24886500 </v>
   <v>       0.12463250       0.49969250       0.62599500 </v>
   <v>       0.25001500       0.37515000       0.62596000 </v>
   <v>       0.24971750       0.25013750       0.50129500 </v>
   <v>       0.99985750       0.37477250       0.37470500 </v>
   <v>       0.50026250       0.99934750       0.74886500 </v>
   <v>       0.62540000       0.74901500       0.12581000 </v>
   <v>       0.50026250       0.99988250       0.49990500 </v>
   <v>       0.62536500       0.12434000       0.75012000 </v>
   <v>       0.37452500       0.75102500       0.62470000 </v>
   <v>       0.87450750       0.87506750       0.99982500 </v>
   <v>       0.75015250       0.87515750       0.87466500 </v>
   <v>       0.62555250       0.87560250       0.74861500 </v>
   <v>       0.49996250       0.87589750       0.62593500 </v>
   <v>       0.62545500       0.75032500       0.62460000 </v>
   <v>       0.74970750       0.99909250       0.74996500 </v>
   <v>       0.62461750       0.62555250       0.24886500 </v>
   <v>       0.62463250       0.99969250       0.62599500 </v>
   <v>       0.75001500       0.87515000       0.62596000 </v>
   <v>       0.74971750       0.75013750       0.50129500 </v>
   <v>       0.49985750       0.87477250       0.37470500 </v>
   <v>       0.75026250       0.74934750       0.24886500 </v>
   <v>       0.87540000       0.49901500       0.62581000 </v>
   <v>       0.75026250       0.74988250       0.99990500 </v>
   <v>       0.87536500       0.87434000       0.25012000 </v>
   <v>       0.62452500       0.50102500       0.12470000 </v>
   <v>       0.12450750       0.62506750       0.49982500 </v>
   <v>       0.00015250       0.62515750       0.37466500 </v>
   <v>       0.87555250       0.62560250       0.24861500 </v>
   <v>       0.74996250       0.62589750       0.12593500 </v>
   <v>       0.87545500       0.50032500       0.12460000 </v>
   <v>       0.99970750       0.74909250       0.24996500 </v>
   <v>       0.87461750       0.37555250       0.74886500 </v>
   <v>       0.87463250       0.74969250       0.12599500 </v>
   <v>       0.00001500       0.62515000       0.12596000 </v>
   <v>       0.99971750       0.50013750       0.00129500 </v>
   <v>       0.74985750       0.62477250       0.87470500 </v>
   <v>       0.00026250       0.99934750       0.74886500 </v>
   <v>       0.12540000       0.74901500       0.12581000 </v>
   <v>       0.00026250       0.99988250       0.49990500 </v>
   <v>       0.12536500       0.12434000       0.75012000 </v>
   <v>       0.87452500       0.75102500       0.62470000 </v>
   <v>       0.37450750       0.87506750       0.99982500 </v>
   <v>       0.25015250       0.87515750       0.87466500 </v>
   <v>       0.12555250       0.87560250       0.74861500 </v>
   <v>       0.99996250       0.87589750       0.62593500 </v>
   <v>       0.12545500       0.75032500       0.62460000 </v>
   <v>       0.24970750       0.99909250       0.74996500 </v>
   <v>       0.12461750       0.62555250       0.24886500 </v>
   <v>       0.12463500       0.99969000       0.62600000 </v>
   <v>       0.25001250       0.87514750       0.62596500 </v>
   <v>       0.24971750       0.75013750       0.50129500 </v>
   <v>       0.99985750       0.87477250       0.37470500 </v>
  </varray>
 </structure>
</modeling>
