 256 256   0   0
  0.1419206E+02  0.1537080E-08  0.1537218E-08  0.1537636E-08  0.5000000E-15
  1.000000000000000E-004
  CAR 
 Ir_Ru                                   
     12.68907567     -1.29521619  301      9.24214111      1.00000000
     -1.295  0.0000E+00  0.0000E+00
     -1.249  0.0000E+00  0.0000E+00
     -1.202  0.0000E+00  0.0000E+00
     -1.155  0.0000E+00  0.0000E+00
     -1.109 -0.2775E-28 -0.1293E-29
     -1.062 -0.4147E-25 -0.1934E-26
     -1.016 -0.3996E-22 -0.1865E-23
     -0.969 -0.2484E-19 -0.1160E-20
     -0.922 -0.9963E-17 -0.4656E-18
     -0.876 -0.2502E-14 -0.1171E-15
     -0.829 -0.4148E-12 -0.1945E-13
     -0.782 -0.4430E-10 -0.2085E-11
     -0.736 -0.3048E-08 -0.1442E-09
     -0.689 -0.1352E-06 -0.6444E-08
     -0.643 -0.3870E-05 -0.1868E-06
     -0.596 -0.7173E-04 -0.3530E-05
     -0.549 -0.8631E-03 -0.4376E-04
     -0.503 -0.6744E-02 -0.3581E-03
     -0.456 -0.3381E-01 -0.1934E-02
     -0.410 -0.1025E+00 -0.6713E-02
     -0.363 -0.1373E+00 -0.1311E-01
     -0.316  0.2288E+00 -0.2449E-02
     -0.270  0.1521E+01  0.6847E-01
     -0.223  0.3553E+01  0.2341E+00
     -0.176  0.5078E+01  0.4708E+00
     -0.130  0.5739E+01  0.7383E+00
     -0.083  0.7348E+01  0.1081E+01
     -0.037  0.1022E+02  0.1557E+01
      0.010  0.1101E+02  0.2070E+01
      0.057  0.9136E+01  0.2496E+01
      0.103  0.9407E+01  0.2935E+01
      0.150  0.1319E+02  0.3550E+01
      0.196  0.1593E+02  0.4292E+01
      0.243  0.1605E+02  0.5040E+01
      0.290  0.1675E+02  0.5821E+01
      0.336  0.1851E+02  0.6684E+01
      0.383  0.1833E+02  0.7538E+01
      0.430  0.1744E+02  0.8351E+01
      0.476  0.1986E+02  0.9277E+01
      0.523  0.2341E+02  0.1037E+02
      0.569  0.2405E+02  0.1149E+02
      0.616  0.2225E+02  0.1253E+02
      0.663  0.1867E+02  0.1340E+02
      0.709  0.1402E+02  0.1405E+02
      0.756  0.1112E+02  0.1457E+02
      0.802  0.1072E+02  0.1507E+02
      0.849  0.1114E+02  0.1559E+02
      0.896  0.1217E+02  0.1615E+02
      0.942  0.1467E+02  0.1684E+02
      0.989  0.1838E+02  0.1770E+02
      1.035  0.2294E+02  0.1876E+02
      1.082  0.2815E+02  0.2008E+02
      1.129  0.3128E+02  0.2153E+02
      1.175  0.2969E+02  0.2292E+02
      1.222  0.2584E+02  0.2412E+02
      1.269  0.2301E+02  0.2520E+02
      1.315  0.2092E+02  0.2617E+02
      1.362  0.2002E+02  0.2710E+02
      1.408  0.2166E+02  0.2811E+02
      1.455  0.2411E+02  0.2924E+02
      1.502  0.2567E+02  0.3043E+02
      1.548  0.2900E+02  0.3179E+02
      1.595  0.3515E+02  0.3342E+02
      1.641  0.3875E+02  0.3523E+02
      1.688  0.3787E+02  0.3700E+02
      1.735  0.3935E+02  0.3883E+02
      1.781  0.4560E+02  0.4096E+02
      1.828  0.4934E+02  0.4326E+02
      1.875  0.4778E+02  0.4548E+02
      1.921  0.4732E+02  0.4769E+02
      1.968  0.5098E+02  0.5007E+02
      2.014  0.5413E+02  0.5259E+02
      2.061  0.5550E+02  0.5518E+02
      2.108  0.6152E+02  0.5804E+02
      2.154  0.7483E+02  0.6153E+02
      2.201  0.8969E+02  0.6571E+02
      2.247  0.1034E+03  0.7054E+02
      2.294  0.1181E+03  0.7604E+02
      2.341  0.1312E+03  0.8216E+02
      2.387  0.1384E+03  0.8861E+02
      2.434  0.1434E+03  0.9529E+02
      2.481  0.1526E+03  0.1024E+03
      2.527  0.1611E+03  0.1099E+03
      2.574  0.1616E+03  0.1174E+03
      2.620  0.1614E+03  0.1250E+03
      2.667  0.1692E+03  0.1329E+03
      2.714  0.1786E+03  0.1412E+03
      2.760  0.1850E+03  0.1498E+03
      2.807  0.1982E+03  0.1590E+03
      2.853  0.2235E+03  0.1695E+03
      2.900  0.2479E+03  0.1810E+03
      2.947  0.2562E+03  0.1930E+03
      2.993  0.2495E+03  0.2046E+03
      3.040  0.2470E+03  0.2161E+03
      3.087  0.2628E+03  0.2284E+03
      3.133  0.2871E+03  0.2417E+03
      3.180  0.3013E+03  0.2558E+03
      3.226  0.3037E+03  0.2699E+03
      3.273  0.3049E+03  0.2842E+03
      3.320  0.3083E+03  0.2985E+03
      3.366  0.3110E+03  0.3130E+03
      3.413  0.3144E+03  0.3277E+03
      3.459  0.3219E+03  0.3427E+03
      3.506  0.3337E+03  0.3582E+03
      3.553  0.3442E+03  0.3743E+03
      3.599  0.3468E+03  0.3904E+03
      3.646  0.3447E+03  0.4065E+03
      3.693  0.3487E+03  0.4228E+03
      3.739  0.3577E+03  0.4394E+03
      3.786  0.3592E+03  0.4562E+03
      3.832  0.3521E+03  0.4726E+03
      3.879  0.3478E+03  0.4888E+03
      3.926  0.3498E+03  0.5051E+03
      3.972  0.3506E+03  0.5215E+03
      4.019  0.3411E+03  0.5374E+03
      4.065  0.3223E+03  0.5524E+03
      4.112  0.3064E+03  0.5667E+03
      4.159  0.2974E+03  0.5805E+03
      4.205  0.2871E+03  0.5939E+03
      4.252  0.2707E+03  0.6065E+03
      4.299  0.2532E+03  0.6183E+03
      4.345  0.2426E+03  0.6296E+03
      4.392  0.2456E+03  0.6411E+03
      4.438  0.2581E+03  0.6531E+03
      4.485  0.2615E+03  0.6653E+03
      4.532  0.2503E+03  0.6770E+03
      4.578  0.2479E+03  0.6885E+03
      4.625  0.2680E+03  0.7010E+03
      4.671  0.2925E+03  0.7147E+03
      4.718  0.3070E+03  0.7290E+03
      4.765  0.3137E+03  0.7436E+03
      4.811  0.3133E+03  0.7582E+03
      4.858  0.3045E+03  0.7724E+03
      4.904  0.2897E+03  0.7859E+03
      4.951  0.2784E+03  0.7989E+03
      4.998  0.2816E+03  0.8120E+03
      5.044  0.2957E+03  0.8258E+03
      5.091  0.3080E+03  0.8401E+03
      5.138  0.3089E+03  0.8545E+03
      5.184  0.2972E+03  0.8684E+03
      5.231  0.2855E+03  0.8817E+03
      5.277  0.2846E+03  0.8950E+03
      5.324  0.2906E+03  0.9085E+03
      5.371  0.2975E+03  0.9224E+03
      5.417  0.3020E+03  0.9365E+03
      5.464  0.2985E+03  0.9504E+03
      5.510  0.2885E+03  0.9638E+03
      5.557  0.2870E+03  0.9772E+03
      5.604  0.3036E+03  0.9913E+03
      5.650  0.3220E+03  0.1006E+04
      5.697  0.3251E+03  0.1022E+04
      5.744  0.3200E+03  0.1036E+04
      5.790  0.3201E+03  0.1051E+04
      5.837  0.3267E+03  0.1067E+04
      5.883  0.3373E+03  0.1082E+04
      5.930  0.3507E+03  0.1099E+04
      5.977  0.3659E+03  0.1116E+04
      6.023  0.3794E+03  0.1133E+04
      6.070  0.3857E+03  0.1151E+04
      6.116  0.3877E+03  0.1169E+04
      6.163  0.3919E+03  0.1188E+04
      6.210  0.3989E+03  0.1206E+04
      6.256  0.4101E+03  0.1225E+04
      6.303  0.4281E+03  0.1245E+04
      6.350  0.4473E+03  0.1266E+04
      6.396  0.4576E+03  0.1288E+04
      6.443  0.4570E+03  0.1309E+04
      6.489  0.4530E+03  0.1330E+04
      6.536  0.4498E+03  0.1351E+04
      6.583  0.4452E+03  0.1372E+04
      6.629  0.4387E+03  0.1392E+04
      6.676  0.4314E+03  0.1412E+04
      6.722  0.4244E+03  0.1432E+04
      6.769  0.4165E+03  0.1451E+04
      6.816  0.4006E+03  0.1470E+04
      6.862  0.3755E+03  0.1488E+04
      6.909  0.3535E+03  0.1504E+04
      6.956  0.3440E+03  0.1520E+04
      7.002  0.3389E+03  0.1536E+04
      7.049  0.3270E+03  0.1551E+04
      7.095  0.3143E+03  0.1566E+04
      7.142  0.3136E+03  0.1580E+04
      7.189  0.3195E+03  0.1595E+04
      7.235  0.3126E+03  0.1610E+04
      7.282  0.2859E+03  0.1623E+04
      7.328  0.2546E+03  0.1635E+04
      7.375  0.2400E+03  0.1646E+04
      7.422  0.2496E+03  0.1658E+04
      7.468  0.2723E+03  0.1671E+04
      7.515  0.2847E+03  0.1684E+04
      7.562  0.2756E+03  0.1697E+04
      7.608  0.2577E+03  0.1709E+04
      7.655  0.2482E+03  0.1720E+04
      7.701  0.2582E+03  0.1732E+04
      7.748  0.2843E+03  0.1746E+04
      7.795  0.3061E+03  0.1760E+04
      7.841  0.3119E+03  0.1774E+04
      7.888  0.3085E+03  0.1789E+04
      7.934  0.3028E+03  0.1803E+04
      7.981  0.2958E+03  0.1817E+04
      8.028  0.2911E+03  0.1830E+04
      8.074  0.2964E+03  0.1844E+04
      8.121  0.3099E+03  0.1859E+04
      8.167  0.3171E+03  0.1873E+04
      8.214  0.3179E+03  0.1888E+04
      8.261  0.3310E+03  0.1904E+04
      8.307  0.3548E+03  0.1920E+04
      8.354  0.3619E+03  0.1937E+04
      8.401  0.3379E+03  0.1953E+04
      8.447  0.2978E+03  0.1967E+04
      8.494  0.2656E+03  0.1979E+04
      8.540  0.2558E+03  0.1991E+04
      8.587  0.2723E+03  0.2004E+04
      8.634  0.2966E+03  0.2017E+04
      8.680  0.2998E+03  0.2031E+04
      8.727  0.2831E+03  0.2045E+04
      8.773  0.2669E+03  0.2057E+04
      8.820  0.2563E+03  0.2069E+04
      8.867  0.2485E+03  0.2081E+04
      8.913  0.2449E+03  0.2092E+04
      8.960  0.2454E+03  0.2103E+04
      9.007  0.2543E+03  0.2115E+04
      9.053  0.2747E+03  0.2128E+04
      9.100  0.2838E+03  0.2141E+04
      9.146  0.2645E+03  0.2154E+04
      9.193  0.2397E+03  0.2165E+04
      9.240  0.2278E+03  0.2175E+04
      9.286  0.2194E+03  0.2186E+04
      9.333  0.2138E+03  0.2196E+04
      9.379  0.2229E+03  0.2206E+04
      9.426  0.2438E+03  0.2217E+04
      9.473  0.2632E+03  0.2230E+04
      9.519  0.2740E+03  0.2242E+04
      9.566  0.2773E+03  0.2255E+04
      9.613  0.2760E+03  0.2268E+04
      9.659  0.2705E+03  0.2281E+04
      9.706  0.2602E+03  0.2293E+04
      9.752  0.2426E+03  0.2304E+04
      9.799  0.2234E+03  0.2315E+04
      9.846  0.2200E+03  0.2325E+04
      9.892  0.2381E+03  0.2336E+04
      9.939  0.2660E+03  0.2348E+04
      9.985  0.2973E+03  0.2362E+04
     10.032  0.3293E+03  0.2378E+04
     10.079  0.3499E+03  0.2394E+04
     10.125  0.3454E+03  0.2410E+04
     10.172  0.3225E+03  0.2425E+04
     10.219  0.3103E+03  0.2440E+04
     10.265  0.3318E+03  0.2455E+04
     10.312  0.3923E+03  0.2473E+04
     10.358  0.4715E+03  0.2495E+04
     10.405  0.5201E+03  0.2520E+04
     10.452  0.5064E+03  0.2543E+04
     10.498  0.4455E+03  0.2564E+04
     10.545  0.3686E+03  0.2581E+04
     10.591  0.2977E+03  0.2595E+04
     10.638  0.2452E+03  0.2606E+04
     10.685  0.2103E+03  0.2616E+04
     10.731  0.1784E+03  0.2624E+04
     10.778  0.1388E+03  0.2631E+04
     10.825  0.9401E+02  0.2635E+04
     10.871  0.5388E+02  0.2638E+04
     10.918  0.2563E+02  0.2639E+04
     10.964  0.9695E+01  0.2639E+04
     11.011  0.2928E+01  0.2640E+04
     11.058  0.1486E+01  0.2640E+04
     11.104  0.1775E+01  0.2640E+04
     11.151  0.1519E+01  0.2640E+04
     11.197  0.6059E+00  0.2640E+04
     11.244 -0.1289E-01  0.2640E+04
     11.291 -0.1104E+00  0.2640E+04
     11.337 -0.4571E-01  0.2640E+04
     11.384 -0.9519E-02  0.2640E+04
     11.430 -0.3409E-02  0.2640E+04
     11.477 -0.1404E-01  0.2640E+04
     11.524 -0.4361E-01  0.2640E+04
     11.570 -0.3142E-01  0.2640E+04
     11.617  0.2185E+00  0.2640E+04
     11.664  0.7377E+00  0.2640E+04
     11.710  0.1024E+01  0.2640E+04
     11.757  0.6987E+00  0.2640E+04
     11.803  0.1881E+00  0.2640E+04
     11.850 -0.3765E-01  0.2640E+04
     11.897 -0.4126E-01  0.2640E+04
     11.943 -0.1247E-01  0.2640E+04
     11.990 -0.1981E-02  0.2640E+04
     12.036 -0.1853E-03  0.2640E+04
     12.083 -0.1064E-04  0.2640E+04
     12.130 -0.3823E-06  0.2640E+04
     12.176 -0.8691E-08  0.2640E+04
     12.223 -0.1259E-09  0.2640E+04
     12.270 -0.1166E-11  0.2640E+04
     12.316 -0.7145E-14  0.2640E+04
     12.363  0.0000E+00  0.2640E+04
     12.409  0.0000E+00  0.2640E+04
     12.456  0.0000E+00  0.2640E+04
     12.503  0.0000E+00  0.2640E+04
     12.549  0.0000E+00  0.2640E+04
     12.596  0.0000E+00  0.2640E+04
     12.642  0.0000E+00  0.2640E+04
     12.689  0.0000E+00  0.2640E+04
