 256 256   0   0
  0.1418917E+02  0.1588033E-08  0.1692661E-08  0.1693229E-08  0.5000000E-15
  1.000000000000000E-004
  CAR 
 Ir_Ru                                   
     14.26681711     -1.29184494  301      9.45704073      1.00000000
     -1.292  0.0000E+00  0.0000E+00
     -1.240  0.0000E+00  0.0000E+00
     -1.188  0.0000E+00  0.0000E+00
     -1.136 -0.2755E-30 -0.1429E-31
     -1.084 -0.1258E-26 -0.6524E-28
     -1.033 -0.3339E-23 -0.1732E-24
     -0.981 -0.5149E-20 -0.2672E-21
     -0.929 -0.4612E-17 -0.2394E-18
     -0.877 -0.2336E-14 -0.1214E-15
     -0.825 -0.6961E-12 -0.3622E-13
     -0.773 -0.1202E-09 -0.6271E-11
     -0.721 -0.1195E-07 -0.6261E-09
     -0.669 -0.6812E-06 -0.3595E-07
     -0.618 -0.2214E-04 -0.1184E-05
     -0.566 -0.4071E-03 -0.2230E-04
     -0.514 -0.4197E-02 -0.2399E-03
     -0.462 -0.2399E-01 -0.1484E-02
     -0.410 -0.7462E-01 -0.5354E-02
     -0.358 -0.1024E+00 -0.1067E-01
     -0.306  0.1986E+00 -0.3688E-03
     -0.255  0.1615E+01  0.8340E-01
     -0.203  0.4366E+01  0.3099E+00
     -0.151  0.6345E+01  0.6389E+00
     -0.099  0.6424E+01  0.9721E+00
     -0.047  0.6944E+01  0.1332E+01
      0.005  0.8828E+01  0.1790E+01
      0.057  0.1115E+02  0.2368E+01
      0.108  0.1358E+02  0.3072E+01
      0.160  0.1436E+02  0.3817E+01
      0.212  0.1175E+02  0.4427E+01
      0.264  0.1005E+02  0.4948E+01
      0.316  0.1415E+02  0.5682E+01
      0.368  0.2026E+02  0.6732E+01
      0.420  0.2251E+02  0.7900E+01
      0.471  0.2269E+02  0.9076E+01
      0.523  0.2350E+02  0.1030E+02
      0.575  0.2256E+02  0.1147E+02
      0.627  0.2045E+02  0.1253E+02
      0.679  0.2096E+02  0.1361E+02
      0.731  0.2045E+02  0.1467E+02
      0.783  0.1476E+02  0.1544E+02
      0.835  0.8970E+01  0.1590E+02
      0.886  0.8005E+01  0.1632E+02
      0.938  0.1160E+02  0.1692E+02
      0.990  0.1873E+02  0.1789E+02
      1.042  0.2766E+02  0.1933E+02
      1.094  0.3327E+02  0.2105E+02
      1.146  0.3312E+02  0.2277E+02
      1.198  0.2896E+02  0.2427E+02
      1.249  0.2298E+02  0.2546E+02
      1.301  0.1950E+02  0.2648E+02
      1.353  0.2154E+02  0.2759E+02
      1.405  0.2702E+02  0.2899E+02
      1.457  0.3034E+02  0.3057E+02
      1.509  0.2989E+02  0.3212E+02
      1.561  0.2932E+02  0.3364E+02
      1.612  0.3035E+02  0.3521E+02
      1.664  0.3110E+02  0.3683E+02
      1.716  0.3197E+02  0.3848E+02
      1.768  0.3488E+02  0.4029E+02
      1.820  0.3891E+02  0.4231E+02
      1.872  0.4516E+02  0.4465E+02
      1.924  0.5433E+02  0.4747E+02
      1.975  0.5937E+02  0.5055E+02
      2.027  0.5507E+02  0.5341E+02
      2.079  0.5045E+02  0.5602E+02
      2.131  0.6065E+02  0.5917E+02
      2.183  0.8563E+02  0.6361E+02
      2.235  0.1080E+03  0.6921E+02
      2.287  0.1194E+03  0.7540E+02
      2.339  0.1256E+03  0.8191E+02
      2.390  0.1313E+03  0.8872E+02
      2.442  0.1372E+03  0.9584E+02
      2.494  0.1465E+03  0.1034E+03
      2.546  0.1634E+03  0.1119E+03
      2.598  0.1821E+03  0.1214E+03
      2.650  0.1944E+03  0.1314E+03
      2.702  0.2060E+03  0.1421E+03
      2.753  0.2229E+03  0.1537E+03
      2.805  0.2308E+03  0.1656E+03
      2.857  0.2248E+03  0.1773E+03
      2.909  0.2271E+03  0.1891E+03
      2.961  0.2443E+03  0.2018E+03
      3.013  0.2577E+03  0.2151E+03
      3.065  0.2602E+03  0.2286E+03
      3.116  0.2606E+03  0.2421E+03
      3.168  0.2637E+03  0.2558E+03
      3.220  0.2722E+03  0.2699E+03
      3.272  0.2871E+03  0.2848E+03
      3.324  0.3064E+03  0.3007E+03
      3.376  0.3238E+03  0.3175E+03
      3.428  0.3308E+03  0.3347E+03
      3.479  0.3280E+03  0.3517E+03
      3.531  0.3216E+03  0.3683E+03
      3.583  0.3182E+03  0.3849E+03
      3.635  0.3167E+03  0.4013E+03
      3.687  0.3112E+03  0.4174E+03
      3.739  0.3053E+03  0.4332E+03
      3.791  0.3013E+03  0.4489E+03
      3.843  0.2970E+03  0.4643E+03
      3.894  0.2933E+03  0.4795E+03
      3.946  0.2891E+03  0.4945E+03
      3.998  0.2772E+03  0.5089E+03
      4.050  0.2667E+03  0.5227E+03
      4.102  0.2746E+03  0.5369E+03
      4.154  0.2931E+03  0.5521E+03
      4.206  0.3025E+03  0.5678E+03
      4.257  0.3048E+03  0.5836E+03
      4.309  0.3115E+03  0.5998E+03
      4.361  0.3184E+03  0.6163E+03
      4.413  0.3211E+03  0.6329E+03
      4.465  0.3236E+03  0.6497E+03
      4.517  0.3215E+03  0.6664E+03
      4.569  0.3105E+03  0.6825E+03
      4.620  0.2978E+03  0.6980E+03
      4.672  0.2934E+03  0.7132E+03
      4.724  0.2978E+03  0.7286E+03
      4.776  0.3053E+03  0.7444E+03
      4.828  0.3168E+03  0.7609E+03
      4.880  0.3306E+03  0.7780E+03
      4.932  0.3374E+03  0.7955E+03
      4.983  0.3443E+03  0.8134E+03
      5.035  0.3574E+03  0.8319E+03
      5.087  0.3656E+03  0.8509E+03
      5.139  0.3647E+03  0.8698E+03
      5.191  0.3561E+03  0.8883E+03
      5.243  0.3365E+03  0.9057E+03
      5.295  0.3050E+03  0.9215E+03
      5.347  0.2646E+03  0.9352E+03
      5.398  0.2212E+03  0.9467E+03
      5.450  0.1863E+03  0.9564E+03
      5.502  0.1725E+03  0.9653E+03
      5.554  0.1871E+03  0.9750E+03
      5.606  0.2241E+03  0.9866E+03
      5.658  0.2719E+03  0.1001E+04
      5.710  0.3222E+03  0.1017E+04
      5.761  0.3651E+03  0.1036E+04
      5.813  0.3938E+03  0.1057E+04
      5.865  0.4097E+03  0.1078E+04
      5.917  0.4187E+03  0.1100E+04
      5.969  0.4252E+03  0.1122E+04
      6.021  0.4282E+03  0.1144E+04
      6.073  0.4178E+03  0.1166E+04
      6.124  0.3939E+03  0.1186E+04
      6.176  0.3731E+03  0.1205E+04
      6.228  0.3619E+03  0.1224E+04
      6.280  0.3558E+03  0.1243E+04
      6.332  0.3559E+03  0.1261E+04
      6.384  0.3679E+03  0.1280E+04
      6.436  0.3813E+03  0.1300E+04
      6.487  0.3840E+03  0.1320E+04
      6.539  0.3903E+03  0.1340E+04
      6.591  0.4082E+03  0.1361E+04
      6.643  0.4231E+03  0.1383E+04
      6.695  0.4280E+03  0.1405E+04
      6.747  0.4258E+03  0.1428E+04
      6.799  0.4147E+03  0.1449E+04
      6.851  0.3942E+03  0.1470E+04
      6.902  0.3747E+03  0.1489E+04
      6.954  0.3668E+03  0.1508E+04
      7.006  0.3638E+03  0.1527E+04
      7.058  0.3667E+03  0.1546E+04
      7.110  0.3885E+03  0.1566E+04
      7.162  0.4132E+03  0.1587E+04
      7.214  0.4220E+03  0.1609E+04
      7.265  0.4226E+03  0.1631E+04
      7.317  0.4151E+03  0.1653E+04
      7.369  0.3910E+03  0.1673E+04
      7.421  0.3613E+03  0.1692E+04
      7.473  0.3414E+03  0.1710E+04
      7.525  0.3329E+03  0.1727E+04
      7.577  0.3293E+03  0.1744E+04
      7.628  0.3188E+03  0.1760E+04
      7.680  0.2980E+03  0.1776E+04
      7.732  0.2789E+03  0.1790E+04
      7.784  0.2693E+03  0.1804E+04
      7.836  0.2641E+03  0.1818E+04
      7.888  0.2583E+03  0.1831E+04
      7.940  0.2494E+03  0.1844E+04
      7.991  0.2430E+03  0.1857E+04
      8.043  0.2432E+03  0.1870E+04
      8.095  0.2400E+03  0.1882E+04
      8.147  0.2320E+03  0.1894E+04
      8.199  0.2288E+03  0.1906E+04
      8.251  0.2328E+03  0.1918E+04
      8.303  0.2374E+03  0.1930E+04
      8.355  0.2391E+03  0.1943E+04
      8.406  0.2374E+03  0.1955E+04
      8.458  0.2299E+03  0.1967E+04
      8.510  0.2194E+03  0.1978E+04
      8.562  0.2126E+03  0.1989E+04
      8.614  0.2077E+03  0.2000E+04
      8.666  0.2007E+03  0.2010E+04
      8.718  0.1924E+03  0.2020E+04
      8.769  0.1840E+03  0.2030E+04
      8.821  0.1794E+03  0.2039E+04
      8.873  0.1863E+03  0.2049E+04
      8.925  0.2098E+03  0.2060E+04
      8.977  0.2339E+03  0.2072E+04
      9.029  0.2373E+03  0.2084E+04
      9.081  0.2252E+03  0.2096E+04
      9.132  0.2086E+03  0.2107E+04
      9.184  0.1891E+03  0.2117E+04
      9.236  0.1786E+03  0.2126E+04
      9.288  0.1940E+03  0.2136E+04
      9.340  0.2252E+03  0.2148E+04
      9.392  0.2424E+03  0.2160E+04
      9.444  0.2429E+03  0.2173E+04
      9.495  0.2445E+03  0.2185E+04
      9.547  0.2448E+03  0.2198E+04
      9.599  0.2451E+03  0.2211E+04
      9.651  0.2695E+03  0.2225E+04
      9.703  0.3129E+03  0.2241E+04
      9.755  0.3352E+03  0.2258E+04
      9.807  0.3280E+03  0.2275E+04
      9.859  0.3173E+03  0.2292E+04
      9.910  0.3151E+03  0.2308E+04
      9.962  0.3203E+03  0.2325E+04
     10.014  0.3393E+03  0.2342E+04
     10.066  0.3750E+03  0.2362E+04
     10.118  0.4097E+03  0.2383E+04
     10.170  0.4273E+03  0.2405E+04
     10.222  0.4352E+03  0.2428E+04
     10.273  0.4468E+03  0.2451E+04
     10.325  0.4647E+03  0.2475E+04
     10.377  0.4840E+03  0.2500E+04
     10.429  0.4967E+03  0.2526E+04
     10.481  0.4926E+03  0.2552E+04
     10.533  0.4591E+03  0.2575E+04
     10.585  0.4002E+03  0.2596E+04
     10.636  0.3323E+03  0.2613E+04
     10.688  0.2514E+03  0.2626E+04
     10.740  0.1519E+03  0.2634E+04
     10.792  0.5944E+02  0.2637E+04
     10.844  0.7215E+01  0.2638E+04
     10.896 -0.5456E+01  0.2637E+04
     10.948 -0.3144E+01  0.2637E+04
     10.999 -0.7817E+00  0.2637E+04
     11.051 -0.1138E+00  0.2637E+04
     11.103 -0.1072E-01  0.2637E+04
     11.155 -0.6746E-03  0.2637E+04
     11.207 -0.2785E-04  0.2637E+04
     11.259 -0.7237E-06  0.2637E+04
     11.311 -0.1142E-07  0.2637E+04
     11.363 -0.1071E-09  0.2637E+04
     11.414 -0.7272E-12  0.2637E+04
     11.466 -0.3134E-10  0.2637E+04
     11.518 -0.4085E-08  0.2637E+04
     11.570 -0.3076E-06  0.2637E+04
     11.622 -0.1330E-04  0.2637E+04
     11.674 -0.3271E-03  0.2637E+04
     11.726 -0.4480E-02  0.2637E+04
     11.777 -0.3253E-01  0.2637E+04
     11.829 -0.1069E+00  0.2637E+04
     11.881 -0.1880E-01  0.2637E+04
     11.933  0.8309E+00  0.2637E+04
     11.985  0.2209E+01  0.2637E+04
     12.037  0.2370E+01  0.2637E+04
     12.089  0.1113E+01  0.2638E+04
     12.140  0.5657E+00  0.2638E+04
     12.192  0.1362E+01  0.2638E+04
     12.244  0.2126E+01  0.2638E+04
     12.296  0.2277E+01  0.2638E+04
     12.348  0.2277E+01  0.2638E+04
     12.400  0.2597E+01  0.2638E+04
     12.452  0.2746E+01  0.2638E+04
     12.504  0.2186E+01  0.2638E+04
     12.555  0.2066E+01  0.2638E+04
     12.607  0.2527E+01  0.2639E+04
     12.659  0.3044E+01  0.2639E+04
     12.711  0.3898E+01  0.2639E+04
     12.763  0.3691E+01  0.2639E+04
     12.815  0.2232E+01  0.2639E+04
     12.867  0.1810E+01  0.2639E+04
     12.918  0.2401E+01  0.2640E+04
     12.970  0.2205E+01  0.2640E+04
     13.022  0.1386E+01  0.2640E+04
     13.074  0.8959E+00  0.2640E+04
     13.126  0.6779E+00  0.2640E+04
     13.178  0.8507E+00  0.2640E+04
     13.230  0.1298E+01  0.2640E+04
     13.281  0.1306E+01  0.2640E+04
     13.333  0.7278E+00  0.2640E+04
     13.385  0.1430E+00  0.2640E+04
     13.437 -0.5316E-01  0.2640E+04
     13.489 -0.3433E-01  0.2640E+04
     13.541 -0.7289E-02  0.2640E+04
     13.593 -0.7624E-03  0.2640E+04
     13.644 -0.4286E-04  0.2640E+04
     13.696 -0.1340E-05  0.2640E+04
     13.748 -0.2370E-07  0.2640E+04
     13.800 -0.2393E-09  0.2640E+04
     13.852 -0.1389E-11  0.2640E+04
     13.904 -0.4757E-14  0.2640E+04
     13.956  0.0000E+00  0.2640E+04
     14.008  0.0000E+00  0.2640E+04
     14.059  0.0000E+00  0.2640E+04
     14.111  0.0000E+00  0.2640E+04
     14.163  0.0000E+00  0.2640E+04
     14.215  0.0000E+00  0.2640E+04
     14.267  0.0000E+00  0.2640E+04
