  64  64   0   0
  0.1414993E+02  0.8585648E-09  0.7680275E-09  0.1535408E-08  0.5000000E-15
  1.000000000000000E-004
  CAR 
 Ir_Ru                                   
     14.00684619     -1.21347529  301      9.17505893      1.00000000
     -1.213  0.0000E+00  0.0000E+00
     -1.163  0.0000E+00  0.0000E+00
     -1.112  0.0000E+00  0.0000E+00
     -1.061  0.0000E+00  0.0000E+00
     -1.011  0.0000E+00  0.0000E+00
     -0.960  0.0000E+00  0.0000E+00
     -0.909  0.0000E+00  0.0000E+00
     -0.858  0.0000E+00  0.0000E+00
     -0.808  0.0000E+00  0.0000E+00
     -0.757  0.0000E+00  0.0000E+00
     -0.706  0.0000E+00  0.0000E+00
     -0.655  0.0000E+00  0.0000E+00
     -0.605  0.0000E+00  0.0000E+00
     -0.554  0.0000E+00  0.0000E+00
     -0.503  0.0000E+00  0.0000E+00
     -0.452  0.0000E+00  0.0000E+00
     -0.402  0.0000E+00  0.0000E+00
     -0.351  0.0000E+00  0.0000E+00
     -0.300  0.0000E+00  0.0000E+00
     -0.250  0.0000E+00  0.0000E+00
     -0.199  0.4494E-01  0.2200E-03
     -0.148  0.8431E+00  0.1895E-01
     -0.097  0.2086E+01  0.9618E-01
     -0.047  0.1985E+01  0.2015E+00
      0.004  0.1849E+01  0.2953E+00
      0.055  0.1989E+01  0.3927E+00
      0.106  0.2116E+01  0.4970E+00
      0.156  0.2149E+01  0.6056E+00
      0.207  0.2139E+01  0.7143E+00
      0.258  0.2205E+01  0.8236E+00
      0.309  0.2623E+01  0.9445E+00
      0.359  0.3216E+01  0.1093E+01
      0.410  0.3698E+01  0.1269E+01
      0.461  0.5092E+01  0.1494E+01
      0.511  0.5110E+01  0.1757E+01
      0.562  0.5461E+01  0.2031E+01
      0.613  0.4998E+01  0.2296E+01
      0.664  0.3964E+01  0.2524E+01
      0.714  0.3681E+01  0.2711E+01
      0.765  0.4013E+01  0.2904E+01
      0.816  0.4651E+01  0.3124E+01
      0.867  0.4826E+01  0.3367E+01
      0.917  0.5794E+01  0.3635E+01
      0.968  0.4462E+01  0.3930E+01
      1.019  0.1184E+01  0.4041E+01
      1.070  0.2567E+01  0.4130E+01
      1.120  0.4071E+01  0.4290E+01
      1.171  0.6249E+01  0.4561E+01
      1.222  0.7758E+01  0.4934E+01
      1.273  0.7168E+01  0.5332E+01
      1.323  0.5040E+01  0.5627E+01
      1.374  0.5679E+01  0.5891E+01
      1.425  0.1096E+02  0.6310E+01
      1.475  0.7825E+01  0.6822E+01
      1.526  0.6449E+01  0.7188E+01
      1.577  0.6121E+01  0.7500E+01
      1.628  0.6791E+01  0.7832E+01
      1.678  0.7811E+01  0.8203E+01
      1.729  0.1130E+02  0.8662E+01
      1.780  0.1111E+02  0.9254E+01
      1.831  0.1011E+02  0.9793E+01
      1.881  0.1140E+02  0.1032E+02
      1.932  0.1323E+02  0.1095E+02
      1.983  0.1385E+02  0.1163E+02
      2.034  0.1663E+02  0.1241E+02
      2.084  0.1609E+02  0.1323E+02
      2.135  0.1952E+02  0.1415E+02
      2.186  0.1919E+02  0.1516E+02
      2.236  0.2016E+02  0.1604E+02
      2.287  0.2861E+02  0.1724E+02
      2.338  0.2799E+02  0.1885E+02
      2.389  0.1766E+02  0.2025E+02
      2.439  0.2669E+02  0.2182E+02
      2.490  0.3518E+02  0.2356E+02
      2.541  0.4100E+02  0.2547E+02
      2.592  0.3908E+02  0.2749E+02
      2.642  0.4219E+02  0.2950E+02
      2.693  0.3675E+02  0.3168E+02
      2.744  0.5406E+02  0.3394E+02
      2.795  0.5125E+02  0.3645E+02
      2.845  0.4952E+02  0.3899E+02
      2.896  0.5508E+02  0.4194E+02
      2.947  0.6375E+02  0.4501E+02
      2.997  0.6234E+02  0.4833E+02
      3.048  0.6621E+02  0.5160E+02
      3.099  0.7098E+02  0.5521E+02
      3.150  0.7464E+02  0.5879E+02
      3.200  0.7228E+02  0.6258E+02
      3.251  0.7897E+02  0.6659E+02
      3.302  0.8481E+02  0.7080E+02
      3.353  0.6873E+02  0.7503E+02
      3.403  0.7475E+02  0.7940E+02
      3.454  0.8429E+02  0.8379E+02
      3.505  0.1045E+03  0.8834E+02
      3.556  0.9022E+02  0.9311E+02
      3.606  0.9536E+02  0.9766E+02
      3.657  0.9494E+02  0.1026E+03
      3.708  0.1013E+03  0.1076E+03
      3.758  0.9187E+02  0.1124E+03
      3.809  0.8311E+02  0.1169E+03
      3.860  0.8250E+02  0.1211E+03
      3.911  0.9055E+02  0.1254E+03
      3.961  0.8261E+02  0.1298E+03
      4.012  0.8937E+02  0.1342E+03
      4.063  0.8128E+02  0.1385E+03
      4.114  0.7437E+02  0.1424E+03
      4.164  0.7144E+02  0.1462E+03
      4.215  0.6709E+02  0.1497E+03
      4.266  0.6791E+02  0.1531E+03
      4.317  0.6884E+02  0.1564E+03
      4.367  0.6194E+02  0.1597E+03
      4.418  0.6274E+02  0.1629E+03
      4.469  0.6962E+02  0.1663E+03
      4.520  0.6231E+02  0.1697E+03
      4.570  0.6002E+02  0.1729E+03
      4.621  0.6960E+02  0.1762E+03
      4.672  0.7034E+02  0.1799E+03
      4.722  0.7310E+02  0.1836E+03
      4.773  0.7413E+02  0.1872E+03
      4.824  0.7769E+02  0.1910E+03
      4.875  0.7880E+02  0.1950E+03
      4.925  0.7082E+02  0.1987E+03
      4.976  0.7722E+02  0.2023E+03
      5.027  0.7117E+02  0.2058E+03
      5.078  0.6764E+02  0.2097E+03
      5.128  0.7095E+02  0.2135E+03
      5.179  0.6881E+02  0.2172E+03
      5.230  0.5882E+02  0.2209E+03
      5.281  0.7554E+02  0.2243E+03
      5.331  0.6957E+02  0.2280E+03
      5.382  0.7108E+02  0.2316E+03
      5.433  0.7688E+02  0.2354E+03
      5.483  0.7472E+02  0.2394E+03
      5.534  0.7751E+02  0.2434E+03
      5.585  0.8170E+02  0.2473E+03
      5.636  0.8504E+02  0.2515E+03
      5.686  0.8304E+02  0.2558E+03
      5.737  0.8149E+02  0.2600E+03
      5.788  0.7926E+02  0.2640E+03
      5.839  0.8298E+02  0.2682E+03
      5.889  0.8205E+02  0.2724E+03
      5.940  0.7973E+02  0.2765E+03
      5.991  0.8526E+02  0.2807E+03
      6.042  0.9021E+02  0.2851E+03
      6.092  0.8577E+02  0.2896E+03
      6.143  0.9332E+02  0.2941E+03
      6.194  0.1004E+03  0.2990E+03
      6.244  0.1063E+03  0.3043E+03
      6.295  0.1067E+03  0.3097E+03
      6.346  0.1178E+03  0.3155E+03
      6.397  0.1151E+03  0.3215E+03
      6.447  0.1220E+03  0.3276E+03
      6.498  0.1225E+03  0.3337E+03
      6.549  0.1154E+03  0.3398E+03
      6.600  0.1152E+03  0.3458E+03
      6.650  0.1194E+03  0.3517E+03
      6.701  0.1123E+03  0.3576E+03
      6.752  0.9797E+02  0.3629E+03
      6.803  0.9653E+02  0.3678E+03
      6.853  0.9094E+02  0.3726E+03
      6.904  0.8837E+02  0.3773E+03
      6.955  0.7653E+02  0.3813E+03
      7.005  0.7876E+02  0.3852E+03
      7.056  0.8221E+02  0.3895E+03
      7.107  0.7407E+02  0.3933E+03
      7.158  0.7487E+02  0.3972E+03
      7.208  0.7341E+02  0.4010E+03
      7.259  0.7173E+02  0.4048E+03
      7.310  0.6898E+02  0.4083E+03
      7.361  0.6817E+02  0.4118E+03
      7.411  0.6848E+02  0.4152E+03
      7.462  0.6562E+02  0.4186E+03
      7.513  0.6509E+02  0.4219E+03
      7.564  0.6295E+02  0.4252E+03
      7.614  0.6273E+02  0.4284E+03
      7.665  0.6536E+02  0.4316E+03
      7.716  0.6974E+02  0.4350E+03
      7.767  0.7761E+02  0.4387E+03
      7.817  0.7258E+02  0.4425E+03
      7.868  0.7934E+02  0.4463E+03
      7.919  0.8115E+02  0.4503E+03
      7.969  0.8767E+02  0.4545E+03
      8.020  0.8920E+02  0.4589E+03
      8.071  0.8189E+02  0.4631E+03
      8.122  0.7801E+02  0.4672E+03
      8.172  0.6783E+02  0.4709E+03
      8.223  0.6852E+02  0.4744E+03
      8.274  0.7305E+02  0.4780E+03
      8.325  0.7735E+02  0.4818E+03
      8.375  0.7209E+02  0.4857E+03
      8.426  0.7753E+02  0.4895E+03
      8.477  0.7673E+02  0.4934E+03
      8.528  0.7575E+02  0.4972E+03
      8.578  0.7498E+02  0.5011E+03
      8.629  0.7094E+02  0.5048E+03
      8.680  0.6857E+02  0.5084E+03
      8.730  0.6612E+02  0.5118E+03
      8.781  0.7303E+02  0.5153E+03
      8.832  0.7056E+02  0.5190E+03
      8.883  0.6772E+02  0.5226E+03
      8.933  0.6387E+02  0.5259E+03
      8.984  0.5717E+02  0.5289E+03
      9.035  0.5437E+02  0.5317E+03
      9.086  0.5863E+02  0.5346E+03
      9.136  0.5964E+02  0.5376E+03
      9.187  0.6405E+02  0.5408E+03
      9.238  0.7116E+02  0.5442E+03
      9.289  0.6398E+02  0.5477E+03
      9.339  0.6042E+02  0.5509E+03
      9.390  0.5896E+02  0.5539E+03
      9.441  0.6446E+02  0.5570E+03
      9.491  0.7044E+02  0.5605E+03
      9.542  0.6789E+02  0.5640E+03
      9.593  0.6220E+02  0.5673E+03
      9.644  0.5767E+02  0.5703E+03
      9.694  0.5815E+02  0.5732E+03
      9.745  0.6302E+02  0.5762E+03
      9.796  0.6187E+02  0.5794E+03
      9.847  0.7309E+02  0.5828E+03
      9.897  0.8885E+02  0.5869E+03
      9.948  0.6663E+02  0.5910E+03
      9.999  0.7600E+02  0.5947E+03
     10.050  0.7615E+02  0.5986E+03
     10.100  0.8310E+02  0.6027E+03
     10.151  0.8368E+02  0.6069E+03
     10.202  0.9093E+02  0.6113E+03
     10.253  0.9590E+02  0.6162E+03
     10.303  0.1026E+03  0.6213E+03
     10.354  0.9826E+02  0.6265E+03
     10.405  0.1009E+03  0.6314E+03
     10.455  0.8219E+02  0.6361E+03
     10.506  0.6154E+02  0.6397E+03
     10.557  0.4717E+02  0.6425E+03
     10.608  0.3002E+02  0.6445E+03
     10.658  0.1980E+02  0.6458E+03
     10.709  0.7361E+01  0.6464E+03
     10.760  0.3936E+01  0.6467E+03
     10.811  0.2452E+01  0.6468E+03
     10.861  0.1881E+01  0.6469E+03
     10.912  0.1683E+01  0.6470E+03
     10.963  0.1542E+01  0.6471E+03
     11.014  0.1424E+01  0.6472E+03
     11.064  0.1324E+01  0.6473E+03
     11.115  0.1233E+01  0.6473E+03
     11.166  0.1147E+01  0.6474E+03
     11.216  0.1066E+01  0.6474E+03
     11.267  0.9898E+00  0.6475E+03
     11.318  0.9172E+00  0.6475E+03
     11.369  0.8479E+00  0.6476E+03
     11.419  0.7822E+00  0.6476E+03
     11.470  0.7198E+00  0.6477E+03
     11.521  0.6610E+00  0.6477E+03
     11.572  0.6055E+00  0.6477E+03
     11.622  0.5535E+00  0.6478E+03
     11.673  0.5049E+00  0.6478E+03
     11.724  0.4598E+00  0.6478E+03
     11.775  0.4183E+00  0.6478E+03
     11.825  0.3807E+00  0.6478E+03
     11.876  0.3465E+00  0.6479E+03
     11.927  0.3154E+00  0.6479E+03
     11.977  0.2871E+00  0.6479E+03
     12.028  0.2604E+00  0.6479E+03
     12.079  0.2350E+00  0.6479E+03
     12.130  0.2111E+00  0.6479E+03
     12.180  0.1885E+00  0.6479E+03
     12.231  0.1674E+00  0.6480E+03
     12.282  0.1477E+00  0.6480E+03
     12.333  0.1294E+00  0.6480E+03
     12.383  0.1124E+00  0.6480E+03
     12.434  0.9682E-01  0.6480E+03
     12.485  0.8210E-01  0.6480E+03
     12.536  0.6799E-01  0.6480E+03
     12.586  0.5485E-01  0.6480E+03
     12.637  0.4313E-01  0.6480E+03
     12.688  0.3241E-01  0.6480E+03
     12.738  0.2259E-01  0.6480E+03
     12.789  0.1481E-01  0.6480E+03
     12.840  0.8460E-02  0.6480E+03
     12.891  0.3852E-02  0.6480E+03
     12.941  0.1164E-02  0.6480E+03
     12.992  0.5869E-04  0.6480E+03
     13.043  0.0000E+00  0.6480E+03
     13.094  0.0000E+00  0.6480E+03
     13.144  0.0000E+00  0.6480E+03
     13.195  0.0000E+00  0.6480E+03
     13.246  0.0000E+00  0.6480E+03
     13.297  0.0000E+00  0.6480E+03
     13.347  0.0000E+00  0.6480E+03
     13.398  0.0000E+00  0.6480E+03
     13.449  0.0000E+00  0.6480E+03
     13.500  0.0000E+00  0.6480E+03
     13.550  0.0000E+00  0.6480E+03
     13.601  0.0000E+00  0.6480E+03
     13.652  0.0000E+00  0.6480E+03
     13.702  0.0000E+00  0.6480E+03
     13.753  0.0000E+00  0.6480E+03
     13.804  0.0000E+00  0.6480E+03
     13.855  0.0000E+00  0.6480E+03
     13.905  0.0000E+00  0.6480E+03
     13.956  0.0000E+00  0.6480E+03
     14.007  0.0000E+00  0.6480E+03
