 running on   64 total cores
 distrk:  each k-point on   64 cores,    1 groups
 distr:  one band on   16 cores,    4 groups
 using from now: INCAR     
 vasp.5.4.1 24Jun15 (build Dec 12 2017 15:24:27) complex                        
  
 POSCAR found :  2 types and      64 ions
 scaLAPACK will be used

 ----------------------------------------------------------------------------- 
|                                                                             |
|  ADVICE TO THIS USER RUNNING 'VASP/VAMP'   (HEAR YOUR MASTER'S VOICE ...):  |
|                                                                             |
|      You have a (more or less) 'large supercell' and for larger cells       |
|      it might be more efficient to use real space projection operators      |
|      So try LREAL= Auto  in the INCAR   file.                               |
|      Mind: If you want to do a very accurate calculations keep the          |
|      reciprocal projection scheme          (i.e. LREAL=.FALSE.)             |
|                                                                             |
 ----------------------------------------------------------------------------- 

 LDA part: xc-table for Pade appr. of Perdew
 POSCAR, INCAR and KPOINTS ok, starting setup
 FFT: planning ...
 WAVECAR not read
 entering main loop
       N       E                     dE             d eps       ncg     rms          rms(c)
RMM:   1     0.337020164861E+04    0.33702E+04   -0.11619E+05 24624   0.719E+02
RMM:   2     0.370551540021E+03   -0.29997E+04   -0.31783E+04 24624   0.252E+02
RMM:   3    -0.242443235544E+03   -0.61299E+03   -0.58614E+03 24624   0.110E+02
RMM:   4    -0.432740024421E+03   -0.19030E+03   -0.14288E+03 24624   0.760E+01
RMM:   5    -0.504608413485E+03   -0.71868E+02   -0.62745E+02 24624   0.460E+01
RMM:   6    -0.543188163853E+03   -0.38580E+02   -0.34109E+02 24624   0.361E+01
RMM:   7    -0.565050403631E+03   -0.21862E+02   -0.20510E+02 24624   0.255E+01
RMM:   8    -0.579070394703E+03   -0.14020E+02   -0.13080E+02 24624   0.214E+01
RMM:   9    -0.605062435864E+03   -0.25992E+02   -0.25612E+02 67468   0.159E+01
RMM:  10    -0.609507617842E+03   -0.44452E+01   -0.53126E+01 72365   0.360E+00
RMM:  11    -0.610597023114E+03   -0.10894E+01   -0.97074E+00 71683   0.111E+00
RMM:  12    -0.610840312582E+03   -0.24329E+00   -0.17518E+00 72700   0.364E-01    0.387E+01
RMM:  13    -0.600575613266E+03    0.10265E+02   -0.19908E+02 52254   0.266E+01    0.361E+01
RMM:  14    -0.605622373723E+03   -0.50468E+01   -0.11196E+02 58538   0.132E+01    0.408E+01
RMM:  15    -0.582693040329E+03    0.22929E+02   -0.91502E+01 55001   0.148E+01    0.267E+01
RMM:  16    -0.567687184297E+03    0.15006E+02   -0.24271E+01 51039   0.811E+00    0.936E+00
RMM:  17    -0.567008153714E+03    0.67903E+00   -0.74904E+00 62569   0.308E+00    0.593E+00
RMM:  18    -0.566583748876E+03    0.42440E+00   -0.21097E+00 68011   0.143E+00    0.311E+00
RMM:  19    -0.566443005699E+03    0.14074E+00   -0.52937E-01 59393   0.906E-01    0.211E+00
RMM:  20    -0.566368450517E+03    0.74555E-01   -0.18885E-01 53349   0.661E-01    0.119E+00
RMM:  21    -0.566377352086E+03   -0.89016E-02   -0.16200E-01 53212   0.636E-01    0.143E+00
RMM:  22    -0.566347126859E+03    0.30225E-01   -0.69117E-02 51962   0.428E-01    0.744E-01
RMM:  23    -0.566340591698E+03    0.65352E-02   -0.24056E-02 55580   0.210E-01    0.380E-01
RMM:  24    -0.566339750452E+03    0.84125E-03   -0.12507E-02 61979   0.130E-01    0.226E-01
RMM:  25    -0.566339531617E+03    0.21884E-03   -0.60904E-03 61529   0.923E-02    0.151E-01
RMM:  26    -0.566339456247E+03    0.75370E-04   -0.17669E-03 63984   0.421E-02    0.124E-01
RMM:  27    -0.566339206026E+03    0.25022E-03   -0.69486E-04 53448   0.413E-02    0.482E-02
RMM:  28    -0.566339213123E+03   -0.70971E-05   -0.37772E-04 65253   0.230E-02
   1 F= -.56633921E+03 E0= -.56634194E+03  d E =-.566339E+03
 curvature:   0.00 expect dE= 0.000E+00 dE for cont linesearch  0.000E+00
 trial: gam= 0.00000 g(F)=  0.695E-01 g(S)=  0.100E+03 ort = 0.000E+00 (trialstep = 0.100E+01)
 search vector abs. value=  0.101E+03
 bond charge predicted
       N       E                     dE             d eps       ncg     rms          rms(c)
RMM:   1    -0.960663023508E+03   -0.39432E+03   -0.23876E+04 49248   0.430E+02    0.112E+02
RMM:   2    -0.565096668323E+03    0.39557E+03   -0.37952E+02 49275   0.445E+01    0.720E+01
RMM:   3    -0.509922382032E+03    0.55174E+02   -0.46552E+02 50596   0.502E+01    0.537E+01
RMM:   4    -0.408316209676E+03    0.10161E+03   -0.33769E+02 49599   0.433E+01    0.302E+01
RMM:   5    -0.375048028442E+03    0.33268E+02   -0.73494E+01 49261   0.197E+01    0.117E+01
RMM:   6    -0.373808798044E+03    0.12392E+01   -0.91954E+00 50923   0.611E+00    0.696E+00
RMM:   7    -0.374211416667E+03   -0.40262E+00   -0.37463E+00 49251   0.558E+00    0.338E+00
RMM:   8    -0.375072862350E+03   -0.86145E+00   -0.19835E+00 49252   0.362E+00    0.376E+00
RMM:   9    -0.374723320952E+03    0.34954E+00   -0.94789E-01 49826   0.253E+00    0.149E+00
RMM:  10    -0.374678006435E+03    0.45315E-01   -0.37750E-01 51626   0.128E+00    0.594E-01
RMM:  11    -0.374682684567E+03   -0.46781E-02   -0.89153E-02 54278   0.522E-01    0.467E-01
RMM:  12    -0.374683525318E+03   -0.84075E-03   -0.14544E-02 49541   0.307E-01    0.190E-01
RMM:  13    -0.374685627814E+03   -0.21025E-02   -0.48599E-03 50478   0.149E-01    0.155E-01
RMM:  14    -0.374685215118E+03    0.41270E-03   -0.14103E-03 52769   0.736E-02    0.101E-01
RMM:  15    -0.374685017239E+03    0.19788E-03   -0.16360E-03 49290   0.118E-01    0.286E-02
RMM:  16    -0.374685056748E+03   -0.39509E-04   -0.29031E-04 56529   0.248E-02
   2 F= -.37468506E+03 E0= -.37468596E+03  d E =0.191654E+03
 trial-energy change:  191.654156  1 .order  247.954522 -100.502516  596.411561
 step:   0.2301(harm=  0.1442)  dis= 0.00227  next Energy=  -578.586271 (dE=-0.122E+02)
 bond charge predicted
       N       E                     dE             d eps       ncg     rms          rms(c)
RMM:   1    -0.934153712828E+03   -0.55947E+03   -0.14546E+04 49248   0.364E+02    0.955E+01
RMM:   2    -0.769661395010E+03    0.16449E+03   -0.86725E+02 49248   0.915E+01    0.767E+01
RMM:   3    -0.768183130648E+03    0.14783E+01   -0.46118E+02 58463   0.313E+01    0.679E+01
RMM:   4    -0.696288151022E+03    0.71895E+02   -0.33330E+02 49395   0.325E+01    0.660E+01
RMM:   5    -0.606728913809E+03    0.89559E+02   -0.15813E+02 49326   0.242E+01    0.344E+01
RMM:   6    -0.586855805010E+03    0.19873E+02   -0.51514E+01 49475   0.130E+01    0.167E+01
RMM:   7    -0.584452678083E+03    0.24031E+01   -0.18454E+01 60571   0.592E+00    0.127E+01
RMM:   8    -0.582036225838E+03    0.24165E+01   -0.81278E+00 54218   0.467E+00    0.757E+00
RMM:   9    -0.580958551034E+03    0.10777E+01   -0.36471E+00 49971   0.407E+00    0.377E+00
RMM:  10    -0.580774897597E+03    0.18365E+00   -0.15694E+00 59895   0.169E+00    0.338E+00
RMM:  11    -0.580467906672E+03    0.30699E+00   -0.10102E+00 52856   0.150E+00    0.205E+00
RMM:  12    -0.580430701475E+03    0.37205E-01   -0.26679E-01 58681   0.727E-01    0.154E+00
RMM:  13    -0.580392469656E+03    0.38232E-01   -0.10046E-01 50513   0.537E-01    0.622E-01
RMM:  14    -0.580389264428E+03    0.32052E-02   -0.42888E-02 61423   0.278E-01    0.285E-01
RMM:  15    -0.580390940961E+03   -0.16765E-02   -0.13169E-02 59604   0.152E-01    0.275E-01
RMM:  16    -0.580391319594E+03   -0.37863E-03   -0.50046E-03 52489   0.114E-01    0.169E-01
RMM:  17    -0.580391430399E+03   -0.11080E-03   -0.16530E-03 55136   0.607E-02    0.123E-01
RMM:  18    -0.580391346601E+03    0.83798E-04   -0.66004E-04 51435   0.498E-02
   3 F= -.58039135E+03 E0= -.58039428E+03  d E =-.140521E+02
 curvature:  -0.07 expect dE=-0.192E+00 dE for cont linesearch -0.183E+00
 ZBRENT: interpolating
 opt :   0.2503  next Energy=  -580.553481 (dE=-0.142E+02)
 bond charge predicted
       N       E                     dE             d eps       ncg     rms          rms(c)
RMM:   1    -0.580901621307E+03   -0.51019E+00   -0.10320E+01 49248   0.951E+00    0.251E+00
RMM:   2    -0.580726416186E+03    0.17521E+00   -0.34820E-01 49290   0.171E+00    0.172E+00
RMM:   3    -0.580829798982E+03   -0.10338E+00   -0.28938E-01 52688   0.822E-01    0.280E+00
RMM:   4    -0.580693482995E+03    0.13632E+00   -0.27643E-01 51014   0.943E-01    0.158E+00
RMM:   5    -0.580638145072E+03    0.55338E-01   -0.10587E-01 49717   0.642E-01    0.417E-01
RMM:   6    -0.580636304991E+03    0.18401E-02   -0.19364E-02 58926   0.186E-01    0.215E-01
RMM:   7    -0.580636043809E+03    0.26118E-03   -0.50847E-03 50700   0.153E-01    0.163E-01
RMM:   8    -0.580636107611E+03   -0.63802E-04   -0.18758E-03 52809   0.741E-02    0.144E-01
RMM:   9    -0.580635827586E+03    0.28003E-03   -0.65987E-04 52519   0.440E-02    0.775E-02
RMM:  10    -0.580635750007E+03    0.77579E-04   -0.45541E-04 52021   0.366E-02
   4 F= -.58063575E+03 E0= -.58063877E+03  d E =-.142965E+02
 curvature:  -0.06 expect dE=-0.461E-01 dE for cont linesearch -0.367E-01
 ZBRENT: interpolating
 opt :   0.2683  next Energy=  -580.705644 (dE=-0.144E+02)
 bond charge predicted
       N       E                     dE             d eps       ncg     rms          rms(c)
RMM:   1    -0.580906943010E+03   -0.27112E+00   -0.82179E+00 49248   0.853E+00    0.224E+00
RMM:   2    -0.580771183073E+03    0.13576E+00   -0.27978E-01 49286   0.154E+00    0.156E+00
RMM:   3    -0.580844547268E+03   -0.73364E-01   -0.21591E-01 52416   0.722E-01    0.243E+00
RMM:   4    -0.580741366869E+03    0.10318E+00   -0.21649E-01 50878   0.844E-01    0.137E+00
RMM:   5    -0.580698890449E+03    0.42476E-01   -0.83002E-02 49622   0.576E-01    0.364E-01
RMM:   6    -0.580697499945E+03    0.13905E-02   -0.14856E-02 58437   0.164E-01    0.190E-01
RMM:   7    -0.580697347809E+03    0.15214E-03   -0.37839E-03 50982   0.129E-01    0.147E-01
RMM:   8    -0.580697380427E+03   -0.32619E-04   -0.14380E-03 52491   0.671E-02    0.126E-01
RMM:   9    -0.580697187548E+03    0.19288E-03   -0.54511E-04 51810   0.428E-02    0.675E-02
RMM:  10    -0.580697142519E+03    0.45029E-04   -0.35164E-04 52254   0.319E-02
   5 F= -.58069714E+03 E0= -.58070024E+03  d E =-.143579E+02
 curvature:  -0.12 expect dE=-0.213E-01 dE for cont linesearch -0.233E-03
 ZBRENT: interpolating
 opt :   0.2674  next Energy=  -580.697360 (dE=-0.144E+02)
 bond charge predicted
       N       E                     dE             d eps       ncg     rms          rms(c)
RMM:   1    -0.580698451428E+03   -0.12639E-02   -0.29230E-02 49248   0.501E-01    0.128E-01
RMM:   2    -0.580698001177E+03    0.45025E-03   -0.10398E-03 49485   0.889E-02    0.888E-02
RMM:   3    -0.580698213137E+03   -0.21196E-03   -0.88952E-04 52878   0.474E-02    0.136E-01
RMM:   4    -0.580697958181E+03    0.25496E-03   -0.68509E-04 52019   0.439E-02    0.985E-02
RMM:   5    -0.580697748920E+03    0.20926E-03   -0.35986E-04 49583   0.377E-02    0.342E-02
RMM:   6    -0.580697726317E+03    0.22604E-04   -0.64955E-05 53017   0.127E-02
   6 F= -.58069773E+03 E0= -.58070082E+03  d E =-.143585E+02
 curvature:  -0.11 expect dE=-0.196E-01 dE for cont linesearch -0.667E-04
 ZBRENT: interpolating
 opt :   0.2662  next Energy=  -580.697876 (dE=-0.144E+02)
 bond charge predicted
       N       E                     dE             d eps       ncg     rms          rms(c)
RMM:   1    -0.580698789879E+03   -0.10410E-02   -0.36746E-02 49248   0.571E-01    0.147E-01
RMM:   2    -0.580698328341E+03    0.46154E-03   -0.13582E-03 49762   0.103E-01    0.132E-01
RMM:   3    -0.580698313485E+03    0.14856E-04   -0.72881E-04 52345   0.400E-02    0.135E-01
RMM:   4    -0.580698038897E+03    0.27459E-03   -0.10478E-03 49921   0.626E-02    0.954E-02
RMM:   5    -0.580697828610E+03    0.21029E-03   -0.37477E-04 49514   0.391E-02    0.332E-02
RMM:   6    -0.580697811774E+03    0.16836E-04   -0.65934E-05 54185   0.119E-02
   7 F= -.58069781E+03 E0= -.58070090E+03  d E =-.143586E+02
 curvature:  -0.25 expect dE=-0.435E-01 dE for cont linesearch -0.220E-03
 ZBRENT: interpolating
 opt :   0.2668  next Energy=  -580.697792 (dE=-0.144E+02)
 bond charge predicted
       N       E                     dE             d eps       ncg     rms          rms(c)
RMM:   1    -0.580698112218E+03   -0.28361E-03   -0.10612E-02 49248   0.306E-01    0.884E-02
RMM:   2    -0.580697935854E+03    0.17636E-03   -0.46858E-04 49297   0.621E-02    0.666E-02
RMM:   3    -0.580698031388E+03   -0.95534E-04   -0.35515E-04 52675   0.283E-02    0.940E-02
RMM:   4    -0.580697887896E+03    0.14349E-03   -0.33389E-04 50633   0.333E-02    0.544E-02
RMM:   5    -0.580697827297E+03    0.60599E-04   -0.12890E-04 49564   0.234E-02
   8 F= -.58069783E+03 E0= -.58070091E+03  d E =-.143586E+02
 curvature:  -0.08 expect dE=-0.130E-01 dE for cont linesearch -0.152E-04
 ZBRENT: bisectioning
 opt :   0.2665  next Energy=  -580.697864 (dE=-0.144E+02)
 bond charge predicted
       N       E                     dE             d eps       ncg     rms          rms(c)
RMM:   1    -0.580697927252E+03   -0.39356E-04   -0.27449E-03 49248   0.155E-01    0.448E-02
RMM:   2    -0.580697895850E+03    0.31401E-04   -0.13010E-04 49823   0.316E-02    0.436E-02
RMM:   3    -0.580697884149E+03    0.11701E-04   -0.72182E-05 52555   0.121E-02    0.392E-02
RMM:   4    -0.580697864913E+03    0.19237E-04   -0.10301E-04 50158   0.194E-02    0.308E-02
RMM:   5    -0.580697842512E+03    0.22400E-04   -0.35170E-05 49570   0.121E-02
   9 F= -.58069784E+03 E0= -.58070093E+03  d E =-.143586E+02
 curvature:  -0.18 expect dE=-0.310E-01 dE for cont linesearch -0.745E-05
 trial: gam= 0.00108 g(F)=  0.172E+00 g(S)=  0.962E-04 ort = 0.645E-01 (trialstep = 0.853E+00)
 search vector abs. value=  0.173E+00
 bond charge predicted
       N       E                     dE             d eps       ncg     rms          rms(c)
RMM:   1    -0.580747625329E+03   -0.49760E-01   -0.23540E+01 49248   0.699E+00    0.403E-01
RMM:   2    -0.580807989824E+03   -0.60364E-01   -0.48164E-01 54443   0.124E+00    0.101E+00
RMM:   3    -0.580795075572E+03    0.12914E-01   -0.54373E-02 61459   0.347E-01    0.532E-01
RMM:   4    -0.580792496839E+03    0.25787E-02   -0.68599E-03 58157   0.134E-01    0.379E-01
RMM:   5    -0.580791954523E+03    0.54232E-03   -0.12413E-03 62579   0.392E-02    0.352E-01
RMM:   6    -0.580791312356E+03    0.64217E-03   -0.33310E-03 53579   0.906E-02    0.323E-01
RMM:   7    -0.580791022885E+03    0.28947E-03   -0.52573E-03 52859   0.110E-01    0.279E-01
RMM:   8    -0.580789448389E+03    0.15745E-02   -0.23119E-03 54123   0.758E-02    0.117E-01
RMM:   9    -0.580789219967E+03    0.22842E-03   -0.73180E-04 53362   0.437E-02    0.497E-02
RMM:  10    -0.580789203484E+03    0.16484E-04   -0.31566E-04 61885   0.237E-02
  10 F= -.58078920E+03 E0= -.58079180E+03  d E =-.913610E-01
 trial-energy change:   -0.091361  1 .order   -0.091054   -0.147319   -0.034790
 step:   1.1171(harm=  1.1171)  dis= 0.01907  next Energy=  -580.794275 (dE=-0.964E-01)
 bond charge predicted
       N       E                     dE             d eps       ncg     rms          rms(c)
RMM:   1    -0.580790527326E+03   -0.13074E-02   -0.22467E+00 49248   0.216E+00    0.127E-01
RMM:   2    -0.580795959307E+03   -0.54320E-02   -0.45892E-02 54406   0.380E-01    0.270E-01
RMM:   3    -0.580795251024E+03    0.70828E-03   -0.52823E-03 62965   0.108E-01    0.151E-01
RMM:   4    -0.580795013592E+03    0.23743E-03   -0.67689E-04 58535   0.401E-02    0.105E-01
RMM:   5    -0.580794953560E+03    0.60032E-04   -0.11166E-04 56790   0.135E-02
  11 F= -.58079495E+03 E0= -.58079738E+03  d E =-.971110E-01
 curvature:  -0.56 expect dE=-0.420E-02 dE for cont linesearch -0.325E-04
 ZBRENT: extrapolating
 opt :   1.1394  next Energy=  -580.794989 (dE=-0.971E-01)
 bond charge predicted
       N       E                     dE             d eps       ncg     rms          rms(c)
RMM:   1    -0.580794889833E+03    0.12376E-03   -0.16410E-02 49248   0.187E-01    0.894E-02
RMM:   2    -0.580795462790E+03   -0.57296E-03   -0.26127E-03 55473   0.737E-02    0.188E-01
RMM:   3    -0.580794877877E+03    0.58491E-03   -0.72473E-04 50262   0.438E-02    0.832E-02
RMM:   4    -0.580794771348E+03    0.10653E-03   -0.34077E-04 56333   0.249E-02    0.463E-02
RMM:   5    -0.580794767544E+03    0.38038E-05   -0.17732E-04 53795   0.210E-02
  12 F= -.58079477E+03 E0= -.58079718E+03  d E =-.969250E-01
 curvature:  -0.61 expect dE=-0.498E-02 dE for cont linesearch -0.144E-04
 ZBRENT: bracketing found
 ZBRENT: interpolating
 opt :   1.1307  next Energy=  -580.794776 (dE=-0.969E-01)
 bond charge predicted
       N       E                     dE             d eps       ncg     rms          rms(c)
RMM:   1    -0.580794753721E+03    0.17627E-04   -0.25293E-03 49248   0.724E-02    0.230E-02
RMM:   2    -0.580794847119E+03   -0.93398E-04   -0.35634E-04 54015   0.284E-02    0.670E-02
RMM:   3    -0.580794766541E+03    0.80578E-04   -0.88568E-05 51330   0.147E-02    0.304E-02
RMM:   4    -0.580794748254E+03    0.18287E-04   -0.39004E-05 54384   0.918E-03    0.107E-02
RMM:   5    -0.580794746355E+03    0.18992E-05   -0.44142E-06 35239   0.342E-03
  13 F= -.58079475E+03 E0= -.58079717E+03  d E =-.969038E-01
 curvature:  -0.37 expect dE=-0.300E-02 dE for cont linesearch -0.370E-05
 trial: gam= 0.05272 g(F)=  0.722E-02 g(S)=  0.879E-03 ort =-0.131E-02 (trialstep = 0.909E+00)
 search vector abs. value=  0.844E-02
 bond charge predicted
       N       E                     dE             d eps       ncg     rms          rms(c)
RMM:   1    -0.580798321787E+03   -0.35735E-02   -0.12530E+00 49248   0.194E+00    0.262E-01
RMM:   2    -0.580800376286E+03   -0.20545E-02   -0.43395E-02 49367   0.412E-01    0.245E-01
RMM:   3    -0.580800163139E+03    0.21315E-03   -0.67275E-03 57211   0.125E-01    0.220E-01
RMM:   4    -0.580799744362E+03    0.41878E-03   -0.21873E-03 52886   0.773E-02    0.195E-01
RMM:   5    -0.580798832206E+03    0.91216E-03   -0.27694E-03 49506   0.114E-01    0.676E-02
RMM:   6    -0.580798901585E+03   -0.69379E-04   -0.86733E-04 50936   0.513E-02
  14 F= -.58079890E+03 E0= -.58080137E+03  d E =-.415523E-02
 trial-energy change:   -0.004155  1 .order   -0.004023   -0.007297   -0.000750
 step:   1.0128(harm=  1.0128)  dis= 0.00441  next Energy=  -580.798812 (dE=-0.407E-02)
 bond charge predicted
       N       E                     dE             d eps       ncg     rms          rms(c)
RMM:   1    -0.580798858100E+03   -0.25894E-04   -0.17056E-02 49248   0.234E-01    0.545E-02
RMM:   2    -0.580799565248E+03   -0.70715E-03   -0.16825E-03 55669   0.596E-02    0.183E-01
RMM:   3    -0.580798834327E+03    0.73092E-03   -0.44958E-04 52470   0.277E-02    0.464E-02
RMM:   4    -0.580798807837E+03    0.26490E-04   -0.20049E-04 56778   0.192E-02    0.318E-02
RMM:   5    -0.580798796648E+03    0.11189E-04   -0.11734E-04 51810   0.195E-02
  15 F= -.58079880E+03 E0= -.58080126E+03  d E =-.405029E-02
 curvature:  -0.53 expect dE=-0.554E-02 dE for cont linesearch -0.245E-05
 trial: gam= 1.25660 g(F)=  0.161E-02 g(S)=  0.881E-02 ort = 0.197E-03 (trialstep = 0.324E+00)
 search vector abs. value=  0.242E-01
 bond charge predicted
       N       E                     dE             d eps       ncg     rms          rms(c)
RMM:   1    -0.580801272802E+03   -0.24650E-02   -0.45921E-01 49248   0.124E+00    0.202E-01
RMM:   2    -0.580802003139E+03   -0.73034E-03   -0.18065E-02 54416   0.231E-01    0.199E-01
RMM:   3    -0.580801873127E+03    0.13001E-03   -0.23214E-03 54888   0.733E-02    0.187E-01
RMM:   4    -0.580801335998E+03    0.53713E-03   -0.18275E-03 50541   0.774E-02    0.132E-01
RMM:   5    -0.580800988452E+03    0.34755E-03   -0.14937E-03 49410   0.843E-02    0.561E-02
RMM:   6    -0.580800988174E+03    0.27799E-06   -0.39146E-04 49959   0.355E-02
  16 F= -.58080099E+03 E0= -.58080349E+03  d E =-.219153E-02
 trial-energy change:   -0.002192  1 .order   -0.002035   -0.003452   -0.000619
 step:   0.3944(harm=  0.3944)  dis= 0.00273  next Energy=  -580.800899 (dE=-0.210E-02)
 bond charge predicted
       N       E                     dE             d eps       ncg     rms          rms(c)
RMM:   1    -0.580801082561E+03   -0.94110E-04   -0.22514E-02 49248   0.282E-01    0.551E-02
RMM:   2    -0.580801938276E+03   -0.85571E-03   -0.19875E-03 55337   0.629E-02    0.195E-01
RMM:   3    -0.580801084726E+03    0.85355E-03   -0.46753E-04 51773   0.281E-02    0.378E-02
RMM:   4    -0.580801078541E+03    0.61851E-05   -0.21161E-04 56841   0.200E-02    0.337E-02
RMM:   5    -0.580801068720E+03    0.98206E-05   -0.11512E-04 51129   0.212E-02
  17 F= -.58080107E+03 E0= -.58080359E+03  d E =-.227207E-02
 curvature:  -0.45 expect dE=-0.340E-03 dE for cont linesearch -0.984E-05
 trial: gam= 0.03328 g(F)=  0.704E-03 g(S)=  0.549E-04 ort = 0.729E-03 (trialstep = 0.338E+00)
 search vector abs. value=  0.834E-03
 bond charge predicted
       N       E                     dE             d eps       ncg     rms          rms(c)
RMM:   1    -0.580801274433E+03   -0.19589E-03   -0.16535E-02 49248   0.189E-01    0.211E-02
RMM:   2    -0.580801326911E+03   -0.52478E-04   -0.40055E-04 51536   0.396E-02    0.391E-02
RMM:   3    -0.580801305739E+03    0.21171E-04   -0.70384E-05 55420   0.134E-02    0.188E-02
RMM:   4    -0.580801301922E+03    0.38167E-05   -0.15598E-05 53488   0.636E-03    0.142E-02
RMM:   5    -0.580801298749E+03    0.31729E-05   -0.51885E-06 38225   0.417E-03
  18 F= -.58080130E+03 E0= -.58080382E+03  d E =-.230029E-03
 ZBRENT: can't locate minimum, use default step
 trial-energy change:   -0.000230  1 .order   -0.000237   -0.000265   -0.000209
 step:   1.3514(harm=  1.6012)  dis= 0.00158  next Energy=  -580.801696 (dE=-0.627E-03)
 bond charge predicted
       N       E                     dE             d eps       ncg     rms          rms(c)
RMM:   1    -0.580801420051E+03   -0.11813E-03   -0.14892E-01 49248   0.567E-01    0.559E-02
RMM:   2    -0.580801915142E+03   -0.49509E-03   -0.32915E-03 51209   0.119E-01    0.118E-01
RMM:   3    -0.580801683577E+03    0.23157E-03   -0.51465E-04 56388   0.332E-02    0.436E-02
RMM:   4    -0.580801664513E+03    0.19064E-04   -0.11506E-04 55445   0.187E-02    0.382E-02
RMM:   5    -0.580801637803E+03    0.26710E-04   -0.46303E-05 51130   0.115E-02
  19 F= -.58080164E+03 E0= -.58080419E+03  d E =-.569083E-03
 curvature:  -0.82 expect dE=-0.111E-03 dE for cont linesearch -0.168E-04
 ZBRENT: extrapolating
 opt :   1.6238  next Energy=  -580.801656 (dE=-0.587E-03)
 bond charge predicted
       N       E                     dE             d eps       ncg     rms          rms(c)
RMM:   1    -0.580801621328E+03    0.43184E-04   -0.10797E-02 49248   0.154E-01    0.298E-02
RMM:   2    -0.580801919676E+03   -0.29835E-03   -0.69709E-04 54432   0.402E-02    0.116E-01
RMM:   3    -0.580801637641E+03    0.28203E-03   -0.16939E-04 51510   0.190E-02    0.312E-02
RMM:   4    -0.580801621203E+03    0.16438E-04   -0.64009E-05 54344   0.123E-02    0.130E-02
RMM:   5    -0.580801620021E+03    0.11818E-05   -0.16808E-05 56375   0.545E-03
  20 F= -.58080162E+03 E0= -.58080418E+03  d E =-.551301E-03
 curvature:  -0.87 expect dE=-0.218E-03 dE for cont linesearch -0.444E-05
 trial: gam= 0.45397 g(F)=  0.872E-04 g(S)=  0.164E-03 ort =-0.653E-04 (trialstep = 0.595E+00)
 search vector abs. value=  0.363E-03
 bond charge predicted
       N       E                     dE             d eps       ncg     rms          rms(c)
RMM:   1    -0.580801705686E+03   -0.84483E-04   -0.20657E-02 49248   0.237E-01    0.413E-02
RMM:   2    -0.580801752025E+03   -0.46340E-04   -0.60655E-04 49274   0.604E-02    0.492E-02
RMM:   3    -0.580801727790E+03    0.24235E-04   -0.12079E-04 55849   0.161E-02    0.328E-02
RMM:   4    -0.580801713252E+03    0.14538E-04   -0.74749E-05 50555   0.167E-02    0.283E-02
RMM:   5    -0.580801699078E+03    0.14173E-04   -0.41941E-05 49446   0.127E-02
  21 F= -.58080170E+03 E0= -.58080428E+03  d E =-.790574E-04
 trial-energy change:   -0.000079  1 .order   -0.000081   -0.000132   -0.000031
 step:   0.7804(harm=  0.7804)  dis= 0.00057  next Energy=  -580.801706 (dE=-0.863E-04)
 bond charge predicted
       N       E                     dE             d eps       ncg     rms          rms(c)
RMM:   1    -0.580801697362E+03    0.15890E-04   -0.19902E-03 49248   0.734E-02    0.157E-02
RMM:   2    -0.580801714224E+03   -0.16862E-04   -0.97541E-05 50143   0.211E-02    0.296E-02
RMM:   3    -0.580801699806E+03    0.14418E-04   -0.20677E-05 49967   0.839E-03    0.114E-02
RMM:   4    -0.580801699270E+03    0.53540E-06   -0.81452E-06 42128   0.403E-03    0.107E-02
RMM:   5    -0.580801697745E+03    0.15253E-05   -0.45185E-06 34845   0.412E-03
  22 F= -.58080170E+03 E0= -.58080429E+03  d E =-.777239E-04
 curvature:  -0.64 expect dE=-0.704E-04 dE for cont linesearch -0.762E-06
 trial: gam= 0.32069 g(F)=  0.577E-04 g(S)=  0.520E-04 ort =-0.208E-04 (trialstep = 0.632E+00)
 search vector abs. value=  0.134E-03
 bond charge predicted
       N       E                     dE             d eps       ncg     rms          rms(c)
RMM:   1    -0.580801770263E+03   -0.70993E-04   -0.97284E-03 49248   0.198E-01    0.402E-02
RMM:   2    -0.580801756623E+03    0.13640E-04   -0.41566E-04 49530   0.318E-02    0.331E-02
RMM:   3    -0.580801764607E+03   -0.79835E-05   -0.82003E-05 54184   0.150E-02    0.397E-02
RMM:   4    -0.580801740259E+03    0.24348E-04   -0.89144E-05 50224   0.178E-02    0.279E-02
RMM:   5    -0.580801721707E+03    0.18552E-04   -0.37931E-05 49528   0.125E-02
  23 F= -.58080172E+03 E0= -.58080432E+03  d E =-.239622E-04
 trial-energy change:   -0.000024  1 .order   -0.000018   -0.000065    0.000029
 step:   0.4356(harm=  0.4356)  dis= 0.00017  next Energy=  -580.801720 (dE=-0.224E-04)
 bond charge predicted
       N       E                     dE             d eps       ncg     rms          rms(c)
RMM:   1    -0.580801722783E+03    0.17476E-04   -0.93700E-04 49248   0.609E-02    0.164E-02
RMM:   2    -0.580801726853E+03   -0.40696E-05   -0.60956E-05 53235   0.124E-02    0.208E-02
RMM:   3    -0.580801721470E+03    0.53824E-05   -0.16737E-05 51459   0.636E-03    0.135E-02
RMM:   4    -0.580801720652E+03    0.81861E-06   -0.13431E-05 51277   0.568E-03    0.127E-02
RMM:   5    -0.580801718765E+03    0.18862E-05   -0.81735E-06 46654   0.592E-03
  24 F= -.58080172E+03 E0= -.58080432E+03  d E =-.210205E-04
 curvature:  -0.28 expect dE=-0.143E-04 dE for cont linesearch -0.352E-06
 trial: gam= 0.24810 g(F)=  0.233E-04 g(S)=  0.273E-04 ort = 0.129E-04 (trialstep = 0.593E+00)
 search vector abs. value=  0.652E-04
 bond charge predicted
       N       E                     dE             d eps       ncg     rms          rms(c)
RMM:   1    -0.580801733876E+03   -0.13224E-04   -0.39651E-03 49248   0.110E-01    0.190E-02
RMM:   2    -0.580801738841E+03   -0.49654E-05   -0.12610E-04 49260   0.246E-02    0.151E-02
RMM:   3    -0.580801740484E+03   -0.16430E-05   -0.31311E-05 55775   0.858E-03    0.164E-02
RMM:   4    -0.580801739693E+03    0.79042E-06   -0.14078E-05 52125   0.621E-03    0.155E-02
RMM:   5    -0.580801736072E+03    0.36218E-05   -0.10698E-05 50784   0.597E-03
  25 F= -.58080174E+03 E0= -.58080434E+03  d E =-.173064E-04
 trial-energy change:   -0.000017  1 .order   -0.000015   -0.000032    0.000001
 step:   0.5679(harm=  0.5679)  dis= 0.00018  next Energy=  -580.801734 (dE=-0.153E-04)
 bond charge predicted
       N       E                     dE             d eps       ncg     rms          rms(c)
RMM:   1    -0.580801736435E+03    0.32584E-05   -0.10199E-05 48625   0.558E-03    0.466E-03
RMM:   2    -0.580801738751E+03   -0.23162E-05   -0.85417E-06 45723   0.454E-03    0.116E-02
RMM:   3    -0.580801736371E+03    0.23801E-05   -0.24054E-06 30438   0.327E-03    0.346E-03
RMM:   4    -0.580801736250E+03    0.12155E-06   -0.66334E-07 26730   0.142E-03    0.176E-03
RMM:   5    -0.580801736338E+03   -0.87948E-07   -0.36175E-07 26600   0.126E-03
  26 F= -.58080174E+03 E0= -.58080433E+03  d E =-.175723E-04
 curvature:  -0.34 expect dE=-0.281E-05 dE for cont linesearch -0.521E-08
 trial: gam= 0.21350 g(F)=  0.321E-05 g(S)=  0.494E-05 ort = 0.994E-06 (trialstep = 0.588E+00)
 search vector abs. value=  0.115E-04
 reached required accuracy - stopping structural energy minimisation
 writing wavefunctions
[19] Failed to dealloc pd (Device or resource busy)
[18] Failed to dealloc pd (Device or resource busy)
[16] Failed to dealloc pd (Device or resource busy)
[49] Failed to dealloc pd (Device or resource busy)
[17] Failed to dealloc pd (Device or resource busy)
[33] Failed to dealloc pd (Device or resource busy)
[35] Failed to dealloc pd (Device or resource busy)
[34] Failed to dealloc pd (Device or resource busy)
[32] Failed to dealloc pd (Device or resource busy)
[3] Failed to dealloc pd (Device or resource busy)
[1] Failed to dealloc pd (Device or resource busy)
[2] Failed to dealloc pd (Device or resource busy)
[0] Failed to dealloc pd (Device or resource busy)
[51] Failed to dealloc pd (Device or resource busy)
[50] Failed to dealloc pd (Device or resource busy)
[48] Failed to dealloc pd (Device or resource busy)
