 256 256   0   0
  0.1418917E+02  0.1588033E-08  0.1692661E-08  0.1693229E-08  0.5000000E-15
  1.000000000000000E-004
  CAR 
 Ir_Ru                                   
     14.27415640     -1.29177428  301      9.45706208      1.00000000
     -1.292  0.0000E+00  0.0000E+00
     -1.240  0.0000E+00  0.0000E+00
     -1.188  0.0000E+00  0.0000E+00
     -1.136 -0.2788E-30 -0.1446E-31
     -1.084 -0.1276E-26 -0.6624E-28
     -1.032 -0.3397E-23 -0.1763E-24
     -0.980 -0.5250E-20 -0.2726E-21
     -0.929 -0.4709E-17 -0.2446E-18
     -0.877 -0.2389E-14 -0.1242E-15
     -0.825 -0.7118E-12 -0.3706E-13
     -0.773 -0.1229E-09 -0.6415E-11
     -0.721 -0.1221E-07 -0.6402E-09
     -0.669 -0.6954E-06 -0.3672E-07
     -0.617 -0.2256E-04 -0.1207E-05
     -0.565 -0.4140E-03 -0.2269E-04
     -0.513 -0.4255E-02 -0.2435E-03
     -0.462 -0.2425E-01 -0.1502E-02
     -0.410 -0.7508E-01 -0.5397E-02
     -0.358 -0.1020E+00 -0.1069E-01
     -0.306  0.2047E+00 -0.7095E-04
     -0.254  0.1636E+01  0.8480E-01
     -0.202  0.4394E+01  0.3128E+00
     -0.150  0.6353E+01  0.6424E+00
     -0.098  0.6422E+01  0.9756E+00
     -0.046  0.6959E+01  0.1337E+01
      0.005  0.8854E+01  0.1796E+01
      0.057  0.1117E+02  0.2376E+01
      0.109  0.1360E+02  0.3082E+01
      0.161  0.1435E+02  0.3826E+01
      0.213  0.1171E+02  0.4434E+01
      0.265  0.1006E+02  0.4956E+01
      0.317  0.1424E+02  0.5695E+01
      0.369  0.2032E+02  0.6749E+01
      0.420  0.2251E+02  0.7917E+01
      0.472  0.2270E+02  0.9095E+01
      0.524  0.2350E+02  0.1031E+02
      0.576  0.2253E+02  0.1148E+02
      0.628  0.2044E+02  0.1254E+02
      0.680  0.2099E+02  0.1363E+02
      0.732  0.2040E+02  0.1469E+02
      0.784  0.1464E+02  0.1545E+02
      0.836  0.8907E+01  0.1591E+02
      0.887  0.8055E+01  0.1633E+02
      0.939  0.1172E+02  0.1694E+02
      0.991  0.1889E+02  0.1792E+02
      1.043  0.2780E+02  0.1936E+02
      1.095  0.3333E+02  0.2109E+02
      1.147  0.3309E+02  0.2281E+02
      1.199  0.2884E+02  0.2430E+02
      1.251  0.2286E+02  0.2549E+02
      1.303  0.1949E+02  0.2650E+02
      1.354  0.2164E+02  0.2762E+02
      1.406  0.2711E+02  0.2903E+02
      1.458  0.3034E+02  0.3061E+02
      1.510  0.2986E+02  0.3215E+02
      1.562  0.2932E+02  0.3368E+02
      1.614  0.3036E+02  0.3525E+02
      1.666  0.3110E+02  0.3687E+02
      1.718  0.3202E+02  0.3853E+02
      1.770  0.3497E+02  0.4034E+02
      1.821  0.3900E+02  0.4236E+02
      1.873  0.4537E+02  0.4472E+02
      1.925  0.5457E+02  0.4755E+02
      1.977  0.5935E+02  0.5063E+02
      2.029  0.5482E+02  0.5347E+02
      2.081  0.5046E+02  0.5609E+02
      2.133  0.6131E+02  0.5927E+02
      2.185  0.8653E+02  0.6376E+02
      2.237  0.1085E+03  0.6940E+02
      2.288  0.1196E+03  0.7560E+02
      2.340  0.1258E+03  0.8213E+02
      2.392  0.1315E+03  0.8895E+02
      2.444  0.1375E+03  0.9609E+02
      2.496  0.1470E+03  0.1037E+03
      2.548  0.1641E+03  0.1122E+03
      2.600  0.1826E+03  0.1217E+03
      2.652  0.1946E+03  0.1318E+03
      2.703  0.2063E+03  0.1425E+03
      2.755  0.2233E+03  0.1541E+03
      2.807  0.2308E+03  0.1661E+03
      2.859  0.2248E+03  0.1777E+03
      2.911  0.2277E+03  0.1895E+03
      2.963  0.2451E+03  0.2023E+03
      3.015  0.2579E+03  0.2156E+03
      3.067  0.2600E+03  0.2291E+03
      3.119  0.2605E+03  0.2427E+03
      3.170  0.2639E+03  0.2563E+03
      3.222  0.2728E+03  0.2705E+03
      3.274  0.2880E+03  0.2854E+03
      3.326  0.3074E+03  0.3014E+03
      3.378  0.3244E+03  0.3182E+03
      3.430  0.3308E+03  0.3354E+03
      3.482  0.3279E+03  0.3524E+03
      3.534  0.3215E+03  0.3691E+03
      3.586  0.3182E+03  0.3856E+03
      3.637  0.3165E+03  0.4020E+03
      3.689  0.3110E+03  0.4182E+03
      3.741  0.3052E+03  0.4340E+03
      3.793  0.3012E+03  0.4496E+03
      3.845  0.2969E+03  0.4650E+03
      3.897  0.2933E+03  0.4802E+03
      3.949  0.2886E+03  0.4952E+03
      4.001  0.2763E+03  0.5095E+03
      4.053  0.2664E+03  0.5234E+03
      4.104  0.2754E+03  0.5377E+03
      4.156  0.2939E+03  0.5529E+03
      4.208  0.3027E+03  0.5686E+03
      4.260  0.3050E+03  0.5844E+03
      4.312  0.3120E+03  0.6006E+03
      4.364  0.3187E+03  0.6172E+03
      4.416  0.3212E+03  0.6338E+03
      4.468  0.3235E+03  0.6506E+03
      4.520  0.3211E+03  0.6673E+03
      4.571  0.3097E+03  0.6833E+03
      4.623  0.2973E+03  0.6988E+03
      4.675  0.2935E+03  0.7140E+03
      4.727  0.2982E+03  0.7295E+03
      4.779  0.3059E+03  0.7453E+03
      4.831  0.3177E+03  0.7618E+03
      4.883  0.3312E+03  0.7790E+03
      4.935  0.3377E+03  0.7965E+03
      4.986  0.3451E+03  0.8144E+03
      5.038  0.3582E+03  0.8330E+03
      5.090  0.3658E+03  0.8520E+03
      5.142  0.3646E+03  0.8709E+03
      5.194  0.3554E+03  0.8894E+03
      5.246  0.3350E+03  0.9068E+03
      5.298  0.3026E+03  0.9225E+03
      5.350  0.2617E+03  0.9360E+03
      5.402  0.2185E+03  0.9474E+03
      5.453  0.1845E+03  0.9569E+03
      5.505  0.1725E+03  0.9659E+03
      5.557  0.1888E+03  0.9757E+03
      5.609  0.2269E+03  0.9875E+03
      5.661  0.2753E+03  0.1002E+04
      5.713  0.3256E+03  0.1019E+04
      5.765  0.3677E+03  0.1038E+04
      5.817  0.3951E+03  0.1058E+04
      5.869  0.4102E+03  0.1079E+04
      5.920  0.4190E+03  0.1101E+04
      5.972  0.4255E+03  0.1123E+04
      6.024  0.4280E+03  0.1146E+04
      6.076  0.4164E+03  0.1167E+04
      6.128  0.3922E+03  0.1187E+04
      6.180  0.3721E+03  0.1207E+04
      6.232  0.3613E+03  0.1226E+04
      6.284  0.3555E+03  0.1244E+04
      6.336  0.3564E+03  0.1262E+04
      6.387  0.3689E+03  0.1282E+04
      6.439  0.3817E+03  0.1301E+04
      6.491  0.3840E+03  0.1321E+04
      6.543  0.3911E+03  0.1342E+04
      6.595  0.4095E+03  0.1363E+04
      6.647  0.4240E+03  0.1385E+04
      6.699  0.4283E+03  0.1407E+04
      6.751  0.4254E+03  0.1429E+04
      6.803  0.4135E+03  0.1451E+04
      6.854  0.3925E+03  0.1471E+04
      6.906  0.3736E+03  0.1490E+04
      6.958  0.3666E+03  0.1509E+04
      7.010  0.3638E+03  0.1528E+04
      7.062  0.3680E+03  0.1547E+04
      7.114  0.3907E+03  0.1568E+04
      7.166  0.4144E+03  0.1589E+04
      7.218  0.4221E+03  0.1611E+04
      7.269  0.4224E+03  0.1633E+04
      7.321  0.4137E+03  0.1654E+04
      7.373  0.3885E+03  0.1675E+04
      7.425  0.3592E+03  0.1693E+04
      7.477  0.3404E+03  0.1711E+04
      7.529  0.3327E+03  0.1728E+04
      7.581  0.3289E+03  0.1745E+04
      7.633  0.3174E+03  0.1762E+04
      7.685  0.2961E+03  0.1777E+04
      7.736  0.2777E+03  0.1791E+04
      7.788  0.2688E+03  0.1805E+04
      7.840  0.2638E+03  0.1819E+04
      7.892  0.2578E+03  0.1832E+04
      7.944  0.2486E+03  0.1845E+04
      7.996  0.2428E+03  0.1858E+04
      8.048  0.2432E+03  0.1871E+04
      8.100  0.2393E+03  0.1883E+04
      8.152  0.2314E+03  0.1895E+04
      8.203  0.2290E+03  0.1907E+04
      8.255  0.2333E+03  0.1919E+04
      8.307  0.2376E+03  0.1931E+04
      8.359  0.2390E+03  0.1944E+04
      8.411  0.2370E+03  0.1956E+04
      8.463  0.2290E+03  0.1968E+04
      8.515  0.2187E+03  0.1979E+04
      8.567  0.2122E+03  0.1990E+04
      8.619  0.2073E+03  0.2001E+04
      8.670  0.2000E+03  0.2011E+04
      8.722  0.1916E+03  0.2021E+04
      8.774  0.1832E+03  0.2031E+04
      8.826  0.1794E+03  0.2040E+04
      8.878  0.1879E+03  0.2050E+04
      8.930  0.2126E+03  0.2061E+04
      8.982  0.2352E+03  0.2073E+04
      9.034  0.2365E+03  0.2085E+04
      9.086  0.2238E+03  0.2097E+04
      9.137  0.2068E+03  0.2108E+04
      9.189  0.1873E+03  0.2117E+04
      9.241  0.1787E+03  0.2127E+04
      9.293  0.1968E+03  0.2137E+04
      9.345  0.2278E+03  0.2149E+04
      9.397  0.2429E+03  0.2161E+04
      9.449  0.2428E+03  0.2174E+04
      9.501  0.2449E+03  0.2187E+04
      9.552  0.2445E+03  0.2199E+04
      9.604  0.2461E+03  0.2212E+04
      9.656  0.2735E+03  0.2226E+04
      9.708  0.3167E+03  0.2243E+04
      9.760  0.3356E+03  0.2260E+04
      9.812  0.3266E+03  0.2277E+04
      9.864  0.3167E+03  0.2294E+04
      9.916  0.3153E+03  0.2310E+04
      9.968  0.3215E+03  0.2327E+04
     10.019  0.3424E+03  0.2344E+04
     10.071  0.3789E+03  0.2364E+04
     10.123  0.4122E+03  0.2385E+04
     10.175  0.4282E+03  0.2408E+04
     10.227  0.4361E+03  0.2430E+04
     10.279  0.4485E+03  0.2454E+04
     10.331  0.4669E+03  0.2478E+04
     10.383  0.4859E+03  0.2503E+04
     10.435  0.4973E+03  0.2529E+04
     10.486  0.4903E+03  0.2554E+04
     10.538  0.4533E+03  0.2578E+04
     10.590  0.3931E+03  0.2598E+04
     10.642  0.3244E+03  0.2615E+04
     10.694  0.2408E+03  0.2627E+04
     10.746  0.1396E+03  0.2635E+04
     10.798  0.5022E+02  0.2637E+04
     10.850  0.3539E+01  0.2637E+04
     10.902 -0.5698E+01  0.2637E+04
     10.953 -0.2738E+01  0.2637E+04
     11.005 -0.6081E+00  0.2637E+04
     11.057 -0.8096E-01  0.2637E+04
     11.109 -0.7277E-02  0.2637E+04
     11.161 -0.4593E-03  0.2637E+04
     11.213 -0.1949E-04  0.2637E+04
     11.265 -0.5193E-06  0.2637E+04
     11.317 -0.8297E-08  0.2637E+04
     11.369 -0.7773E-10  0.2637E+04
     11.420 -0.9823E-12  0.2637E+04
     11.472 -0.1062E-09  0.2637E+04
     11.524 -0.1158E-07  0.2637E+04
     11.576 -0.7237E-06  0.2637E+04
     11.628 -0.2573E-04  0.2637E+04
     11.680 -0.5150E-03  0.2637E+04
     11.732 -0.5681E-02  0.2637E+04
     11.784 -0.3288E-01  0.2637E+04
     11.835 -0.8308E-01  0.2637E+04
     11.887  0.3174E-01  0.2637E+04
     11.939  0.7095E+00  0.2637E+04
     11.991  0.1818E+01  0.2637E+04
     12.043  0.2330E+01  0.2637E+04
     12.095  0.1982E+01  0.2637E+04
     12.147  0.1818E+01  0.2637E+04
     12.199  0.1856E+01  0.2638E+04
     12.251  0.1584E+01  0.2638E+04
     12.302  0.1947E+01  0.2638E+04
     12.354  0.3500E+01  0.2638E+04
     12.406  0.4456E+01  0.2638E+04
     12.458  0.3411E+01  0.2638E+04
     12.510  0.1966E+01  0.2638E+04
     12.562  0.2000E+01  0.2639E+04
     12.614  0.2507E+01  0.2639E+04
     12.666  0.2792E+01  0.2639E+04
     12.718  0.3587E+01  0.2639E+04
     12.769  0.3685E+01  0.2639E+04
     12.821  0.2778E+01  0.2639E+04
     12.873  0.2550E+01  0.2639E+04
     12.925  0.2470E+01  0.2640E+04
     12.977  0.1626E+01  0.2640E+04
     13.029  0.1002E+01  0.2640E+04
     13.081  0.8496E+00  0.2640E+04
     13.133  0.7960E+00  0.2640E+04
     13.185  0.9495E+00  0.2640E+04
     13.236  0.1127E+01  0.2640E+04
     13.288  0.1074E+01  0.2640E+04
     13.340  0.6639E+00  0.2640E+04
     13.392  0.1592E+00  0.2640E+04
     13.444 -0.4295E-01  0.2640E+04
     13.496 -0.3274E-01  0.2640E+04
     13.548 -0.7222E-02  0.2640E+04
     13.600 -0.7675E-03  0.2640E+04
     13.652 -0.4349E-04  0.2640E+04
     13.703 -0.1365E-05  0.2640E+04
     13.755 -0.2420E-07  0.2640E+04
     13.807 -0.2446E-09  0.2640E+04
     13.859 -0.1420E-11  0.2640E+04
     13.911 -0.4755E-14  0.2640E+04
     13.963  0.0000E+00  0.2640E+04
     14.015  0.0000E+00  0.2640E+04
     14.067  0.0000E+00  0.2640E+04
     14.118  0.0000E+00  0.2640E+04
     14.170  0.0000E+00  0.2640E+04
     14.222  0.0000E+00  0.2640E+04
     14.274  0.0000E+00  0.2640E+04
