 256 256   0   0
  0.1418917E+02  0.1588033E-08  0.1692661E-08  0.1693229E-08  0.5000000E-15
  1.000000000000000E-004
  CAR 
 Ir_Ru                                   
     14.28347753     -1.29202801  301      9.45710751      1.00000000
     -1.292  0.0000E+00  0.0000E+00
     -1.240  0.0000E+00  0.0000E+00
     -1.188  0.0000E+00  0.0000E+00
     -1.136 -0.2831E-30 -0.1470E-31
     -1.084 -0.1301E-26 -0.6758E-28
     -1.032 -0.3475E-23 -0.1805E-24
     -0.981 -0.5386E-20 -0.2798E-21
     -0.929 -0.4840E-17 -0.2516E-18
     -0.877 -0.2461E-14 -0.1280E-15
     -0.825 -0.7331E-12 -0.3819E-13
     -0.773 -0.1266E-09 -0.6611E-11
     -0.721 -0.1257E-07 -0.6592E-09
     -0.669 -0.7146E-06 -0.3776E-07
     -0.617 -0.2313E-04 -0.1239E-05
     -0.565 -0.4232E-03 -0.2321E-04
     -0.513 -0.4334E-02 -0.2482E-03
     -0.461 -0.2459E-01 -0.1525E-02
     -0.409 -0.7570E-01 -0.5455E-02
     -0.357 -0.1014E+00 -0.1072E-01
     -0.306  0.2129E+00  0.3310E-03
     -0.254  0.1663E+01  0.8667E-01
     -0.202  0.4429E+01  0.3166E+00
     -0.150  0.6364E+01  0.6470E+00
     -0.098  0.6422E+01  0.9804E+00
     -0.046  0.6979E+01  0.1343E+01
      0.006  0.8886E+01  0.1804E+01
      0.058  0.1121E+02  0.2386E+01
      0.110  0.1364E+02  0.3094E+01
      0.162  0.1433E+02  0.3838E+01
      0.214  0.1165E+02  0.4443E+01
      0.266  0.1008E+02  0.4967E+01
      0.317  0.1436E+02  0.5712E+01
      0.369  0.2041E+02  0.6772E+01
      0.421  0.2253E+02  0.7942E+01
      0.473  0.2273E+02  0.9122E+01
      0.525  0.2351E+02  0.1034E+02
      0.577  0.2247E+02  0.1151E+02
      0.629  0.2042E+02  0.1257E+02
      0.681  0.2101E+02  0.1366E+02
      0.733  0.2029E+02  0.1471E+02
      0.785  0.1445E+02  0.1546E+02
      0.837  0.8815E+01  0.1592E+02
      0.889  0.8091E+01  0.1634E+02
      0.940  0.1189E+02  0.1696E+02
      0.992  0.1920E+02  0.1796E+02
      1.044  0.2807E+02  0.1941E+02
      1.096  0.3335E+02  0.2114E+02
      1.148  0.3296E+02  0.2286E+02
      1.200  0.2866E+02  0.2434E+02
      1.252  0.2268E+02  0.2552E+02
      1.304  0.1945E+02  0.2653E+02
      1.356  0.2181E+02  0.2766E+02
      1.408  0.2732E+02  0.2908E+02
      1.460  0.3039E+02  0.3066E+02
      1.512  0.2980E+02  0.3221E+02
      1.563  0.2935E+02  0.3373E+02
      1.615  0.3044E+02  0.3531E+02
      1.667  0.3110E+02  0.3693E+02
      1.719  0.3207E+02  0.3859E+02
      1.771  0.3514E+02  0.4042E+02
      1.823  0.3925E+02  0.4245E+02
      1.875  0.4576E+02  0.4483E+02
      1.927  0.5496E+02  0.4768E+02
      1.979  0.5936E+02  0.5076E+02
      2.031  0.5450E+02  0.5359E+02
      2.083  0.5044E+02  0.5621E+02
      2.135  0.6205E+02  0.5943E+02
      2.187  0.8758E+02  0.6398E+02
      2.238  0.1092E+03  0.6965E+02
      2.290  0.1199E+03  0.7588E+02
      2.342  0.1259E+03  0.8241E+02
      2.394  0.1317E+03  0.8925E+02
      2.446  0.1378E+03  0.9641E+02
      2.498  0.1476E+03  0.1041E+03
      2.550  0.1651E+03  0.1126E+03
      2.602  0.1835E+03  0.1222E+03
      2.654  0.1952E+03  0.1323E+03
      2.706  0.2070E+03  0.1430E+03
      2.758  0.2240E+03  0.1547E+03
      2.810  0.2306E+03  0.1667E+03
      2.861  0.2243E+03  0.1783E+03
      2.913  0.2280E+03  0.1901E+03
      2.965  0.2458E+03  0.2029E+03
      3.017  0.2585E+03  0.2163E+03
      3.069  0.2603E+03  0.2298E+03
      3.121  0.2606E+03  0.2434E+03
      3.173  0.2642E+03  0.2571E+03
      3.225  0.2735E+03  0.2713E+03
      3.277  0.2888E+03  0.2863E+03
      3.329  0.3080E+03  0.3023E+03
      3.381  0.3247E+03  0.3191E+03
      3.433  0.3307E+03  0.3363E+03
      3.484  0.3274E+03  0.3533E+03
      3.536  0.3210E+03  0.3700E+03
      3.588  0.3181E+03  0.3865E+03
      3.640  0.3164E+03  0.4029E+03
      3.692  0.3107E+03  0.4190E+03
      3.744  0.3049E+03  0.4349E+03
      3.796  0.3009E+03  0.4505E+03
      3.848  0.2966E+03  0.4659E+03
      3.900  0.2930E+03  0.4811E+03
      3.952  0.2881E+03  0.4960E+03
      4.004  0.2754E+03  0.5103E+03
      4.056  0.2664E+03  0.5242E+03
      4.107  0.2765E+03  0.5385E+03
      4.159  0.2949E+03  0.5538E+03
      4.211  0.3030E+03  0.5696E+03
      4.263  0.3054E+03  0.5854E+03
      4.315  0.3124E+03  0.6016E+03
      4.367  0.3188E+03  0.6182E+03
      4.419  0.3214E+03  0.6349E+03
      4.471  0.3239E+03  0.6517E+03
      4.523  0.3208E+03  0.6684E+03
      4.575  0.3089E+03  0.6844E+03
      4.627  0.2967E+03  0.6998E+03
      4.679  0.2935E+03  0.7150E+03
      4.731  0.2984E+03  0.7305E+03
      4.782  0.3062E+03  0.7464E+03
      4.834  0.3184E+03  0.7630E+03
      4.886  0.3318E+03  0.7802E+03
      4.938  0.3380E+03  0.7977E+03
      4.990  0.3458E+03  0.8157E+03
      5.042  0.3589E+03  0.8343E+03
      5.094  0.3658E+03  0.8533E+03
      5.146  0.3640E+03  0.8722E+03
      5.198  0.3542E+03  0.8906E+03
      5.250  0.3329E+03  0.9079E+03
      5.302  0.3000E+03  0.9235E+03
      5.354  0.2587E+03  0.9369E+03
      5.405  0.2158E+03  0.9481E+03
      5.457  0.1829E+03  0.9576E+03
      5.509  0.1728E+03  0.9666E+03
      5.561  0.1912E+03  0.9765E+03
      5.613  0.2305E+03  0.9885E+03
      5.665  0.2794E+03  0.1003E+04
      5.717  0.3292E+03  0.1020E+04
      5.769  0.3701E+03  0.1039E+04
      5.821  0.3963E+03  0.1060E+04
      5.873  0.4109E+03  0.1081E+04
      5.925  0.4195E+03  0.1103E+04
      5.977  0.4259E+03  0.1125E+04
      6.028  0.4278E+03  0.1147E+04
      6.080  0.4148E+03  0.1169E+04
      6.132  0.3902E+03  0.1189E+04
      6.184  0.3708E+03  0.1208E+04
      6.236  0.3607E+03  0.1227E+04
      6.288  0.3552E+03  0.1246E+04
      6.340  0.3571E+03  0.1264E+04
      6.392  0.3704E+03  0.1283E+04
      6.444  0.3824E+03  0.1303E+04
      6.496  0.3844E+03  0.1323E+04
      6.548  0.3928E+03  0.1343E+04
      6.600  0.4113E+03  0.1365E+04
      6.651  0.4245E+03  0.1387E+04
      6.703  0.4280E+03  0.1409E+04
      6.755  0.4246E+03  0.1431E+04
      6.807  0.4117E+03  0.1453E+04
      6.859  0.3903E+03  0.1473E+04
      6.911  0.3725E+03  0.1492E+04
      6.963  0.3663E+03  0.1511E+04
      7.015  0.3636E+03  0.1530E+04
      7.067  0.3693E+03  0.1549E+04
      7.119  0.3935E+03  0.1570E+04
      7.171  0.4160E+03  0.1591E+04
      7.223  0.4223E+03  0.1613E+04
      7.275  0.4220E+03  0.1635E+04
      7.326  0.4120E+03  0.1656E+04
      7.378  0.3857E+03  0.1676E+04
      7.430  0.3568E+03  0.1695E+04
      7.482  0.3391E+03  0.1713E+04
      7.534  0.3323E+03  0.1730E+04
      7.586  0.3283E+03  0.1747E+04
      7.638  0.3157E+03  0.1763E+04
      7.690  0.2940E+03  0.1779E+04
      7.742  0.2764E+03  0.1793E+04
      7.794  0.2682E+03  0.1807E+04
      7.846  0.2633E+03  0.1820E+04
      7.898  0.2569E+03  0.1834E+04
      7.949  0.2476E+03  0.1847E+04
      8.001  0.2426E+03  0.1859E+04
      8.053  0.2431E+03  0.1872E+04
      8.105  0.2386E+03  0.1884E+04
      8.157  0.2308E+03  0.1896E+04
      8.209  0.2291E+03  0.1908E+04
      8.261  0.2338E+03  0.1920E+04
      8.313  0.2380E+03  0.1933E+04
      8.365  0.2391E+03  0.1945E+04
      8.417  0.2364E+03  0.1957E+04
      8.469  0.2278E+03  0.1969E+04
      8.521  0.2178E+03  0.1980E+04
      8.572  0.2117E+03  0.1991E+04
      8.624  0.2066E+03  0.2002E+04
      8.676  0.1989E+03  0.2013E+04
      8.728  0.1904E+03  0.2022E+04
      8.780  0.1825E+03  0.2032E+04
      8.832  0.1796E+03  0.2041E+04
      8.884  0.1900E+03  0.2051E+04
      8.936  0.2157E+03  0.2062E+04
      8.988  0.2365E+03  0.2075E+04
      9.040  0.2354E+03  0.2087E+04
      9.092  0.2219E+03  0.2098E+04
      9.144  0.2046E+03  0.2109E+04
      9.195  0.1854E+03  0.2119E+04
      9.247  0.1795E+03  0.2128E+04
      9.299  0.2004E+03  0.2138E+04
      9.351  0.2309E+03  0.2150E+04
      9.403  0.2433E+03  0.2163E+04
      9.455  0.2429E+03  0.2176E+04
      9.507  0.2452E+03  0.2188E+04
      9.559  0.2441E+03  0.2201E+04
      9.611  0.2477E+03  0.2214E+04
      9.663  0.2789E+03  0.2228E+04
      9.715  0.3211E+03  0.2245E+04
      9.767  0.3356E+03  0.2262E+04
      9.818  0.3250E+03  0.2279E+04
      9.870  0.3160E+03  0.2296E+04
      9.922  0.3155E+03  0.2312E+04
      9.974  0.3231E+03  0.2329E+04
     10.026  0.3465E+03  0.2347E+04
     10.078  0.3840E+03  0.2367E+04
     10.130  0.4154E+03  0.2388E+04
     10.182  0.4293E+03  0.2411E+04
     10.234  0.4372E+03  0.2433E+04
     10.286  0.4507E+03  0.2457E+04
     10.338  0.4698E+03  0.2481E+04
     10.390  0.4882E+03  0.2506E+04
     10.442  0.4979E+03  0.2532E+04
     10.493  0.4875E+03  0.2558E+04
     10.545  0.4463E+03  0.2581E+04
     10.597  0.3839E+03  0.2601E+04
     10.649  0.3136E+03  0.2617E+04
     10.701  0.2275E+03  0.2629E+04
     10.753  0.1264E+03  0.2635E+04
     10.805  0.4191E+02  0.2637E+04
     10.857  0.1127E+01  0.2638E+04
     10.909 -0.5472E+01  0.2637E+04
     10.961 -0.2366E+01  0.2637E+04
     11.013 -0.4933E+00  0.2637E+04
     11.065 -0.6104E-01  0.2637E+04
     11.116 -0.4905E-02  0.2637E+04
     11.168 -0.2653E-03  0.2637E+04
     11.220 -0.9471E-05  0.2637E+04
     11.272 -0.2132E-06  0.2637E+04
     11.324 -0.2906E-08  0.2637E+04
     11.376 -0.2343E-10  0.2637E+04
     11.428 -0.2039E-12  0.2637E+04
     11.480 -0.2266E-10  0.2637E+04
     11.532 -0.3145E-08  0.2637E+04
     11.584 -0.2520E-06  0.2637E+04
     11.636 -0.1159E-04  0.2637E+04
     11.688 -0.3023E-03  0.2637E+04
     11.739 -0.4375E-02  0.2637E+04
     11.791 -0.3338E-01  0.2637E+04
     11.843 -0.1150E+00  0.2637E+04
     11.895 -0.3091E-01  0.2637E+04
     11.947  0.8667E+00  0.2637E+04
     11.999  0.2309E+01  0.2637E+04
     12.051  0.2535E+01  0.2637E+04
     12.103  0.1500E+01  0.2637E+04
     12.155  0.8156E+00  0.2638E+04
     12.207  0.1135E+01  0.2638E+04
     12.259  0.2517E+01  0.2638E+04
     12.311  0.3598E+01  0.2638E+04
     12.362  0.3092E+01  0.2638E+04
     12.414  0.2270E+01  0.2638E+04
     12.466  0.2148E+01  0.2638E+04
     12.518  0.2048E+01  0.2638E+04
     12.570  0.1926E+01  0.2638E+04
     12.622  0.2285E+01  0.2639E+04
     12.674  0.3383E+01  0.2639E+04
     12.726  0.4323E+01  0.2639E+04
     12.778  0.3628E+01  0.2639E+04
     12.830  0.2396E+01  0.2639E+04
     12.882  0.2411E+01  0.2639E+04
     12.934  0.2509E+01  0.2640E+04
     12.986  0.1629E+01  0.2640E+04
     13.037  0.9410E+00  0.2640E+04
     13.089  0.8396E+00  0.2640E+04
     13.141  0.8435E+00  0.2640E+04
     13.193  0.9694E+00  0.2640E+04
     13.245  0.1103E+01  0.2640E+04
     13.297  0.1055E+01  0.2640E+04
     13.349  0.6663E+00  0.2640E+04
     13.401  0.1649E+00  0.2640E+04
     13.453 -0.4172E-01  0.2640E+04
     13.505 -0.3297E-01  0.2640E+04
     13.557 -0.7339E-02  0.2640E+04
     13.609 -0.7840E-03  0.2640E+04
     13.660 -0.4457E-04  0.2640E+04
     13.712 -0.1403E-05  0.2640E+04
     13.764 -0.2490E-07  0.2640E+04
     13.816 -0.2519E-09  0.2640E+04
     13.868 -0.1462E-11  0.2640E+04
     13.920 -0.5227E-14  0.2640E+04
     13.972  0.0000E+00  0.2640E+04
     14.024  0.0000E+00  0.2640E+04
     14.076  0.0000E+00  0.2640E+04
     14.128  0.0000E+00  0.2640E+04
     14.180  0.0000E+00  0.2640E+04
     14.232  0.0000E+00  0.2640E+04
     14.283  0.0000E+00  0.2640E+04
