       N       E                     dE             d eps       ncg     rms          rms(c)
RMM:   1     0.136791227418E+05    0.13679E+05   -0.47218E+05 25080   0.725E+02
RMM:   2     0.131334738999E+04   -0.12366E+05   -0.13120E+05 25080   0.260E+02
RMM:   3    -0.104567116938E+04   -0.23590E+04   -0.22856E+04 25080   0.111E+02
RMM:   4    -0.184599666049E+04   -0.80033E+03   -0.57408E+03 25080   0.768E+01
RMM:   5    -0.212911021366E+04   -0.28311E+03   -0.24896E+03 25080   0.451E+01
RMM:   6    -0.227482978435E+04   -0.14572E+03   -0.12952E+03 25080   0.349E+01
RMM:   7    -0.235269542177E+04   -0.77866E+02   -0.73855E+02 25080   0.235E+01
RMM:   8    -0.240019338352E+04   -0.47498E+02   -0.44557E+02 25080   0.195E+01
RMM:   9    -0.247908871650E+04   -0.78895E+02   -0.77976E+02 71869   0.137E+01
RMM:  10    -0.248863738589E+04   -0.95487E+01   -0.11974E+02 79671   0.282E+00
RMM:  11    -0.249087817113E+04   -0.22408E+01   -0.17841E+01 77290   0.686E-01
RMM:  12    -0.249118430508E+04   -0.30613E+00   -0.19812E+00 79560   0.198E-01    0.782E+01
RMM:  13    -0.241363874268E+04    0.77546E+02   -0.68479E+02 57183   0.246E+01    0.583E+01
RMM:  14    -0.236779497059E+04    0.45844E+02   -0.34129E+02 51455   0.174E+01    0.416E+01
RMM:  15    -0.233562864154E+04    0.32166E+02   -0.11851E+02 53332   0.101E+01    0.255E+01
RMM:  16    -0.232131562377E+04    0.14313E+02   -0.25854E+01 55985   0.435E+00    0.436E+00
RMM:  17    -0.232146831409E+04   -0.15269E+00   -0.64467E+00 73572   0.131E+00    0.426E+00
RMM:  18    -0.232111981691E+04    0.34850E+00   -0.11797E+00 64424   0.704E-01    0.342E+00
RMM:  19    -0.232075231810E+04    0.36750E+00   -0.62878E-01 60146   0.716E-01    0.169E+00
RMM:  20    -0.232070045635E+04    0.51862E-01   -0.23967E-01 63759   0.349E-01    0.157E+00
RMM:  21    -0.232065861788E+04    0.41838E-01   -0.11435E-01 62464   0.242E-01    0.121E+00
RMM:  22    -0.232063445512E+04    0.24163E-01   -0.48857E-02 61117   0.161E-01    0.724E-01
RMM:  23    -0.232062890140E+04    0.55537E-02   -0.13449E-02 67315   0.681E-02    0.498E-01
RMM:  24    -0.232062514683E+04    0.37546E-02   -0.10697E-02 62160   0.775E-02    0.247E-01
RMM:  25    -0.232062611933E+04   -0.97251E-03   -0.13204E-02 66458   0.788E-02    0.260E-01
RMM:  26    -0.232062629651E+04   -0.17717E-03   -0.34483E-03 74570   0.300E-02    0.270E-01
RMM:  27    -0.232062536469E+04    0.93182E-03   -0.72342E-04 60032   0.207E-02    0.180E-01
RMM:  28    -0.232062478253E+04    0.58215E-03   -0.10852E-03 63741   0.240E-02    0.758E-02
RMM:  29    -0.232062468175E+04    0.10079E-03   -0.59245E-04 70707   0.154E-02    0.278E-02
RMM:  30    -0.232062465903E+04    0.22720E-04   -0.10756E-04 68715   0.636E-03
   1 F= -.23206247E+04 E0= -.23206247E+04  d E =0.370683E-04
