  64  64   0   0
  0.1382103E+02  0.1077486E-08  0.1077486E-08  0.1077486E-08  0.5000000E-15
  1.000000000000000E-004
  CAR 
 Ir_Ru                                   
     14.85043988     -0.13971391  301      8.63191121      1.00000000
     -0.140  0.0000E+00  0.0000E+00
     -0.090  0.0000E+00  0.0000E+00
     -0.040  0.0000E+00  0.0000E+00
      0.010  0.0000E+00  0.0000E+00
      0.060 -0.1135E-27 -0.5672E-29
      0.110 -0.2461E-24 -0.1230E-25
      0.160 -0.3223E-21 -0.1612E-22
      0.210 -0.2549E-18 -0.1275E-19
      0.260 -0.1216E-15 -0.6089E-17
      0.310 -0.3381E-13 -0.1695E-14
      0.360 -0.5802E-11 -0.2916E-12
      0.410 -0.5960E-09 -0.3007E-10
      0.460 -0.3648E-07 -0.1853E-08
      0.510 -0.1321E-05 -0.6786E-07
      0.560 -0.2801E-04 -0.1467E-05
      0.610 -0.3419E-03 -0.1855E-04
      0.660 -0.2343E-02 -0.1356E-03
      0.710 -0.8743E-02 -0.5725E-03
      0.760 -0.1761E-01 -0.1452E-02
      0.810 -0.1648E-01 -0.2276E-02
      0.860  0.6559E-01  0.1001E-02
      0.910  0.4875E+00  0.2536E-01
      0.960  0.1290E+01  0.8982E-01
      1.010  0.1645E+01  0.1720E+00
      1.059  0.1203E+01  0.2321E+00
      1.109  0.1076E+01  0.2859E+00
      1.159  0.1897E+01  0.3807E+00
      1.209  0.3336E+01  0.5473E+00
      1.259  0.4192E+01  0.7568E+00
      1.309  0.2982E+01  0.9059E+00
      1.359  0.1005E+01  0.9561E+00
      1.409  0.7659E+00  0.9944E+00
      1.459  0.2824E+01  0.1135E+01
      1.509  0.5411E+01  0.1406E+01
      1.559  0.5578E+01  0.1685E+01
      1.609  0.3980E+01  0.1883E+01
      1.659  0.3673E+01  0.2067E+01
      1.709  0.4538E+01  0.2294E+01
      1.759  0.4564E+01  0.2522E+01
      1.809  0.2811E+01  0.2662E+01
      1.859  0.1267E+01  0.2725E+01
      1.909  0.3064E+01  0.2879E+01
      1.959  0.7826E+01  0.3270E+01
      2.009  0.1001E+02  0.3770E+01
      2.059  0.6908E+01  0.4115E+01
      2.109  0.4638E+01  0.4346E+01
      2.159  0.6220E+01  0.4657E+01
      2.209  0.7227E+01  0.5018E+01
      2.259  0.5113E+01  0.5274E+01
      2.309  0.1902E+01  0.5369E+01
      2.359  0.2257E+01  0.5482E+01
      2.409  0.8914E+01  0.5927E+01
      2.459  0.1721E+02  0.6787E+01
      2.509  0.1962E+02  0.7768E+01
      2.559  0.1794E+02  0.8664E+01
      2.608  0.2037E+02  0.9682E+01
      2.658  0.2378E+02  0.1087E+02
      2.708  0.2159E+02  0.1195E+02
      2.758  0.2240E+02  0.1307E+02
      2.808  0.3367E+02  0.1475E+02
      2.858  0.4961E+02  0.1723E+02
      2.908  0.6430E+02  0.2044E+02
      2.958  0.7029E+02  0.2395E+02
      3.008  0.6673E+02  0.2729E+02
      3.058  0.6915E+02  0.3074E+02
      3.108  0.8000E+02  0.3474E+02
      3.158  0.8455E+02  0.3897E+02
      3.208  0.8523E+02  0.4323E+02
      3.258  0.8788E+02  0.4762E+02
      3.308  0.8865E+02  0.5205E+02
      3.358  0.9385E+02  0.5674E+02
      3.408  0.1066E+03  0.6206E+02
      3.458  0.1186E+03  0.6799E+02
      3.508  0.1289E+03  0.7443E+02
      3.558  0.1383E+03  0.8134E+02
      3.608  0.1369E+03  0.8818E+02
      3.658  0.1184E+03  0.9409E+02
      3.708  0.9655E+02  0.9892E+02
      3.758  0.9145E+02  0.1035E+03
      3.808  0.1015E+03  0.1086E+03
      3.858  0.1120E+03  0.1142E+03
      3.908  0.1150E+03  0.1199E+03
      3.958  0.1053E+03  0.1252E+03
      4.008  0.8464E+02  0.1294E+03
      4.058  0.6871E+02  0.1328E+03
      4.107  0.7018E+02  0.1363E+03
      4.157  0.8157E+02  0.1404E+03
      4.207  0.8818E+02  0.1448E+03
      4.257  0.8324E+02  0.1490E+03
      4.307  0.7042E+02  0.1525E+03
      4.357  0.6226E+02  0.1556E+03
      4.407  0.6172E+02  0.1587E+03
      4.457  0.6012E+02  0.1617E+03
      4.507  0.5754E+02  0.1646E+03
      4.557  0.6165E+02  0.1676E+03
      4.607  0.7502E+02  0.1714E+03
      4.657  0.8595E+02  0.1757E+03
      4.707  0.8020E+02  0.1797E+03
      4.757  0.7235E+02  0.1833E+03
      4.807  0.8248E+02  0.1874E+03
      4.857  0.9248E+02  0.1921E+03
      4.907  0.8249E+02  0.1962E+03
      4.957  0.6896E+02  0.1996E+03
      5.007  0.6456E+02  0.2028E+03
      5.057  0.6370E+02  0.2060E+03
      5.107  0.6500E+02  0.2093E+03
      5.157  0.7333E+02  0.2129E+03
      5.207  0.8486E+02  0.2172E+03
      5.257  0.8566E+02  0.2215E+03
      5.307  0.7427E+02  0.2252E+03
      5.357  0.6231E+02  0.2283E+03
      5.407  0.5915E+02  0.2312E+03
      5.457  0.6927E+02  0.2347E+03
      5.507  0.8278E+02  0.2388E+03
      5.557  0.8137E+02  0.2429E+03
      5.607  0.6861E+02  0.2463E+03
      5.656  0.6651E+02  0.2497E+03
      5.706  0.8234E+02  0.2538E+03
      5.756  0.9731E+02  0.2586E+03
      5.806  0.9214E+02  0.2632E+03
      5.856  0.7845E+02  0.2672E+03
      5.906  0.7412E+02  0.2709E+03
      5.956  0.7523E+02  0.2746E+03
      6.006  0.8240E+02  0.2787E+03
      6.056  0.9779E+02  0.2836E+03
      6.106  0.1111E+03  0.2892E+03
      6.156  0.1140E+03  0.2949E+03
      6.206  0.1096E+03  0.3004E+03
      6.256  0.1068E+03  0.3057E+03
      6.306  0.1050E+03  0.3109E+03
      6.356  0.1069E+03  0.3163E+03
      6.406  0.1275E+03  0.3227E+03
      6.456  0.1575E+03  0.3305E+03
      6.506  0.1659E+03  0.3388E+03
      6.556  0.1494E+03  0.3463E+03
      6.606  0.1260E+03  0.3526E+03
      6.656  0.1108E+03  0.3581E+03
      6.706  0.1065E+03  0.3634E+03
      6.756  0.1037E+03  0.3686E+03
      6.806  0.9441E+02  0.3733E+03
      6.856  0.7829E+02  0.3772E+03
      6.906  0.6824E+02  0.3806E+03
      6.956  0.7739E+02  0.3845E+03
      7.006  0.9092E+02  0.3891E+03
      7.056  0.8717E+02  0.3934E+03
      7.106  0.7209E+02  0.3970E+03
      7.155  0.6250E+02  0.4001E+03
      7.205  0.6032E+02  0.4032E+03
      7.255  0.6245E+02  0.4063E+03
      7.305  0.7122E+02  0.4098E+03
      7.355  0.7775E+02  0.4137E+03
      7.405  0.7333E+02  0.4174E+03
      7.455  0.7076E+02  0.4209E+03
      7.505  0.7497E+02  0.4247E+03
      7.555  0.7216E+02  0.4283E+03
      7.605  0.6104E+02  0.4313E+03
      7.655  0.5738E+02  0.4342E+03
      7.705  0.6617E+02  0.4375E+03
      7.755  0.7702E+02  0.4413E+03
      7.805  0.8181E+02  0.4454E+03
      7.855  0.7988E+02  0.4494E+03
      7.905  0.7998E+02  0.4534E+03
      7.955  0.8743E+02  0.4578E+03
      8.005  0.8975E+02  0.4623E+03
      8.055  0.8724E+02  0.4666E+03
      8.105  0.9509E+02  0.4714E+03
      8.155  0.1077E+03  0.4768E+03
      8.205  0.1071E+03  0.4821E+03
      8.255  0.9090E+02  0.4867E+03
      8.305  0.7471E+02  0.4904E+03
      8.355  0.6540E+02  0.4937E+03
      8.405  0.5525E+02  0.4964E+03
      8.455  0.4652E+02  0.4987E+03
      8.505  0.5382E+02  0.5014E+03
      8.555  0.7335E+02  0.5051E+03
      8.605  0.8694E+02  0.5094E+03
      8.655  0.9556E+02  0.5142E+03
      8.704  0.9972E+02  0.5192E+03
      8.754  0.8891E+02  0.5236E+03
      8.804  0.7318E+02  0.5273E+03
      8.854  0.6382E+02  0.5305E+03
      8.904  0.5523E+02  0.5332E+03
      8.954  0.4745E+02  0.5356E+03
      9.004  0.4604E+02  0.5379E+03
      9.054  0.5287E+02  0.5406E+03
      9.104  0.6169E+02  0.5436E+03
      9.154  0.6216E+02  0.5467E+03
      9.204  0.5650E+02  0.5496E+03
      9.254  0.5914E+02  0.5525E+03
      9.304  0.7372E+02  0.5562E+03
      9.354  0.8547E+02  0.5605E+03
      9.404  0.8462E+02  0.5647E+03
      9.454  0.7287E+02  0.5683E+03
      9.504  0.5862E+02  0.5713E+03
      9.554  0.5599E+02  0.5741E+03
      9.604  0.6564E+02  0.5774E+03
      9.654  0.7029E+02  0.5809E+03
      9.704  0.6467E+02  0.5841E+03
      9.754  0.6622E+02  0.5874E+03
      9.804  0.7888E+02  0.5913E+03
      9.854  0.8430E+02  0.5956E+03
      9.904  0.8157E+02  0.5996E+03
      9.954  0.8265E+02  0.6038E+03
     10.004  0.8887E+02  0.6082E+03
     10.054  0.1025E+03  0.6133E+03
     10.104  0.1137E+03  0.6190E+03
     10.154  0.1056E+03  0.6243E+03
     10.203  0.8604E+02  0.6286E+03
     10.253  0.6925E+02  0.6320E+03
     10.303  0.5364E+02  0.6347E+03
     10.353  0.3542E+02  0.6365E+03
     10.403  0.1866E+02  0.6374E+03
     10.453  0.9069E+01  0.6379E+03
     10.503  0.5917E+01  0.6382E+03
     10.553  0.5146E+01  0.6384E+03
     10.603  0.3824E+01  0.6386E+03
     10.653  0.1766E+01  0.6387E+03
     10.703  0.4655E+00  0.6387E+03
     10.753  0.2680E+00  0.6387E+03
     10.803  0.7045E+00  0.6388E+03
     10.853  0.1004E+01  0.6388E+03
     10.903  0.6371E+00  0.6389E+03
     10.953  0.1215E+00  0.6389E+03
     11.003 -0.5135E-01  0.6389E+03
     11.053 -0.3110E-01  0.6389E+03
     11.103 -0.6581E-02  0.6389E+03
     11.153 -0.7128E-03  0.6389E+03
     11.203 -0.4313E-04  0.6389E+03
     11.253 -0.1510E-05  0.6389E+03
     11.303 -0.7089E-07  0.6389E+03
     11.353 -0.1891E-05  0.6389E+03
     11.403 -0.5300E-04  0.6389E+03
     11.453 -0.8651E-03  0.6389E+03
     11.503 -0.7999E-02  0.6389E+03
     11.553 -0.3911E-01  0.6389E+03
     11.603 -0.7721E-01  0.6389E+03
     11.653  0.9454E-01  0.6389E+03
     11.703  0.7719E+00  0.6389E+03
     11.752  0.1623E+01  0.6390E+03
     11.802  0.1816E+01  0.6391E+03
     11.852  0.1212E+01  0.6391E+03
     11.902  0.4400E+00  0.6392E+03
     11.952  0.1883E-01  0.6392E+03
     12.002 -0.5666E-01  0.6392E+03
     12.052 -0.2554E-01  0.6392E+03
     12.102 -0.9512E-02  0.6392E+03
     12.152 -0.1325E-01  0.6392E+03
     12.202  0.2959E-02  0.6392E+03
     12.252  0.1029E+00  0.6392E+03
     12.302  0.2380E+00  0.6392E+03
     12.352  0.2252E+00  0.6392E+03
     12.402  0.5061E-01  0.6392E+03
     12.452 -0.1031E+00  0.6392E+03
     12.502  0.1042E-01  0.6392E+03
     12.552  0.7681E+00  0.6392E+03
     12.602  0.2231E+01  0.6393E+03
     12.652  0.3511E+01  0.6395E+03
     12.702  0.3451E+01  0.6397E+03
     12.752  0.2188E+01  0.6398E+03
     12.802  0.8089E+00  0.6398E+03
     12.852  0.4938E-01  0.6398E+03
     12.902  0.1243E+00  0.6398E+03
     12.952  0.7332E+00  0.6399E+03
     13.002  0.1025E+01  0.6399E+03
     13.052  0.6012E+00  0.6400E+03
     13.102  0.9031E-01  0.6400E+03
     13.152 -0.6620E-01  0.6400E+03
     13.202 -0.1517E-01  0.6400E+03
     13.251  0.1230E+00  0.6400E+03
     13.301  0.2519E+00  0.6400E+03
     13.351  0.2151E+00  0.6400E+03
     13.401  0.7235E-01  0.6400E+03
     13.451 -0.6041E-02  0.6400E+03
     13.501 -0.1114E-01  0.6400E+03
     13.551 -0.3238E-02  0.6400E+03
     13.601 -0.7928E-03  0.6400E+03
     13.651 -0.2274E-02  0.6400E+03
     13.701 -0.6337E-02  0.6400E+03
     13.751  0.1161E-02  0.6400E+03
     13.801  0.5062E-01  0.6400E+03
     13.851  0.1191E+00  0.6400E+03
     13.901  0.1178E+00  0.6400E+03
     13.951  0.4874E-01  0.6400E+03
     14.001  0.5355E-03  0.6400E+03
     14.051 -0.6258E-02  0.6400E+03
     14.101 -0.2154E-02  0.6400E+03
     14.151 -0.3336E-03  0.6400E+03
     14.201 -0.2779E-04  0.6400E+03
     14.251 -0.1318E-05  0.6400E+03
     14.301 -0.3645E-07  0.6400E+03
     14.351 -0.5959E-09  0.6400E+03
     14.401 -0.5802E-11  0.6400E+03
     14.451 -0.3377E-13  0.6400E+03
     14.501 -0.1422E-15  0.6400E+03
     14.551  0.0000E+00  0.6400E+03
     14.601  0.0000E+00  0.6400E+03
     14.651  0.0000E+00  0.6400E+03
     14.701  0.0000E+00  0.6400E+03
     14.751  0.0000E+00  0.6400E+03
     14.800  0.0000E+00  0.6400E+03
     14.850  0.0000E+00  0.6400E+03
