 256 256   0   0
  0.1419206E+02  0.1537080E-08  0.1537218E-08  0.1537636E-08  0.5000000E-15
  1.000000000000000E-004
  CAR 
 Ir_Ru                                   
     12.68419519     -1.29449496  301      9.24209360      1.00000000
     -1.294  0.0000E+00  0.0000E+00
     -1.248  0.0000E+00  0.0000E+00
     -1.201  0.0000E+00  0.0000E+00
     -1.155  0.0000E+00  0.0000E+00
     -1.108 -0.2743E-28 -0.1278E-29
     -1.062 -0.4090E-25 -0.1907E-26
     -1.015 -0.3934E-22 -0.1835E-23
     -0.968 -0.2442E-19 -0.1140E-20
     -0.922 -0.9784E-17 -0.4570E-18
     -0.875 -0.2454E-14 -0.1148E-15
     -0.829 -0.4069E-12 -0.1907E-13
     -0.782 -0.4345E-10 -0.2044E-11
     -0.735 -0.2990E-08 -0.1414E-09
     -0.689 -0.1327E-06 -0.6325E-08
     -0.642 -0.3803E-05 -0.1835E-06
     -0.596 -0.7058E-04 -0.3472E-05
     -0.549 -0.8506E-03 -0.4310E-04
     -0.502 -0.6659E-02 -0.3534E-03
     -0.456 -0.3347E-01 -0.1913E-02
     -0.409 -0.1019E+00 -0.6659E-02
     -0.363 -0.1378E+00 -0.1308E-01
     -0.316  0.2223E+00 -0.2720E-02
     -0.269  0.1505E+01  0.6741E-01
     -0.223  0.3534E+01  0.2321E+00
     -0.176  0.5067E+01  0.4682E+00
     -0.130  0.5728E+01  0.7351E+00
     -0.083  0.7314E+01  0.1076E+01
     -0.036  0.1019E+02  0.1550E+01
      0.010  0.1102E+02  0.2064E+01
      0.057  0.9152E+01  0.2491E+01
      0.103  0.9358E+01  0.2927E+01
      0.150  0.1312E+02  0.3538E+01
      0.197  0.1590E+02  0.4279E+01
      0.243  0.1603E+02  0.5026E+01
      0.290  0.1670E+02  0.5804E+01
      0.336  0.1847E+02  0.6665E+01
      0.383  0.1834E+02  0.7519E+01
      0.430  0.1740E+02  0.8330E+01
      0.476  0.1972E+02  0.9249E+01
      0.523  0.2332E+02  0.1034E+02
      0.569  0.2404E+02  0.1146E+02
      0.616  0.2229E+02  0.1249E+02
      0.663  0.1879E+02  0.1337E+02
      0.709  0.1415E+02  0.1403E+02
      0.756  0.1117E+02  0.1455E+02
      0.802  0.1072E+02  0.1505E+02
      0.849  0.1119E+02  0.1557E+02
      0.895  0.1226E+02  0.1614E+02
      0.942  0.1474E+02  0.1683E+02
      0.989  0.1838E+02  0.1769E+02
      1.035  0.2288E+02  0.1875E+02
      1.082  0.2806E+02  0.2006E+02
      1.128  0.3124E+02  0.2152E+02
      1.175  0.2973E+02  0.2290E+02
      1.222  0.2587E+02  0.2411E+02
      1.268  0.2301E+02  0.2518E+02
      1.315  0.2091E+02  0.2615E+02
      1.361  0.2000E+02  0.2708E+02
      1.408  0.2163E+02  0.2809E+02
      1.455  0.2411E+02  0.2921E+02
      1.501  0.2568E+02  0.3041E+02
      1.548  0.2894E+02  0.3176E+02
      1.594  0.3504E+02  0.3339E+02
      1.641  0.3870E+02  0.3520E+02
      1.688  0.3785E+02  0.3696E+02
      1.734  0.3922E+02  0.3879E+02
      1.781  0.4547E+02  0.4091E+02
      1.827  0.4934E+02  0.4321E+02
      1.874  0.4782E+02  0.4543E+02
      1.921  0.4724E+02  0.4763E+02
      1.967  0.5085E+02  0.5000E+02
      2.014  0.5411E+02  0.5253E+02
      2.060  0.5542E+02  0.5511E+02
      2.107  0.6117E+02  0.5796E+02
      2.154  0.7433E+02  0.6142E+02
      2.200  0.8929E+02  0.6558E+02
      2.247  0.1031E+03  0.7039E+02
      2.293  0.1178E+03  0.7588E+02
      2.340  0.1310E+03  0.8198E+02
      2.387  0.1382E+03  0.8842E+02
      2.433  0.1432E+03  0.9509E+02
      2.480  0.1522E+03  0.1022E+03
      2.526  0.1609E+03  0.1097E+03
      2.573  0.1616E+03  0.1172E+03
      2.620  0.1612E+03  0.1247E+03
      2.666  0.1687E+03  0.1326E+03
      2.713  0.1784E+03  0.1409E+03
      2.759  0.1848E+03  0.1495E+03
      2.806  0.1978E+03  0.1587E+03
      2.853  0.2228E+03  0.1691E+03
      2.899  0.2475E+03  0.1806E+03
      2.946  0.2563E+03  0.1926E+03
      2.992  0.2497E+03  0.2042E+03
      3.039  0.2468E+03  0.2157E+03
      3.085  0.2621E+03  0.2279E+03
      3.132  0.2865E+03  0.2413E+03
      3.179  0.3013E+03  0.2553E+03
      3.225  0.3039E+03  0.2695E+03
      3.272  0.3051E+03  0.2837E+03
      3.318  0.3085E+03  0.2981E+03
      3.365  0.3114E+03  0.3126E+03
      3.412  0.3149E+03  0.3273E+03
      3.458  0.3222E+03  0.3423E+03
      3.505  0.3337E+03  0.3578E+03
      3.551  0.3441E+03  0.3738E+03
      3.598  0.3468E+03  0.3900E+03
      3.645  0.3449E+03  0.4061E+03
      3.691  0.3487E+03  0.4223E+03
      3.738  0.3576E+03  0.4390E+03
      3.784  0.3593E+03  0.4557E+03
      3.831  0.3524E+03  0.4722E+03
      3.878  0.3481E+03  0.4884E+03
      3.924  0.3499E+03  0.5047E+03
      3.971  0.3508E+03  0.5210E+03
      4.017  0.3416E+03  0.5369E+03
      4.064  0.3228E+03  0.5520E+03
      4.111  0.3066E+03  0.5663E+03
      4.157  0.2975E+03  0.5801E+03
      4.204  0.2874E+03  0.5935E+03
      4.250  0.2713E+03  0.6062E+03
      4.297  0.2537E+03  0.6180E+03
      4.344  0.2427E+03  0.6293E+03
      4.390  0.2452E+03  0.6407E+03
      4.437  0.2577E+03  0.6527E+03
      4.483  0.2617E+03  0.6649E+03
      4.530  0.2505E+03  0.6766E+03
      4.577  0.2474E+03  0.6881E+03
      4.623  0.2670E+03  0.7006E+03
      4.670  0.2920E+03  0.7142E+03
      4.716  0.3070E+03  0.7285E+03
      4.763  0.3137E+03  0.7431E+03
      4.810  0.3135E+03  0.7577E+03
      4.856  0.3050E+03  0.7719E+03
      4.903  0.2904E+03  0.7854E+03
      4.949  0.2786E+03  0.7984E+03
      4.996  0.2811E+03  0.8115E+03
      5.043  0.2952E+03  0.8253E+03
      5.089  0.3079E+03  0.8396E+03
      5.136  0.3093E+03  0.8540E+03
      5.182  0.2977E+03  0.8679E+03
      5.229  0.2856E+03  0.8812E+03
      5.275  0.2844E+03  0.8945E+03
      5.322  0.2903E+03  0.9080E+03
      5.369  0.2972E+03  0.9218E+03
      5.415  0.3018E+03  0.9359E+03
      5.462  0.2986E+03  0.9498E+03
      5.508  0.2887E+03  0.9633E+03
      5.555  0.2866E+03  0.9766E+03
      5.602  0.3026E+03  0.9907E+03
      5.648  0.3215E+03  0.1006E+04
      5.695  0.3253E+03  0.1021E+04
      5.741  0.3201E+03  0.1036E+04
      5.788  0.3198E+03  0.1051E+04
      5.835  0.3262E+03  0.1066E+04
      5.881  0.3368E+03  0.1082E+04
      5.928  0.3501E+03  0.1098E+04
      5.974  0.3652E+03  0.1115E+04
      6.021  0.3788E+03  0.1133E+04
      6.068  0.3855E+03  0.1151E+04
      6.114  0.3876E+03  0.1169E+04
      6.161  0.3917E+03  0.1187E+04
      6.207  0.3985E+03  0.1205E+04
      6.254  0.4094E+03  0.1224E+04
      6.301  0.4270E+03  0.1244E+04
      6.347  0.4463E+03  0.1265E+04
      6.394  0.4573E+03  0.1286E+04
      6.440  0.4571E+03  0.1308E+04
      6.487  0.4530E+03  0.1329E+04
      6.534  0.4500E+03  0.1350E+04
      6.580  0.4457E+03  0.1371E+04
      6.627  0.4394E+03  0.1391E+04
      6.673  0.4321E+03  0.1411E+04
      6.720  0.4251E+03  0.1431E+04
      6.767  0.4173E+03  0.1450E+04
      6.813  0.4018E+03  0.1469E+04
      6.860  0.3770E+03  0.1487E+04
      6.906  0.3545E+03  0.1503E+04
      6.953  0.3443E+03  0.1519E+04
      7.000  0.3393E+03  0.1535E+04
      7.046  0.3278E+03  0.1550E+04
      7.093  0.3148E+03  0.1565E+04
      7.139  0.3133E+03  0.1580E+04
      7.186  0.3192E+03  0.1595E+04
      7.233  0.3135E+03  0.1609E+04
      7.279  0.2877E+03  0.1623E+04
      7.326  0.2561E+03  0.1634E+04
      7.372  0.2401E+03  0.1646E+04
      7.419  0.2485E+03  0.1657E+04
      7.465  0.2710E+03  0.1670E+04
      7.512  0.2846E+03  0.1683E+04
      7.559  0.2766E+03  0.1696E+04
      7.605  0.2586E+03  0.1708E+04
      7.652  0.2484E+03  0.1720E+04
      7.698  0.2571E+03  0.1732E+04
      7.745  0.2826E+03  0.1745E+04
      7.792  0.3052E+03  0.1759E+04
      7.838  0.3119E+03  0.1774E+04
      7.885  0.3088E+03  0.1788E+04
      7.931  0.3031E+03  0.1802E+04
      7.978  0.2961E+03  0.1816E+04
      8.025  0.2910E+03  0.1829E+04
      8.071  0.2957E+03  0.1843E+04
      8.118  0.3091E+03  0.1858E+04
      8.164  0.3170E+03  0.1872E+04
      8.211  0.3176E+03  0.1887E+04
      8.258  0.3294E+03  0.1903E+04
      8.304  0.3533E+03  0.1919E+04
      8.351  0.3624E+03  0.1936E+04
      8.397  0.3404E+03  0.1952E+04
      8.444  0.3006E+03  0.1966E+04
      8.491  0.2674E+03  0.1978E+04
      8.537  0.2557E+03  0.1990E+04
      8.584  0.2705E+03  0.2003E+04
      8.630  0.2951E+03  0.2016E+04
      8.677  0.3000E+03  0.2030E+04
      8.724  0.2841E+03  0.2044E+04
      8.770  0.2677E+03  0.2056E+04
      8.817  0.2572E+03  0.2068E+04
      8.863  0.2493E+03  0.2080E+04
      8.910  0.2453E+03  0.2091E+04
      8.957  0.2454E+03  0.2103E+04
      9.003  0.2532E+03  0.2114E+04
      9.050  0.2729E+03  0.2127E+04
      9.096  0.2839E+03  0.2140E+04
      9.143  0.2664E+03  0.2153E+04
      9.190  0.2411E+03  0.2164E+04
      9.236  0.2284E+03  0.2175E+04
      9.283  0.2201E+03  0.2185E+04
      9.329  0.2139E+03  0.2195E+04
      9.376  0.2217E+03  0.2205E+04
      9.423  0.2421E+03  0.2216E+04
      9.469  0.2620E+03  0.2229E+04
      9.516  0.2734E+03  0.2241E+04
      9.562  0.2772E+03  0.2254E+04
      9.609  0.2763E+03  0.2267E+04
      9.655  0.2711E+03  0.2280E+04
      9.702  0.2613E+03  0.2292E+04
      9.749  0.2442E+03  0.2303E+04
      9.795  0.2246E+03  0.2314E+04
      9.842  0.2194E+03  0.2324E+04
      9.888  0.2362E+03  0.2335E+04
      9.935  0.2637E+03  0.2347E+04
      9.982  0.2945E+03  0.2361E+04
     10.028  0.3267E+03  0.2376E+04
     10.075  0.3489E+03  0.2393E+04
     10.121  0.3466E+03  0.2409E+04
     10.168  0.3243E+03  0.2424E+04
     10.215  0.3101E+03  0.2438E+04
     10.261  0.3284E+03  0.2454E+04
     10.308  0.3858E+03  0.2472E+04
     10.354  0.4651E+03  0.2493E+04
     10.401  0.5182E+03  0.2517E+04
     10.448  0.5098E+03  0.2541E+04
     10.494  0.4517E+03  0.2562E+04
     10.541  0.3752E+03  0.2580E+04
     10.587  0.3031E+03  0.2594E+04
     10.634  0.2488E+03  0.2605E+04
     10.681  0.2129E+03  0.2615E+04
     10.727  0.1816E+03  0.2624E+04
     10.774  0.1430E+03  0.2630E+04
     10.820  0.9813E+02  0.2635E+04
     10.867  0.5686E+02  0.2638E+04
     10.914  0.2757E+02  0.2639E+04
     10.960  0.1096E+02  0.2639E+04
     11.007  0.3531E+01  0.2640E+04
     11.053  0.1583E+01  0.2640E+04
     11.100  0.1704E+01  0.2640E+04
     11.147  0.1485E+01  0.2640E+04
     11.193  0.6290E+00  0.2640E+04
     11.240  0.9259E-02  0.2640E+04
     11.286 -0.1078E+00  0.2640E+04
     11.333 -0.4842E-01  0.2640E+04
     11.380 -0.1068E-01  0.2640E+04
     11.426 -0.3384E-02  0.2640E+04
     11.473 -0.1302E-01  0.2640E+04
     11.519 -0.4219E-01  0.2640E+04
     11.566 -0.3635E-01  0.2640E+04
     11.612  0.1973E+00  0.2640E+04
     11.659  0.7129E+00  0.2640E+04
     11.706  0.1026E+01  0.2640E+04
     11.752  0.7256E+00  0.2640E+04
     11.799  0.2073E+00  0.2640E+04
     11.845 -0.3434E-01  0.2640E+04
     11.892 -0.4295E-01  0.2640E+04
     11.939 -0.1341E-01  0.2640E+04
     11.985 -0.2180E-02  0.2640E+04
     12.032 -0.2080E-03  0.2640E+04
     12.078 -0.1215E-04  0.2640E+04
     12.125 -0.4435E-06  0.2640E+04
     12.172 -0.1023E-07  0.2640E+04
     12.218 -0.1503E-09  0.2640E+04
     12.265 -0.1411E-11  0.2640E+04
     12.311 -0.8637E-14  0.2640E+04
     12.358  0.0000E+00  0.2640E+04
     12.405  0.0000E+00  0.2640E+04
     12.451  0.0000E+00  0.2640E+04
     12.498  0.0000E+00  0.2640E+04
     12.544  0.0000E+00  0.2640E+04
     12.591  0.0000E+00  0.2640E+04
     12.638  0.0000E+00  0.2640E+04
     12.684  0.0000E+00  0.2640E+04
