 256 256   0   0
  0.1418917E+02  0.1588033E-08  0.1692661E-08  0.1693229E-08  0.5000000E-15
  1.000000000000000E-004
  CAR 
 Ir_Ru                                   
     14.28118324     -1.29167730  301      9.45687460      1.00000000
     -1.292  0.0000E+00  0.0000E+00
     -1.240  0.0000E+00  0.0000E+00
     -1.188  0.0000E+00  0.0000E+00
     -1.136 -0.2819E-30 -0.1463E-31
     -1.084 -0.1294E-26 -0.6721E-28
     -1.032 -0.3453E-23 -0.1793E-24
     -0.980 -0.5348E-20 -0.2778E-21
     -0.928 -0.4804E-17 -0.2496E-18
     -0.876 -0.2441E-14 -0.1270E-15
     -0.824 -0.7272E-12 -0.3787E-13
     -0.773 -0.1256E-09 -0.6556E-11
     -0.721 -0.1247E-07 -0.6539E-09
     -0.669 -0.7092E-06 -0.3747E-07
     -0.617 -0.2297E-04 -0.1230E-05
     -0.565 -0.4206E-03 -0.2306E-04
     -0.513 -0.4312E-02 -0.2469E-03
     -0.461 -0.2449E-01 -0.1518E-02
     -0.409 -0.7552E-01 -0.5438E-02
     -0.357 -0.1016E+00 -0.1071E-01
     -0.305  0.2105E+00  0.2173E-03
     -0.253  0.1655E+01  0.8614E-01
     -0.202  0.4419E+01  0.3156E+00
     -0.150  0.6360E+01  0.6457E+00
     -0.098  0.6421E+01  0.9790E+00
     -0.046  0.6973E+01  0.1341E+01
      0.006  0.8878E+01  0.1802E+01
      0.058  0.1120E+02  0.2383E+01
      0.110  0.1363E+02  0.3091E+01
      0.162  0.1433E+02  0.3835E+01
      0.214  0.1167E+02  0.4440E+01
      0.266  0.1008E+02  0.4963E+01
      0.318  0.1433E+02  0.5707E+01
      0.369  0.2038E+02  0.6765E+01
      0.421  0.2251E+02  0.7934E+01
      0.473  0.2271E+02  0.9112E+01
      0.525  0.2352E+02  0.1033E+02
      0.577  0.2249E+02  0.1150E+02
      0.629  0.2041E+02  0.1256E+02
      0.681  0.2102E+02  0.1365E+02
      0.733  0.2037E+02  0.1471E+02
      0.785  0.1452E+02  0.1546E+02
      0.837  0.8821E+01  0.1592E+02
      0.889  0.8046E+01  0.1634E+02
      0.940  0.1178E+02  0.1695E+02
      0.992  0.1904E+02  0.1794E+02
      1.044  0.2801E+02  0.1939E+02
      1.096  0.3342E+02  0.2113E+02
      1.148  0.3302E+02  0.2284E+02
      1.200  0.2870E+02  0.2433E+02
      1.252  0.2274E+02  0.2551E+02
      1.304  0.1949E+02  0.2652E+02
      1.356  0.2177E+02  0.2765E+02
      1.408  0.2725E+02  0.2907E+02
      1.460  0.3034E+02  0.3064E+02
      1.511  0.2978E+02  0.3219E+02
      1.563  0.2934E+02  0.3371E+02
      1.615  0.3044E+02  0.3529E+02
      1.667  0.3113E+02  0.3691E+02
      1.719  0.3203E+02  0.3857E+02
      1.771  0.3503E+02  0.4039E+02
      1.823  0.3916E+02  0.4242E+02
      1.875  0.4560E+02  0.4479E+02
      1.927  0.5472E+02  0.4763E+02
      1.979  0.5930E+02  0.5071E+02
      2.031  0.5468E+02  0.5355E+02
      2.082  0.5065E+02  0.5617E+02
      2.134  0.6205E+02  0.5940E+02
      2.186  0.8737E+02  0.6393E+02
      2.238  0.1090E+03  0.6959E+02
      2.290  0.1198E+03  0.7581E+02
      2.342  0.1259E+03  0.8234E+02
      2.394  0.1317E+03  0.8918E+02
      2.446  0.1377E+03  0.9633E+02
      2.498  0.1476E+03  0.1040E+03
      2.550  0.1649E+03  0.1125E+03
      2.602  0.1833E+03  0.1221E+03
      2.653  0.1950E+03  0.1322E+03
      2.705  0.2070E+03  0.1429E+03
      2.757  0.2241E+03  0.1546E+03
      2.809  0.2308E+03  0.1665E+03
      2.861  0.2245E+03  0.1782E+03
      2.913  0.2279E+03  0.1900E+03
      2.965  0.2455E+03  0.2028E+03
      3.017  0.2579E+03  0.2162E+03
      3.069  0.2600E+03  0.2297E+03
      3.121  0.2607E+03  0.2432E+03
      3.173  0.2643E+03  0.2569E+03
      3.224  0.2734E+03  0.2711E+03
      3.276  0.2886E+03  0.2861E+03
      3.328  0.3081E+03  0.3021E+03
      3.380  0.3250E+03  0.3189E+03
      3.432  0.3310E+03  0.3361E+03
      3.484  0.3277E+03  0.3531E+03
      3.536  0.3212E+03  0.3698E+03
      3.588  0.3181E+03  0.3863E+03
      3.640  0.3163E+03  0.4027E+03
      3.692  0.3106E+03  0.4189E+03
      3.744  0.3048E+03  0.4347E+03
      3.795  0.3009E+03  0.4503E+03
      3.847  0.2967E+03  0.4657E+03
      3.899  0.2932E+03  0.4809E+03
      3.951  0.2883E+03  0.4959E+03
      4.003  0.2756E+03  0.5102E+03
      4.055  0.2664E+03  0.5240E+03
      4.107  0.2762E+03  0.5384E+03
      4.159  0.2947E+03  0.5537E+03
      4.211  0.3029E+03  0.5694E+03
      4.263  0.3055E+03  0.5853E+03
      4.315  0.3126E+03  0.6015E+03
      4.366  0.3191E+03  0.6180E+03
      4.418  0.3215E+03  0.6347E+03
      4.470  0.3237E+03  0.6515E+03
      4.522  0.3207E+03  0.6682E+03
      4.574  0.3090E+03  0.6842E+03
      4.626  0.2969E+03  0.6996E+03
      4.678  0.2935E+03  0.7149E+03
      4.730  0.2984E+03  0.7304E+03
      4.782  0.3062E+03  0.7463E+03
      4.834  0.3184E+03  0.7628E+03
      4.886  0.3319E+03  0.7800E+03
      4.937  0.3380E+03  0.7976E+03
      4.989  0.3457E+03  0.8155E+03
      5.041  0.3588E+03  0.8341E+03
      5.093  0.3658E+03  0.8531E+03
      5.145  0.3642E+03  0.8720E+03
      5.197  0.3545E+03  0.8904E+03
      5.249  0.3334E+03  0.9077E+03
      5.301  0.3005E+03  0.9233E+03
      5.353  0.2591E+03  0.9368E+03
      5.405  0.2161E+03  0.9480E+03
      5.457  0.1831E+03  0.9575E+03
      5.508  0.1727E+03  0.9665E+03
      5.560  0.1906E+03  0.9764E+03
      5.612  0.2296E+03  0.9883E+03
      5.664  0.2784E+03  0.1003E+04
      5.716  0.3284E+03  0.1020E+04
      5.768  0.3697E+03  0.1039E+04
      5.820  0.3963E+03  0.1060E+04
      5.872  0.4109E+03  0.1081E+04
      5.924  0.4196E+03  0.1103E+04
      5.976  0.4261E+03  0.1125E+04
      6.028  0.4280E+03  0.1147E+04
      6.079  0.4152E+03  0.1169E+04
      6.131  0.3905E+03  0.1189E+04
      6.183  0.3710E+03  0.1208E+04
      6.235  0.3606E+03  0.1227E+04
      6.287  0.3551E+03  0.1245E+04
      6.339  0.3569E+03  0.1264E+04
      6.391  0.3702E+03  0.1283E+04
      6.443  0.3824E+03  0.1303E+04
      6.495  0.3845E+03  0.1323E+04
      6.547  0.3926E+03  0.1343E+04
      6.599  0.4110E+03  0.1364E+04
      6.650  0.4244E+03  0.1387E+04
      6.702  0.4281E+03  0.1409E+04
      6.754  0.4248E+03  0.1431E+04
      6.806  0.4122E+03  0.1452E+04
      6.858  0.3907E+03  0.1472E+04
      6.910  0.3727E+03  0.1492E+04
      6.962  0.3664E+03  0.1511E+04
      7.014  0.3636E+03  0.1530E+04
      7.066  0.3690E+03  0.1549E+04
      7.118  0.3929E+03  0.1569E+04
      7.170  0.4156E+03  0.1591E+04
      7.221  0.4222E+03  0.1613E+04
      7.273  0.4221E+03  0.1635E+04
      7.325  0.4124E+03  0.1656E+04
      7.377  0.3862E+03  0.1676E+04
      7.429  0.3574E+03  0.1695E+04
      7.481  0.3395E+03  0.1712E+04
      7.533  0.3324E+03  0.1730E+04
      7.585  0.3283E+03  0.1747E+04
      7.637  0.3158E+03  0.1763E+04
      7.689  0.2943E+03  0.1778E+04
      7.741  0.2767E+03  0.1793E+04
      7.792  0.2683E+03  0.1807E+04
      7.844  0.2634E+03  0.1820E+04
      7.896  0.2571E+03  0.1834E+04
      7.948  0.2478E+03  0.1846E+04
      8.000  0.2427E+03  0.1859E+04
      8.052  0.2431E+03  0.1872E+04
      8.104  0.2387E+03  0.1884E+04
      8.156  0.2310E+03  0.1896E+04
      8.208  0.2292E+03  0.1908E+04
      8.260  0.2338E+03  0.1920E+04
      8.312  0.2379E+03  0.1932E+04
      8.363  0.2391E+03  0.1945E+04
      8.415  0.2366E+03  0.1957E+04
      8.467  0.2281E+03  0.1969E+04
      8.519  0.2179E+03  0.1980E+04
      8.571  0.2117E+03  0.1991E+04
      8.623  0.2067E+03  0.2002E+04
      8.675  0.1993E+03  0.2012E+04
      8.727  0.1908E+03  0.2022E+04
      8.779  0.1827E+03  0.2032E+04
      8.831  0.1795E+03  0.2041E+04
      8.883  0.1894E+03  0.2051E+04
      8.935  0.2151E+03  0.2062E+04
      8.986  0.2363E+03  0.2074E+04
      9.038  0.2357E+03  0.2087E+04
      9.090  0.2223E+03  0.2098E+04
      9.142  0.2051E+03  0.2109E+04
      9.194  0.1859E+03  0.2118E+04
      9.246  0.1793E+03  0.2128E+04
      9.298  0.1996E+03  0.2138E+04
      9.350  0.2302E+03  0.2150E+04
      9.402  0.2432E+03  0.2163E+04
      9.454  0.2429E+03  0.2175E+04
      9.506  0.2451E+03  0.2188E+04
      9.557  0.2442E+03  0.2201E+04
      9.609  0.2473E+03  0.2213E+04
      9.661  0.2777E+03  0.2228E+04
      9.713  0.3201E+03  0.2244E+04
      9.765  0.3355E+03  0.2262E+04
      9.817  0.3254E+03  0.2279E+04
      9.869  0.3162E+03  0.2295E+04
      9.921  0.3155E+03  0.2312E+04
      9.973  0.3228E+03  0.2328E+04
     10.025  0.3456E+03  0.2346E+04
     10.077  0.3829E+03  0.2366E+04
     10.128  0.4148E+03  0.2388E+04
     10.180  0.4292E+03  0.2410E+04
     10.232  0.4370E+03  0.2433E+04
     10.284  0.4499E+03  0.2456E+04
     10.336  0.4682E+03  0.2480E+04
     10.388  0.4857E+03  0.2506E+04
     10.440  0.4945E+03  0.2531E+04
     10.492  0.4842E+03  0.2556E+04
     10.544  0.4448E+03  0.2579E+04
     10.596  0.3846E+03  0.2599E+04
     10.648  0.3165E+03  0.2616E+04
     10.699  0.2331E+03  0.2628E+04
     10.751  0.1331E+03  0.2635E+04
     10.803  0.4699E+02  0.2637E+04
     10.855  0.3458E+01  0.2637E+04
     10.907 -0.4913E+01  0.2637E+04
     10.959 -0.2426E+01  0.2637E+04
     11.011 -0.6001E+00  0.2637E+04
     11.063 -0.9948E-01  0.2637E+04
     11.115 -0.1158E-01  0.2637E+04
     11.167 -0.8857E-03  0.2637E+04
     11.219 -0.9505E-04  0.2637E+04
     11.270 -0.9140E-03  0.2637E+04
     11.322 -0.8169E-02  0.2637E+04
     11.374 -0.3419E-01  0.2637E+04
     11.426 -0.3010E-01  0.2637E+04
     11.478  0.2225E+00  0.2637E+04
     11.530  0.7329E+00  0.2637E+04
     11.582  0.8724E+00  0.2637E+04
     11.634  0.4220E+00  0.2637E+04
     11.686  0.2728E-01  0.2637E+04
     11.738 -0.4930E-01  0.2637E+04
     11.790 -0.4956E-01  0.2637E+04
     11.841 -0.1148E+00  0.2637E+04
     11.893 -0.2167E-01  0.2637E+04
     11.945  0.8690E+00  0.2637E+04
     11.997  0.2267E+01  0.2637E+04
     12.049  0.2389E+01  0.2637E+04
     12.101  0.1277E+01  0.2637E+04
     12.153  0.8864E+00  0.2638E+04
     12.205  0.1354E+01  0.2638E+04
     12.257  0.1952E+01  0.2638E+04
     12.309  0.2835E+01  0.2638E+04
     12.361  0.3480E+01  0.2638E+04
     12.412  0.3034E+01  0.2638E+04
     12.464  0.2195E+01  0.2638E+04
     12.516  0.2012E+01  0.2638E+04
     12.568  0.2493E+01  0.2639E+04
     12.620  0.2964E+01  0.2639E+04
     12.672  0.3297E+01  0.2639E+04
     12.724  0.3588E+01  0.2639E+04
     12.776  0.3223E+01  0.2639E+04
     12.828  0.2625E+01  0.2639E+04
     12.880  0.2681E+01  0.2639E+04
     12.932  0.2554E+01  0.2640E+04
     12.983  0.1723E+01  0.2640E+04
     13.035  0.1041E+01  0.2640E+04
     13.087  0.6242E+00  0.2640E+04
     13.139  0.4533E+00  0.2640E+04
     13.191  0.8153E+00  0.2640E+04
     13.243  0.1235E+01  0.2640E+04
     13.295  0.1196E+01  0.2640E+04
     13.347  0.6958E+00  0.2640E+04
     13.399  0.1550E+00  0.2640E+04
     13.451 -0.4660E-01  0.2640E+04
     13.503 -0.3365E-01  0.2640E+04
     13.554 -0.7364E-02  0.2640E+04
     13.606 -0.7818E-03  0.2640E+04
     13.658 -0.4432E-04  0.2640E+04
     13.710 -0.1393E-05  0.2640E+04
     13.762 -0.2471E-07  0.2640E+04
     13.814 -0.2499E-09  0.2640E+04
     13.866 -0.1450E-11  0.2640E+04
     13.918 -0.5228E-14  0.2640E+04
     13.970  0.0000E+00  0.2640E+04
     14.022  0.0000E+00  0.2640E+04
     14.074  0.0000E+00  0.2640E+04
     14.125  0.0000E+00  0.2640E+04
     14.177  0.0000E+00  0.2640E+04
     14.229  0.0000E+00  0.2640E+04
     14.281  0.0000E+00  0.2640E+04
