       N       E                     dE             d eps       ncg     rms          rms(c)
RMM:   1     0.136790718364E+05    0.13679E+05   -0.47218E+05 25080   0.725E+02
RMM:   2     0.131336054499E+04   -0.12366E+05   -0.13120E+05 25080   0.260E+02
RMM:   3    -0.104567220566E+04   -0.23590E+04   -0.22856E+04 25080   0.111E+02
RMM:   4    -0.184599505910E+04   -0.80032E+03   -0.57406E+03 25080   0.768E+01
RMM:   5    -0.212910891024E+04   -0.28311E+03   -0.24896E+03 25080   0.451E+01
RMM:   6    -0.227482953132E+04   -0.14572E+03   -0.12952E+03 25080   0.349E+01
RMM:   7    -0.235269086656E+04   -0.77861E+02   -0.73852E+02 25080   0.235E+01
RMM:   8    -0.240018755461E+04   -0.47497E+02   -0.44555E+02 25080   0.195E+01
RMM:   9    -0.247907921579E+04   -0.78892E+02   -0.77971E+02 71865   0.137E+01
RMM:  10    -0.248863600230E+04   -0.95568E+01   -0.11979E+02 79656   0.282E+00
RMM:  11    -0.249087424077E+04   -0.22382E+01   -0.17827E+01 77271   0.686E-01
RMM:  12    -0.249118079215E+04   -0.30655E+00   -0.19852E+00 79537   0.198E-01    0.782E+01
RMM:  13    -0.241364746796E+04    0.77533E+02   -0.68476E+02 57177   0.246E+01    0.583E+01
RMM:  14    -0.236778864288E+04    0.45859E+02   -0.34128E+02 51439   0.174E+01    0.416E+01
RMM:  15    -0.233561699404E+04    0.32172E+02   -0.11851E+02 53330   0.101E+01    0.255E+01
RMM:  16    -0.232130513965E+04    0.14312E+02   -0.25842E+01 55993   0.435E+00    0.431E+00
RMM:  17    -0.232142540195E+04   -0.12026E+00   -0.64088E+00 73389   0.132E+00    0.415E+00
RMM:  18    -0.232110295121E+04    0.32245E+00   -0.11844E+00 64119   0.725E-01    0.342E+00
RMM:  19    -0.232074964446E+04    0.35331E+00   -0.59418E-01 60638   0.671E-01    0.168E+00
RMM:  20    -0.232068823634E+04    0.61408E-01   -0.23216E-01 62088   0.367E-01    0.145E+00
RMM:  21    -0.232066160170E+04    0.26635E-01   -0.10981E-01 63738   0.224E-01    0.128E+00
RMM:  22    -0.232063349829E+04    0.28103E-01   -0.46048E-02 61532   0.154E-01    0.699E-01
RMM:  23    -0.232062837390E+04    0.51244E-02   -0.13754E-02 66018   0.709E-02    0.472E-01
RMM:  24    -0.232062520879E+04    0.31651E-02   -0.10694E-02 63530   0.751E-02    0.246E-01
RMM:  25    -0.232062620767E+04   -0.99888E-03   -0.12666E-02 66383   0.771E-02    0.263E-01
RMM:  26    -0.232062630152E+04   -0.93841E-04   -0.31122E-03 75071   0.279E-02    0.269E-01
RMM:  27    -0.232062534182E+04    0.95970E-03   -0.74643E-04 59848   0.212E-02    0.174E-01
RMM:  28    -0.232062477867E+04    0.56315E-03   -0.12065E-03 63972   0.252E-02    0.667E-02
RMM:  29    -0.232062470956E+04    0.69112E-04   -0.52688E-04 71836   0.139E-02
   1 F= -.23206247E+04 E0= -.23206246E+04  d E =-.313691E-03
