       N       E                     dE             d eps       ncg     rms          rms(c)
DAV:   1     0.112830206785E+05    0.11283E+05   -0.55466E+05 95400   0.810E+02
DAV:   2    -0.143892118903E+04   -0.12722E+05   -0.12145E+05 95800   0.337E+02
DAV:   3    -0.241088747706E+04   -0.97197E+03   -0.89396E+03135200   0.780E+01
DAV:   4    -0.248224872767E+04   -0.71361E+02   -0.68924E+02132060   0.209E+01
DAV:   5    -0.248511597112E+04   -0.28672E+01   -0.28105E+01140060   0.331E+00    0.779E+01
RMM:   6    -0.241641837061E+04    0.68698E+02   -0.68062E+02105887   0.245E+01    0.623E+01
RMM:   7    -0.236999211377E+04    0.46426E+02   -0.35227E+02 97779   0.172E+01    0.455E+01
RMM:   8    -0.233987217252E+04    0.30120E+02   -0.15704E+02 97685   0.114E+01    0.321E+01
RMM:   9    -0.231563982129E+04    0.24232E+02   -0.34499E+01 98780   0.532E+00    0.622E+00
RMM:  10    -0.231545730628E+04    0.18252E+00   -0.73551E+00136693   0.152E+00    0.364E+00
RMM:  11    -0.231536373449E+04    0.93572E-01   -0.13296E+00122300   0.726E-01    0.408E+00
RMM:  12    -0.231489573142E+04    0.46800E+00   -0.56900E-01113460   0.666E-01    0.204E+00
RMM:  13    -0.231478351518E+04    0.11222E+00   -0.25717E-01112526   0.437E-01    0.138E+00
RMM:  14    -0.231479201427E+04   -0.84991E-02   -0.16185E-01117980   0.282E-01    0.179E+00
RMM:  15    -0.231472894306E+04    0.63071E-01   -0.73589E-02116598   0.190E-01    0.963E-01
RMM:  16    -0.231471530952E+04    0.13634E-01   -0.24137E-02111080   0.126E-01    0.461E-01
RMM:  17    -0.231471293214E+04    0.23774E-02   -0.14060E-02121365   0.817E-02    0.245E-01
RMM:  18    -0.231471317809E+04   -0.24595E-03   -0.78024E-03132818   0.534E-02    0.217E-01
RMM:  19    -0.231471317987E+04   -0.17809E-05   -0.25595E-03128563   0.312E-02    0.210E-01
RMM:  20    -0.231471252966E+04    0.65021E-03   -0.58818E-04111829   0.191E-02    0.129E-01
RMM:  21    -0.231471217209E+04    0.35757E-03   -0.93182E-04119292   0.223E-02    0.386E-02
RMM:  22    -0.231471214263E+04    0.29456E-04   -0.26486E-04136311   0.954E-03
   1 F= -.23147121E+04 E0= -.23147198E+04  d E =0.230138E-01
