  32  32   0   0
  0.1436004E+02  0.4724469E-09  0.5455306E-09  0.1871027E-08  0.5000000E-15
  1.000000000000000E-004
  CAR 
 Ir_Ru                                   
     17.73254517     -1.64043068  301      9.58936249      1.00000000
     -1.640  0.0000E+00  0.0000E+00
     -1.576  0.0000E+00  0.0000E+00
     -1.511  0.0000E+00  0.0000E+00
     -1.447  0.0000E+00  0.0000E+00
     -1.382  0.0000E+00  0.0000E+00
     -1.318  0.0000E+00  0.0000E+00
     -1.253  0.0000E+00  0.0000E+00
     -1.188  0.0000E+00  0.0000E+00
     -1.124  0.0000E+00  0.0000E+00
     -1.059  0.0000E+00  0.0000E+00
     -0.995  0.0000E+00  0.0000E+00
     -0.930  0.0000E+00  0.0000E+00
     -0.866  0.0000E+00  0.0000E+00
     -0.801  0.0000E+00  0.0000E+00
     -0.736  0.0000E+00  0.0000E+00
     -0.672  0.0000E+00  0.0000E+00
     -0.607  0.1003E+00  0.1111E-02
     -0.543  0.7776E+00  0.2859E-01
     -0.478  0.7242E+00  0.8284E-01
     -0.413  0.7116E+00  0.1277E+00
     -0.349  0.7616E+00  0.1753E+00
     -0.284  0.1055E+01  0.2312E+00
     -0.220  0.1401E+01  0.3136E+00
     -0.155  0.1540E+01  0.4083E+00
     -0.091  0.1531E+01  0.5081E+00
     -0.026  0.1581E+01  0.6084E+00
      0.039  0.1637E+01  0.7125E+00
      0.103  0.1645E+01  0.8183E+00
      0.168  0.1646E+01  0.9246E+00
      0.232  0.1652E+01  0.1031E+01
      0.297  0.1800E+01  0.1141E+01
      0.361  0.2033E+01  0.1266E+01
      0.426  0.2264E+01  0.1404E+01
      0.491  0.2660E+01  0.1564E+01
      0.555  0.2615E+01  0.1735E+01
      0.620  0.2689E+01  0.1906E+01
      0.684  0.2771E+01  0.2082E+01
      0.749  0.2953E+01  0.2264E+01
      0.813  0.2974E+01  0.2458E+01
      0.878  0.2946E+01  0.2649E+01
      0.943  0.2969E+01  0.2839E+01
      1.007  0.3147E+01  0.3035E+01
      1.072  0.3116E+01  0.3239E+01
      1.136  0.3071E+01  0.3439E+01
      1.201  0.3547E+01  0.3653E+01
      1.266  0.3721E+01  0.3886E+01
      1.330  0.3992E+01  0.4136E+01
      1.395  0.4500E+01  0.4442E+01
      1.459  0.3922E+01  0.4707E+01
      1.524  0.4544E+01  0.4998E+01
      1.588  0.4891E+01  0.5297E+01
      1.653  0.5670E+01  0.5631E+01
      1.718  0.5648E+01  0.5996E+01
      1.782  0.5868E+01  0.6360E+01
      1.847  0.6655E+01  0.6766E+01
      1.911  0.6436E+01  0.7179E+01
      1.976  0.7618E+01  0.7608E+01
      2.040  0.8297E+01  0.8126E+01
      2.105  0.1029E+02  0.8747E+01
      2.170  0.1012E+02  0.9426E+01
      2.234  0.1382E+02  0.1016E+02
      2.299  0.1665E+02  0.1121E+02
      2.363  0.1724E+02  0.1226E+02
      2.428  0.1954E+02  0.1351E+02
      2.492  0.2071E+02  0.1472E+02
      2.557  0.2133E+02  0.1618E+02
      2.622  0.2344E+02  0.1765E+02
      2.686  0.2371E+02  0.1916E+02
      2.751  0.2762E+02  0.2073E+02
      2.815  0.2847E+02  0.2249E+02
      2.880  0.3269E+02  0.2440E+02
      2.945  0.3147E+02  0.2646E+02
      3.009  0.3340E+02  0.2860E+02
      3.074  0.3706E+02  0.3090E+02
      3.138  0.3864E+02  0.3335E+02
      3.203  0.3695E+02  0.3576E+02
      3.267  0.3715E+02  0.3814E+02
      3.332  0.3886E+02  0.4056E+02
      3.397  0.3916E+02  0.4301E+02
      3.461  0.3845E+02  0.4550E+02
      3.526  0.3843E+02  0.4802E+02
      3.590  0.3994E+02  0.5057E+02
      3.655  0.4045E+02  0.5325E+02
      3.719  0.4036E+02  0.5581E+02
      3.784  0.4054E+02  0.5836E+02
      3.849  0.4074E+02  0.6097E+02
      3.913  0.3966E+02  0.6366E+02
      3.978  0.3871E+02  0.6618E+02
      4.042  0.3758E+02  0.6862E+02
      4.107  0.3597E+02  0.7105E+02
      4.171  0.3523E+02  0.7331E+02
      4.236  0.3301E+02  0.7541E+02
      4.301  0.3163E+02  0.7748E+02
      4.365  0.2911E+02  0.7946E+02
      4.430  0.2891E+02  0.8134E+02
      4.494  0.2918E+02  0.8318E+02
      4.559  0.3203E+02  0.8510E+02
      4.623  0.3572E+02  0.8728E+02
      4.688  0.3647E+02  0.8960E+02
      4.753  0.3816E+02  0.9200E+02
      4.817  0.3826E+02  0.9444E+02
      4.882  0.3635E+02  0.9691E+02
      4.946  0.3552E+02  0.9920E+02
      5.011  0.3565E+02  0.1015E+03
      5.076  0.3819E+02  0.1039E+03
      5.140  0.3692E+02  0.1063E+03
      5.205  0.3755E+02  0.1087E+03
      5.269  0.3532E+02  0.1111E+03
      5.334  0.3613E+02  0.1134E+03
      5.398  0.3851E+02  0.1158E+03
      5.463  0.4017E+02  0.1183E+03
      5.528  0.3915E+02  0.1210E+03
      5.592  0.3850E+02  0.1236E+03
      5.657  0.4222E+02  0.1261E+03
      5.721  0.3938E+02  0.1287E+03
      5.786  0.3914E+02  0.1313E+03
      5.850  0.4186E+02  0.1339E+03
      5.915  0.4255E+02  0.1367E+03
      5.980  0.4567E+02  0.1395E+03
      6.044  0.4641E+02  0.1426E+03
      6.109  0.4770E+02  0.1457E+03
      6.173  0.5318E+02  0.1488E+03
      6.238  0.5187E+02  0.1522E+03
      6.302  0.5203E+02  0.1555E+03
      6.367  0.5425E+02  0.1589E+03
      6.432  0.5347E+02  0.1623E+03
      6.496  0.5804E+02  0.1659E+03
      6.561  0.5873E+02  0.1696E+03
      6.625  0.5676E+02  0.1732E+03
      6.690  0.5192E+02  0.1769E+03
      6.755  0.4930E+02  0.1802E+03
      6.819  0.4759E+02  0.1834E+03
      6.884  0.4643E+02  0.1864E+03
      6.948  0.4366E+02  0.1893E+03
      7.013  0.4532E+02  0.1920E+03
      7.077  0.3850E+02  0.1945E+03
      7.142  0.3626E+02  0.1969E+03
      7.207  0.3737E+02  0.1993E+03
      7.271  0.3412E+02  0.2016E+03
      7.336  0.3352E+02  0.2037E+03
      7.400  0.3215E+02  0.2059E+03
      7.465  0.3193E+02  0.2079E+03
      7.529  0.2987E+02  0.2099E+03
      7.594  0.3056E+02  0.2119E+03
      7.659  0.3322E+02  0.2139E+03
      7.723  0.3364E+02  0.2161E+03
      7.788  0.3557E+02  0.2183E+03
      7.852  0.3695E+02  0.2206E+03
      7.917  0.3828E+02  0.2229E+03
      7.981  0.3830E+02  0.2254E+03
      8.046  0.4007E+02  0.2277E+03
      8.111  0.3836E+02  0.2302E+03
      8.175  0.4067E+02  0.2328E+03
      8.240  0.3930E+02  0.2353E+03
      8.304  0.4074E+02  0.2379E+03
      8.369  0.3946E+02  0.2405E+03
      8.434  0.3805E+02  0.2430E+03
      8.498  0.3614E+02  0.2453E+03
      8.563  0.3496E+02  0.2476E+03
      8.627  0.3495E+02  0.2499E+03
      8.692  0.3385E+02  0.2521E+03
      8.756  0.3642E+02  0.2543E+03
      8.821  0.3348E+02  0.2565E+03
      8.886  0.3075E+02  0.2586E+03
      8.950  0.2970E+02  0.2606E+03
      9.015  0.2936E+02  0.2626E+03
      9.079  0.2948E+02  0.2645E+03
      9.144  0.3069E+02  0.2665E+03
      9.208  0.3117E+02  0.2685E+03
      9.273  0.3027E+02  0.2705E+03
      9.338  0.2989E+02  0.2724E+03
      9.402  0.2928E+02  0.2743E+03
      9.467  0.3020E+02  0.2762E+03
      9.531  0.3074E+02  0.2782E+03
      9.596  0.2955E+02  0.2802E+03
      9.660  0.2945E+02  0.2821E+03
      9.725  0.2993E+02  0.2840E+03
      9.790  0.2999E+02  0.2859E+03
      9.854  0.3199E+02  0.2879E+03
      9.919  0.3219E+02  0.2899E+03
      9.983  0.3335E+02  0.2920E+03
     10.048  0.3581E+02  0.2942E+03
     10.113  0.3617E+02  0.2966E+03
     10.177  0.3782E+02  0.2990E+03
     10.242  0.4097E+02  0.3014E+03
     10.306  0.4351E+02  0.3042E+03
     10.371  0.5050E+02  0.3071E+03
     10.435  0.5323E+02  0.3104E+03
     10.500  0.5127E+02  0.3138E+03
     10.565  0.5166E+02  0.3171E+03
     10.629  0.5446E+02  0.3207E+03
     10.694  0.5019E+02  0.3241E+03
     10.758  0.4527E+02  0.3271E+03
     10.823  0.3711E+02  0.3298E+03
     10.887  0.3296E+02  0.3321E+03
     10.952  0.2891E+02  0.3341E+03
     11.017  0.2692E+02  0.3358E+03
     11.081  0.2132E+02  0.3373E+03
     11.146  0.1831E+02  0.3386E+03
     11.210  0.1418E+02  0.3396E+03
     11.275  0.1060E+02  0.3404E+03
     11.339  0.9670E+01  0.3410E+03
     11.404  0.9390E+01  0.3416E+03
     11.469  0.8666E+01  0.3422E+03
     11.533  0.8795E+01  0.3428E+03
     11.598  0.9122E+01  0.3433E+03
     11.662  0.9630E+01  0.3439E+03
     11.727  0.9416E+01  0.3446E+03
     11.791  0.8808E+01  0.3452E+03
     11.856  0.8619E+01  0.3457E+03
     11.921  0.8076E+01  0.3463E+03
     11.985  0.7710E+01  0.3468E+03
     12.050  0.7442E+01  0.3473E+03
     12.114  0.7578E+01  0.3477E+03
     12.179  0.7992E+01  0.3482E+03
     12.244  0.8139E+01  0.3488E+03
     12.308  0.7991E+01  0.3493E+03
     12.373  0.7628E+01  0.3498E+03
     12.437  0.7504E+01  0.3503E+03
     12.502  0.7473E+01  0.3508E+03
     12.566  0.7758E+01  0.3513E+03
     12.631  0.8052E+01  0.3518E+03
     12.696  0.7264E+01  0.3523E+03
     12.760  0.7113E+01  0.3527E+03
     12.825  0.6930E+01  0.3532E+03
     12.889  0.6388E+01  0.3536E+03
     12.954  0.6179E+01  0.3540E+03
     13.018  0.5652E+01  0.3544E+03
     13.083  0.5310E+01  0.3548E+03
     13.148  0.5230E+01  0.3551E+03
     13.212  0.5073E+01  0.3554E+03
     13.277  0.4873E+01  0.3558E+03
     13.341  0.4681E+01  0.3561E+03
     13.406  0.4738E+01  0.3564E+03
     13.470  0.4494E+01  0.3567E+03
     13.535  0.4232E+01  0.3569E+03
     13.600  0.3967E+01  0.3572E+03
     13.664  0.3783E+01  0.3575E+03
     13.729  0.3889E+01  0.3577E+03
     13.793  0.3399E+01  0.3579E+03
     13.858  0.3250E+01  0.3582E+03
     13.923  0.3033E+01  0.3584E+03
     13.987  0.3092E+01  0.3586E+03
     14.052  0.2882E+01  0.3587E+03
     14.116  0.2616E+01  0.3589E+03
     14.181  0.2234E+01  0.3591E+03
     14.245  0.1933E+01  0.3592E+03
     14.310  0.1743E+01  0.3593E+03
     14.375  0.1545E+01  0.3594E+03
     14.439  0.1515E+01  0.3595E+03
     14.504  0.1063E+01  0.3596E+03
     14.568  0.7837E+00  0.3597E+03
     14.633  0.6321E+00  0.3597E+03
     14.697  0.5122E+00  0.3598E+03
     14.762  0.4413E+00  0.3598E+03
     14.827  0.3836E+00  0.3598E+03
     14.891  0.3332E+00  0.3599E+03
     14.956  0.2926E+00  0.3599E+03
     15.020  0.2584E+00  0.3599E+03
     15.085  0.2295E+00  0.3599E+03
     15.149  0.2053E+00  0.3599E+03
     15.214  0.1836E+00  0.3599E+03
     15.279  0.1632E+00  0.3599E+03
     15.343  0.1443E+00  0.3600E+03
     15.408  0.1268E+00  0.3600E+03
     15.472  0.1107E+00  0.3600E+03
     15.537  0.9569E-01  0.3600E+03
     15.602  0.8021E-01  0.3600E+03
     15.666  0.6520E-01  0.3600E+03
     15.731  0.5197E-01  0.3600E+03
     15.795  0.4046E-01  0.3600E+03
     15.860  0.3054E-01  0.3600E+03
     15.924  0.2232E-01  0.3600E+03
     15.989  0.1581E-01  0.3600E+03
     16.054  0.1099E-01  0.3600E+03
     16.118  0.7657E-02  0.3600E+03
     16.183  0.5225E-02  0.3600E+03
     16.247  0.3499E-02  0.3600E+03
     16.312  0.2472E-02  0.3600E+03
     16.376  0.1771E-02  0.3600E+03
     16.441  0.1187E-02  0.3600E+03
     16.506  0.7195E-03  0.3600E+03
     16.570  0.3683E-03  0.3600E+03
     16.635  0.1336E-03  0.3600E+03
     16.699  0.1542E-04  0.3600E+03
     16.764  0.0000E+00  0.3600E+03
     16.828  0.0000E+00  0.3600E+03
     16.893  0.0000E+00  0.3600E+03
     16.958  0.0000E+00  0.3600E+03
     17.022  0.0000E+00  0.3600E+03
     17.087  0.0000E+00  0.3600E+03
     17.151  0.0000E+00  0.3600E+03
     17.216  0.0000E+00  0.3600E+03
     17.281  0.0000E+00  0.3600E+03
     17.345  0.0000E+00  0.3600E+03
     17.410  0.0000E+00  0.3600E+03
     17.474  0.0000E+00  0.3600E+03
     17.539  0.0000E+00  0.3600E+03
     17.603  0.0000E+00  0.3600E+03
     17.668  0.0000E+00  0.3600E+03
     17.733  0.0000E+00  0.3600E+03
