       N       E                     dE             d eps       ncg     rms          rms(c)
DAV:   1     0.112830161048E+05    0.11283E+05   -0.55466E+05 95400   0.810E+02
DAV:   2    -0.143941114142E+04   -0.12722E+05   -0.12145E+05 95820   0.337E+02
DAV:   3    -0.241101502938E+04   -0.97160E+03   -0.89376E+03135300   0.780E+01
DAV:   4    -0.248228553619E+04   -0.71271E+02   -0.68849E+02132240   0.209E+01
DAV:   5    -0.248511433212E+04   -0.28288E+01   -0.27732E+01139940   0.331E+00    0.779E+01
RMM:   6    -0.241641523488E+04    0.68699E+02   -0.68054E+02105913   0.245E+01    0.622E+01
RMM:   7    -0.236998768245E+04    0.46428E+02   -0.35225E+02 97786   0.172E+01    0.455E+01
RMM:   8    -0.233984134353E+04    0.30146E+02   -0.15700E+02 97709   0.114E+01    0.321E+01
RMM:   9    -0.231563065309E+04    0.24211E+02   -0.34480E+01 98714   0.532E+00    0.619E+00
RMM:  10    -0.231542923764E+04    0.20142E+00   -0.73682E+00136523   0.153E+00    0.352E+00
RMM:  11    -0.231531327271E+04    0.11596E+00   -0.13326E+00120940   0.777E-01    0.396E+00
RMM:  12    -0.231489627976E+04    0.41699E+00   -0.52224E-01115437   0.593E-01    0.207E+00
RMM:  13    -0.231477711933E+04    0.11916E+00   -0.25560E-01111912   0.438E-01    0.132E+00
RMM:  14    -0.231475618112E+04    0.20938E-01   -0.15467E-01112518   0.322E-01    0.144E+00
RMM:  15    -0.231472951091E+04    0.26670E-01   -0.50191E-02120488   0.140E-01    0.978E-01
RMM:  16    -0.231471450293E+04    0.15008E-01   -0.20295E-02112159   0.114E-01    0.470E-01
RMM:  17    -0.231471150521E+04    0.29977E-02   -0.15374E-02120525   0.882E-02    0.203E-01
RMM:  18    -0.231471243751E+04   -0.93230E-03   -0.95363E-03131734   0.615E-02    0.233E-01
RMM:  19    -0.231471225772E+04    0.17978E-03   -0.17136E-03138466   0.206E-02    0.218E-01
RMM:  20    -0.231471158712E+04    0.67061E-03   -0.55518E-04113649   0.179E-02    0.137E-01
RMM:  21    -0.231471119601E+04    0.39110E-03   -0.10495E-03120502   0.232E-02    0.390E-02
RMM:  22    -0.231471116836E+04    0.27657E-04   -0.29277E-04138054   0.978E-03
   1 F= -.23147112E+04 E0= -.23147188E+04  d E =0.228995E-01
