 256 256   0   0
  0.1419206E+02  0.1537080E-08  0.1537218E-08  0.1537636E-08  0.5000000E-15
  1.000000000000000E-004
  CAR 
 Ir_Ru                                   
     12.68457482     -1.29512626  301      9.24210436      1.00000000
     -1.295  0.0000E+00  0.0000E+00
     -1.249  0.0000E+00  0.0000E+00
     -1.202  0.0000E+00  0.0000E+00
     -1.155  0.0000E+00  0.0000E+00
     -1.109 -0.2748E-28 -0.1281E-29
     -1.062 -0.4100E-25 -0.1912E-26
     -1.016 -0.3945E-22 -0.1840E-23
     -0.969 -0.2450E-19 -0.1144E-20
     -0.922 -0.9816E-17 -0.4585E-18
     -0.876 -0.2462E-14 -0.1152E-15
     -0.829 -0.4083E-12 -0.1914E-13
     -0.783 -0.4361E-10 -0.2051E-11
     -0.736 -0.3001E-08 -0.1419E-09
     -0.689 -0.1332E-06 -0.6347E-08
     -0.643 -0.3816E-05 -0.1841E-06
     -0.596 -0.7079E-04 -0.3483E-05
     -0.550 -0.8530E-03 -0.4323E-04
     -0.503 -0.6677E-02 -0.3544E-03
     -0.456 -0.3354E-01 -0.1917E-02
     -0.410 -0.1020E+00 -0.6671E-02
     -0.363 -0.1378E+00 -0.1309E-01
     -0.317  0.2236E+00 -0.2671E-02
     -0.270  0.1509E+01  0.6763E-01
     -0.223  0.3538E+01  0.2325E+00
     -0.177  0.5070E+01  0.4688E+00
     -0.130  0.5733E+01  0.7359E+00
     -0.084  0.7326E+01  0.1077E+01
     -0.037  0.1020E+02  0.1552E+01
      0.010  0.1102E+02  0.2066E+01
      0.056  0.9153E+01  0.2493E+01
      0.103  0.9383E+01  0.2930E+01
      0.149  0.1315E+02  0.3543E+01
      0.196  0.1591E+02  0.4284E+01
      0.243  0.1605E+02  0.5032E+01
      0.289  0.1673E+02  0.5812E+01
      0.336  0.1849E+02  0.6674E+01
      0.382  0.1834E+02  0.7528E+01
      0.429  0.1743E+02  0.8340E+01
      0.476  0.1980E+02  0.9263E+01
      0.522  0.2337E+02  0.1035E+02
      0.569  0.2406E+02  0.1147E+02
      0.615  0.2229E+02  0.1251E+02
      0.662  0.1874E+02  0.1338E+02
      0.709  0.1409E+02  0.1404E+02
      0.755  0.1115E+02  0.1456E+02
      0.802  0.1072E+02  0.1506E+02
      0.848  0.1114E+02  0.1558E+02
      0.895  0.1216E+02  0.1615E+02
      0.942  0.1464E+02  0.1683E+02
      0.988  0.1833E+02  0.1768E+02
      1.035  0.2286E+02  0.1875E+02
      1.081  0.2806E+02  0.2005E+02
      1.128  0.3125E+02  0.2151E+02
      1.175  0.2975E+02  0.2290E+02
      1.221  0.2592E+02  0.2410E+02
      1.268  0.2307E+02  0.2518E+02
      1.314  0.2095E+02  0.2616E+02
      1.361  0.2001E+02  0.2709E+02
      1.408  0.2161E+02  0.2810E+02
      1.454  0.2406E+02  0.2922E+02
      1.501  0.2564E+02  0.3041E+02
      1.547  0.2890E+02  0.3176E+02
      1.594  0.3503E+02  0.3339E+02
      1.641  0.3872E+02  0.3520E+02
      1.687  0.3788E+02  0.3696E+02
      1.734  0.3924E+02  0.3879E+02
      1.780  0.4546E+02  0.4091E+02
      1.827  0.4932E+02  0.4321E+02
      1.874  0.4784E+02  0.4543E+02
      1.920  0.4730E+02  0.4764E+02
      1.967  0.5089E+02  0.5001E+02
      2.013  0.5411E+02  0.5253E+02
      2.060  0.5548E+02  0.5512E+02
      2.107  0.6131E+02  0.5797E+02
      2.153  0.7443E+02  0.6144E+02
      2.200  0.8924E+02  0.6560E+02
      2.246  0.1029E+03  0.7040E+02
      2.293  0.1177E+03  0.7588E+02
      2.340  0.1309E+03  0.8198E+02
      2.386  0.1382E+03  0.8842E+02
      2.433  0.1432E+03  0.9510E+02
      2.479  0.1523E+03  0.1022E+03
      2.526  0.1610E+03  0.1097E+03
      2.573  0.1618E+03  0.1172E+03
      2.619  0.1614E+03  0.1248E+03
      2.666  0.1689E+03  0.1326E+03
      2.712  0.1784E+03  0.1409E+03
      2.759  0.1848E+03  0.1496E+03
      2.806  0.1977E+03  0.1588E+03
      2.852  0.2228E+03  0.1691E+03
      2.899  0.2475E+03  0.1807E+03
      2.945  0.2563E+03  0.1926E+03
      2.992  0.2497E+03  0.2043E+03
      3.039  0.2467E+03  0.2158E+03
      3.085  0.2620E+03  0.2280E+03
      3.132  0.2865E+03  0.2413E+03
      3.178  0.3012E+03  0.2554E+03
      3.225  0.3038E+03  0.2695E+03
      3.272  0.3049E+03  0.2837E+03
      3.318  0.3084E+03  0.2981E+03
      3.365  0.3110E+03  0.3126E+03
      3.411  0.3141E+03  0.3272E+03
      3.458  0.3213E+03  0.3422E+03
      3.505  0.3330E+03  0.3577E+03
      3.551  0.3438E+03  0.3737E+03
      3.598  0.3468E+03  0.3899E+03
      3.644  0.3449E+03  0.4060E+03
      3.691  0.3487E+03  0.4222E+03
      3.738  0.3577E+03  0.4389E+03
      3.784  0.3594E+03  0.4556E+03
      3.831  0.3524E+03  0.4720E+03
      3.877  0.3478E+03  0.4883E+03
      3.924  0.3496E+03  0.5045E+03
      3.971  0.3506E+03  0.5209E+03
      4.017  0.3417E+03  0.5368E+03
      4.064  0.3231E+03  0.5519E+03
      4.110  0.3069E+03  0.5662E+03
      4.157  0.2976E+03  0.5800E+03
      4.204  0.2875E+03  0.5934E+03
      4.250  0.2714E+03  0.6061E+03
      4.297  0.2538E+03  0.6179E+03
      4.343  0.2428E+03  0.6292E+03
      4.390  0.2451E+03  0.6406E+03
      4.437  0.2577E+03  0.6527E+03
      4.483  0.2618E+03  0.6649E+03
      4.530  0.2508E+03  0.6765E+03
      4.576  0.2476E+03  0.6881E+03
      4.623  0.2669E+03  0.7005E+03
      4.670  0.2917E+03  0.7141E+03
      4.716  0.3067E+03  0.7284E+03
      4.763  0.3136E+03  0.7430E+03
      4.809  0.3135E+03  0.7576E+03
      4.856  0.3049E+03  0.7718E+03
      4.903  0.2902E+03  0.7854E+03
      4.949  0.2786E+03  0.7983E+03
      4.996  0.2811E+03  0.8114E+03
      5.042  0.2950E+03  0.8252E+03
      5.089  0.3077E+03  0.8395E+03
      5.136  0.3092E+03  0.8539E+03
      5.182  0.2978E+03  0.8678E+03
      5.229  0.2857E+03  0.8811E+03
      5.275  0.2845E+03  0.8944E+03
      5.322  0.2904E+03  0.9079E+03
      5.369  0.2973E+03  0.9218E+03
      5.415  0.3018E+03  0.9358E+03
      5.462  0.2986E+03  0.9497E+03
      5.508  0.2888E+03  0.9632E+03
      5.555  0.2867E+03  0.9766E+03
      5.602  0.3026E+03  0.9907E+03
      5.648  0.3215E+03  0.1006E+04
      5.695  0.3253E+03  0.1021E+04
      5.741  0.3203E+03  0.1036E+04
      5.788  0.3199E+03  0.1051E+04
      5.835  0.3262E+03  0.1066E+04
      5.881  0.3367E+03  0.1082E+04
      5.928  0.3500E+03  0.1098E+04
      5.974  0.3652E+03  0.1115E+04
      6.021  0.3789E+03  0.1133E+04
      6.068  0.3855E+03  0.1150E+04
      6.114  0.3875E+03  0.1169E+04
      6.161  0.3916E+03  0.1187E+04
      6.207  0.3985E+03  0.1205E+04
      6.254  0.4095E+03  0.1224E+04
      6.301  0.4271E+03  0.1244E+04
      6.347  0.4463E+03  0.1265E+04
      6.394  0.4572E+03  0.1286E+04
      6.440  0.4571E+03  0.1308E+04
      6.487  0.4532E+03  0.1329E+04
      6.534  0.4500E+03  0.1350E+04
      6.580  0.4456E+03  0.1371E+04
      6.627  0.4391E+03  0.1391E+04
      6.673  0.4318E+03  0.1411E+04
      6.720  0.4249E+03  0.1431E+04
      6.767  0.4171E+03  0.1450E+04
      6.813  0.4018E+03  0.1469E+04
      6.860  0.3770E+03  0.1487E+04
      6.906  0.3545E+03  0.1503E+04
      6.953  0.3443E+03  0.1519E+04
      6.999  0.3393E+03  0.1535E+04
      7.046  0.3278E+03  0.1550E+04
      7.093  0.3149E+03  0.1565E+04
      7.139  0.3135E+03  0.1580E+04
      7.186  0.3194E+03  0.1594E+04
      7.232  0.3136E+03  0.1609E+04
      7.279  0.2878E+03  0.1623E+04
      7.326  0.2561E+03  0.1634E+04
      7.372  0.2402E+03  0.1646E+04
      7.419  0.2485E+03  0.1657E+04
      7.465  0.2710E+03  0.1670E+04
      7.512  0.2846E+03  0.1683E+04
      7.559  0.2766E+03  0.1696E+04
      7.605  0.2587E+03  0.1708E+04
      7.652  0.2483E+03  0.1720E+04
      7.698  0.2570E+03  0.1732E+04
      7.745  0.2826E+03  0.1745E+04
      7.792  0.3053E+03  0.1759E+04
      7.838  0.3120E+03  0.1774E+04
      7.885  0.3088E+03  0.1788E+04
      7.931  0.3032E+03  0.1802E+04
      7.978  0.2961E+03  0.1816E+04
      8.025  0.2909E+03  0.1829E+04
      8.071  0.2956E+03  0.1843E+04
      8.118  0.3091E+03  0.1858E+04
      8.164  0.3170E+03  0.1872E+04
      8.211  0.3176E+03  0.1887E+04
      8.258  0.3295E+03  0.1903E+04
      8.304  0.3535E+03  0.1919E+04
      8.351  0.3626E+03  0.1936E+04
      8.397  0.3404E+03  0.1952E+04
      8.444  0.3005E+03  0.1966E+04
      8.491  0.2671E+03  0.1978E+04
      8.537  0.2557E+03  0.1990E+04
      8.584  0.2707E+03  0.2003E+04
      8.630  0.2954E+03  0.2016E+04
      8.677  0.3003E+03  0.2030E+04
      8.724  0.2843E+03  0.2044E+04
      8.770  0.2677E+03  0.2056E+04
      8.817  0.2570E+03  0.2068E+04
      8.863  0.2491E+03  0.2080E+04
      8.910  0.2450E+03  0.2091E+04
      8.957  0.2452E+03  0.2103E+04
      9.003  0.2533E+03  0.2114E+04
      9.050  0.2732E+03  0.2127E+04
      9.096  0.2841E+03  0.2140E+04
      9.143  0.2664E+03  0.2153E+04
      9.190  0.2410E+03  0.2164E+04
      9.236  0.2284E+03  0.2175E+04
      9.283  0.2200E+03  0.2185E+04
      9.329  0.2138E+03  0.2195E+04
      9.376  0.2216E+03  0.2205E+04
      9.423  0.2422E+03  0.2217E+04
      9.469  0.2621E+03  0.2229E+04
      9.516  0.2735E+03  0.2241E+04
      9.562  0.2772E+03  0.2254E+04
      9.609  0.2762E+03  0.2267E+04
      9.656  0.2710E+03  0.2280E+04
      9.702  0.2612E+03  0.2292E+04
      9.749  0.2441E+03  0.2303E+04
      9.795  0.2245E+03  0.2314E+04
      9.842  0.2194E+03  0.2324E+04
      9.889  0.2362E+03  0.2335E+04
      9.935  0.2638E+03  0.2347E+04
      9.982  0.2947E+03  0.2361E+04
     10.028  0.3270E+03  0.2376E+04
     10.075  0.3491E+03  0.2393E+04
     10.122  0.3466E+03  0.2409E+04
     10.168  0.3242E+03  0.2424E+04
     10.215  0.3101E+03  0.2438E+04
     10.261  0.3286E+03  0.2454E+04
     10.308  0.3862E+03  0.2472E+04
     10.355  0.4655E+03  0.2493E+04
     10.401  0.5184E+03  0.2518E+04
     10.448  0.5097E+03  0.2541E+04
     10.494  0.4515E+03  0.2562E+04
     10.541  0.3750E+03  0.2580E+04
     10.588  0.3030E+03  0.2594E+04
     10.634  0.2488E+03  0.2606E+04
     10.681  0.2128E+03  0.2615E+04
     10.727  0.1812E+03  0.2624E+04
     10.774  0.1425E+03  0.2631E+04
     10.821  0.9772E+02  0.2635E+04
     10.867  0.5667E+02  0.2638E+04
     10.914  0.2740E+02  0.2639E+04
     10.960  0.1043E+02  0.2639E+04
     11.007  0.2862E+01  0.2640E+04
     11.054  0.1350E+01  0.2640E+04
     11.100  0.1978E+01  0.2640E+04
     11.147  0.1878E+01  0.2640E+04
     11.193  0.8310E+00  0.2640E+04
     11.240  0.3462E-01  0.2640E+04
     11.287 -0.1277E+00  0.2640E+04
     11.333 -0.5877E-01  0.2640E+04
     11.380 -0.1295E-01  0.2640E+04
     11.426 -0.3744E-02  0.2640E+04
     11.473 -0.1342E-01  0.2640E+04
     11.520 -0.4275E-01  0.2640E+04
     11.566 -0.3467E-01  0.2640E+04
     11.613  0.2051E+00  0.2640E+04
     11.659  0.7224E+00  0.2640E+04
     11.706  0.1026E+01  0.2640E+04
     11.753  0.7157E+00  0.2640E+04
     11.799  0.1999E+00  0.2640E+04
     11.846 -0.3573E-01  0.2640E+04
     11.892 -0.4234E-01  0.2640E+04
     11.939 -0.1305E-01  0.2640E+04
     11.986 -0.2102E-02  0.2640E+04
     12.032 -0.1989E-03  0.2640E+04
     12.079 -0.1153E-04  0.2640E+04
     12.125 -0.4181E-06  0.2640E+04
     12.172 -0.9586E-08  0.2640E+04
     12.219 -0.1399E-09  0.2640E+04
     12.265 -0.1306E-11  0.2640E+04
     12.312 -0.7743E-14  0.2640E+04
     12.358  0.0000E+00  0.2640E+04
     12.405  0.0000E+00  0.2640E+04
     12.452  0.0000E+00  0.2640E+04
     12.498  0.0000E+00  0.2640E+04
     12.545  0.0000E+00  0.2640E+04
     12.591  0.0000E+00  0.2640E+04
     12.638  0.0000E+00  0.2640E+04
     12.685  0.0000E+00  0.2640E+04
