 256 256   0   0
  0.1418917E+02  0.1588033E-08  0.1692661E-08  0.1693229E-08  0.5000000E-15
  1.000000000000000E-004
  CAR 
 Ir_Ru                                   
     14.28292030     -1.29202467  301      9.45688739      1.00000000
     -1.292  0.0000E+00  0.0000E+00
     -1.240  0.0000E+00  0.0000E+00
     -1.188  0.0000E+00  0.0000E+00
     -1.136 -0.2829E-30 -0.1468E-31
     -1.084 -0.1300E-26 -0.6750E-28
     -1.032 -0.3471E-23 -0.1802E-24
     -0.981 -0.5378E-20 -0.2794E-21
     -0.929 -0.4832E-17 -0.2512E-18
     -0.877 -0.2457E-14 -0.1278E-15
     -0.825 -0.7318E-12 -0.3812E-13
     -0.773 -0.1264E-09 -0.6599E-11
     -0.721 -0.1255E-07 -0.6580E-09
     -0.669 -0.7134E-06 -0.3770E-07
     -0.617 -0.2310E-04 -0.1237E-05
     -0.565 -0.4227E-03 -0.2318E-04
     -0.513 -0.4330E-02 -0.2480E-03
     -0.461 -0.2457E-01 -0.1524E-02
     -0.409 -0.7569E-01 -0.5453E-02
     -0.358 -0.1016E+00 -0.1073E-01
     -0.306  0.2124E+00  0.3031E-03
     -0.254  0.1662E+01  0.8659E-01
     -0.202  0.4429E+01  0.3165E+00
     -0.150  0.6363E+01  0.6469E+00
     -0.098  0.6422E+01  0.9803E+00
     -0.046  0.6982E+01  0.1343E+01
      0.006  0.8892E+01  0.1804E+01
      0.058  0.1122E+02  0.2387E+01
      0.110  0.1364E+02  0.3095E+01
      0.162  0.1432E+02  0.3839E+01
      0.214  0.1165E+02  0.4443E+01
      0.265  0.1010E+02  0.4968E+01
      0.317  0.1440E+02  0.5716E+01
      0.369  0.2044E+02  0.6777E+01
      0.421  0.2253E+02  0.7947E+01
      0.473  0.2274E+02  0.9127E+01
      0.525  0.2354E+02  0.1035E+02
      0.577  0.2249E+02  0.1152E+02
      0.629  0.2046E+02  0.1258E+02
      0.681  0.2108E+02  0.1367E+02
      0.733  0.2030E+02  0.1473E+02
      0.785  0.1438E+02  0.1547E+02
      0.837  0.8717E+01  0.1593E+02
      0.888  0.7977E+01  0.1634E+02
      0.940  0.1173E+02  0.1695E+02
      0.992  0.1902E+02  0.1794E+02
      1.044  0.2800E+02  0.1939E+02
      1.096  0.3342E+02  0.2113E+02
      1.148  0.3305E+02  0.2284E+02
      1.200  0.2873E+02  0.2433E+02
      1.252  0.2272E+02  0.2551E+02
      1.304  0.1945E+02  0.2652E+02
      1.356  0.2175E+02  0.2765E+02
      1.408  0.2724E+02  0.2907E+02
      1.460  0.3031E+02  0.3064E+02
      1.511  0.2976E+02  0.3218E+02
      1.563  0.2934E+02  0.3371E+02
      1.615  0.3046E+02  0.3529E+02
      1.667  0.3119E+02  0.3691E+02
      1.719  0.3212E+02  0.3858E+02
      1.771  0.3509E+02  0.4040E+02
      1.823  0.3918E+02  0.4243E+02
      1.875  0.4564E+02  0.4480E+02
      1.927  0.5477E+02  0.4764E+02
      1.979  0.5930E+02  0.5072E+02
      2.031  0.5467E+02  0.5356E+02
      2.083  0.5069E+02  0.5619E+02
      2.134  0.6221E+02  0.5942E+02
      2.186  0.8760E+02  0.6397E+02
      2.238  0.1091E+03  0.6964E+02
      2.290  0.1199E+03  0.7586E+02
      2.342  0.1260E+03  0.8240E+02
      2.394  0.1317E+03  0.8924E+02
      2.446  0.1378E+03  0.9639E+02
      2.498  0.1476E+03  0.1041E+03
      2.550  0.1650E+03  0.1126E+03
      2.602  0.1834E+03  0.1221E+03
      2.654  0.1953E+03  0.1323E+03
      2.706  0.2073E+03  0.1430E+03
      2.757  0.2242E+03  0.1547E+03
      2.809  0.2306E+03  0.1667E+03
      2.861  0.2242E+03  0.1783E+03
      2.913  0.2280E+03  0.1901E+03
      2.965  0.2456E+03  0.2029E+03
      3.017  0.2579E+03  0.2163E+03
      3.069  0.2597E+03  0.2298E+03
      3.121  0.2604E+03  0.2433E+03
      3.173  0.2642E+03  0.2570E+03
      3.225  0.2735E+03  0.2712E+03
      3.277  0.2888E+03  0.2862E+03
      3.329  0.3080E+03  0.3022E+03
      3.380  0.3247E+03  0.3190E+03
      3.432  0.3308E+03  0.3362E+03
      3.484  0.3277E+03  0.3532E+03
      3.536  0.3213E+03  0.3699E+03
      3.588  0.3182E+03  0.3864E+03
      3.640  0.3164E+03  0.4028E+03
      3.692  0.3107E+03  0.4190E+03
      3.744  0.3049E+03  0.4348E+03
      3.796  0.3008E+03  0.4504E+03
      3.848  0.2966E+03  0.4658E+03
      3.900  0.2933E+03  0.4810E+03
      3.952  0.2882E+03  0.4960E+03
      4.003  0.2754E+03  0.5103E+03
      4.055  0.2662E+03  0.5241E+03
      4.107  0.2763E+03  0.5385E+03
      4.159  0.2949E+03  0.5538E+03
      4.211  0.3031E+03  0.5695E+03
      4.263  0.3055E+03  0.5854E+03
      4.315  0.3126E+03  0.6016E+03
      4.367  0.3190E+03  0.6182E+03
      4.419  0.3214E+03  0.6348E+03
      4.471  0.3237E+03  0.6517E+03
      4.523  0.3208E+03  0.6683E+03
      4.575  0.3091E+03  0.6844E+03
      4.626  0.2969E+03  0.6998E+03
      4.678  0.2935E+03  0.7150E+03
      4.730  0.2984E+03  0.7305E+03
      4.782  0.3063E+03  0.7464E+03
      4.834  0.3186E+03  0.7629E+03
      4.886  0.3320E+03  0.7802E+03
      4.938  0.3381E+03  0.7977E+03
      4.990  0.3459E+03  0.8157E+03
      5.042  0.3588E+03  0.8343E+03
      5.094  0.3657E+03  0.8533E+03
      5.146  0.3639E+03  0.8722E+03
      5.198  0.3542E+03  0.8906E+03
      5.249  0.3331E+03  0.9079E+03
      5.301  0.3002E+03  0.9235E+03
      5.353  0.2588E+03  0.9369E+03
      5.405  0.2158E+03  0.9481E+03
      5.457  0.1829E+03  0.9576E+03
      5.509  0.1728E+03  0.9666E+03
      5.561  0.1911E+03  0.9765E+03
      5.613  0.2304E+03  0.9884E+03
      5.665  0.2791E+03  0.1003E+04
      5.717  0.3288E+03  0.1020E+04
      5.769  0.3699E+03  0.1039E+04
      5.821  0.3966E+03  0.1060E+04
      5.872  0.4112E+03  0.1081E+04
      5.924  0.4196E+03  0.1103E+04
      5.976  0.4260E+03  0.1125E+04
      6.028  0.4279E+03  0.1147E+04
      6.080  0.4149E+03  0.1169E+04
      6.132  0.3903E+03  0.1189E+04
      6.184  0.3708E+03  0.1208E+04
      6.236  0.3606E+03  0.1227E+04
      6.288  0.3551E+03  0.1245E+04
      6.340  0.3569E+03  0.1264E+04
      6.392  0.3703E+03  0.1283E+04
      6.444  0.3824E+03  0.1303E+04
      6.495  0.3845E+03  0.1323E+04
      6.547  0.3927E+03  0.1343E+04
      6.599  0.4111E+03  0.1365E+04
      6.651  0.4244E+03  0.1387E+04
      6.703  0.4281E+03  0.1409E+04
      6.755  0.4248E+03  0.1431E+04
      6.807  0.4121E+03  0.1452E+04
      6.859  0.3905E+03  0.1473E+04
      6.911  0.3725E+03  0.1492E+04
      6.963  0.3664E+03  0.1511E+04
      7.015  0.3637E+03  0.1530E+04
      7.067  0.3693E+03  0.1549E+04
      7.118  0.3933E+03  0.1570E+04
      7.170  0.4157E+03  0.1591E+04
      7.222  0.4222E+03  0.1613E+04
      7.274  0.4222E+03  0.1635E+04
      7.326  0.4122E+03  0.1656E+04
      7.378  0.3857E+03  0.1676E+04
      7.430  0.3569E+03  0.1695E+04
      7.482  0.3393E+03  0.1713E+04
      7.534  0.3323E+03  0.1730E+04
      7.586  0.3282E+03  0.1747E+04
      7.638  0.3157E+03  0.1763E+04
      7.690  0.2941E+03  0.1778E+04
      7.741  0.2765E+03  0.1793E+04
      7.793  0.2681E+03  0.1807E+04
      7.845  0.2632E+03  0.1820E+04
      7.897  0.2569E+03  0.1834E+04
      7.949  0.2477E+03  0.1847E+04
      8.001  0.2426E+03  0.1859E+04
      8.053  0.2431E+03  0.1872E+04
      8.105  0.2386E+03  0.1884E+04
      8.157  0.2308E+03  0.1896E+04
      8.209  0.2293E+03  0.1908E+04
      8.261  0.2339E+03  0.1920E+04
      8.313  0.2380E+03  0.1933E+04
      8.364  0.2390E+03  0.1945E+04
      8.416  0.2364E+03  0.1957E+04
      8.468  0.2279E+03  0.1969E+04
      8.520  0.2178E+03  0.1980E+04
      8.572  0.2117E+03  0.1991E+04
      8.624  0.2065E+03  0.2002E+04
      8.676  0.1991E+03  0.2012E+04
      8.728  0.1906E+03  0.2022E+04
      8.780  0.1826E+03  0.2032E+04
      8.832  0.1796E+03  0.2041E+04
      8.884  0.1898E+03  0.2051E+04
      8.936  0.2156E+03  0.2062E+04
      8.987  0.2365E+03  0.2075E+04
      9.039  0.2356E+03  0.2087E+04
      9.091  0.2221E+03  0.2098E+04
      9.143  0.2047E+03  0.2109E+04
      9.195  0.1855E+03  0.2119E+04
      9.247  0.1796E+03  0.2128E+04
      9.299  0.2003E+03  0.2138E+04
      9.351  0.2306E+03  0.2150E+04
      9.403  0.2432E+03  0.2163E+04
      9.455  0.2429E+03  0.2175E+04
      9.507  0.2451E+03  0.2188E+04
      9.559  0.2441E+03  0.2201E+04
      9.610  0.2477E+03  0.2214E+04
      9.662  0.2787E+03  0.2228E+04
      9.714  0.3208E+03  0.2245E+04
      9.766  0.3355E+03  0.2262E+04
      9.818  0.3251E+03  0.2279E+04
      9.870  0.3161E+03  0.2296E+04
      9.922  0.3154E+03  0.2312E+04
      9.974  0.3229E+03  0.2329E+04
     10.026  0.3464E+03  0.2347E+04
     10.078  0.3840E+03  0.2367E+04
     10.130  0.4154E+03  0.2388E+04
     10.182  0.4293E+03  0.2410E+04
     10.233  0.4372E+03  0.2433E+04
     10.285  0.4503E+03  0.2457E+04
     10.337  0.4687E+03  0.2481E+04
     10.389  0.4861E+03  0.2506E+04
     10.441  0.4947E+03  0.2532E+04
     10.493  0.4837E+03  0.2557E+04
     10.545  0.4436E+03  0.2580E+04
     10.597  0.3836E+03  0.2600E+04
     10.649  0.3160E+03  0.2616E+04
     10.701  0.2321E+03  0.2628E+04
     10.753  0.1314E+03  0.2635E+04
     10.805  0.4502E+02  0.2637E+04
     10.856  0.1997E+01  0.2638E+04
     10.908 -0.5560E+01  0.2637E+04
     10.960 -0.2500E+01  0.2637E+04
     11.012 -0.5339E+00  0.2637E+04
     11.064 -0.6784E-01  0.2637E+04
     11.116 -0.5658E-02  0.2637E+04
     11.168 -0.3212E-03  0.2637E+04
     11.220 -0.1211E-04  0.2637E+04
     11.272 -0.2874E-06  0.2637E+04
     11.324 -0.4122E-08  0.2637E+04
     11.376 -0.3486E-10  0.2637E+04
     11.428 -0.3411E-12  0.2637E+04
     11.479 -0.3956E-10  0.2637E+04
     11.531 -0.5332E-08  0.2637E+04
     11.583 -0.4127E-06  0.2637E+04
     11.635 -0.1821E-04  0.2637E+04
     11.687 -0.4518E-03  0.2637E+04
     11.739 -0.6146E-02  0.2637E+04
     11.791 -0.4324E-01  0.2637E+04
     11.843 -0.1298E+00  0.2637E+04
     11.895  0.3392E-01  0.2637E+04
     11.947  0.1109E+01  0.2637E+04
     11.999  0.2516E+01  0.2637E+04
     12.051  0.2512E+01  0.2637E+04
     12.102  0.1477E+01  0.2637E+04
     12.154  0.6786E+00  0.2638E+04
     12.206  0.2235E+00  0.2638E+04
     12.258  0.7970E+00  0.2638E+04
     12.310  0.2614E+01  0.2638E+04
     12.362  0.3962E+01  0.2638E+04
     12.414  0.3758E+01  0.2638E+04
     12.466  0.2807E+01  0.2638E+04
     12.518  0.2043E+01  0.2638E+04
     12.570  0.2032E+01  0.2638E+04
     12.622  0.2530E+01  0.2639E+04
     12.674  0.3120E+01  0.2639E+04
     12.725  0.3904E+01  0.2639E+04
     12.777  0.3955E+01  0.2639E+04
     12.829  0.3040E+01  0.2639E+04
     12.881  0.2457E+01  0.2639E+04
     12.933  0.2167E+01  0.2640E+04
     12.985  0.1602E+01  0.2640E+04
     13.037  0.1115E+01  0.2640E+04
     13.089  0.8183E+00  0.2640E+04
     13.141  0.7026E+00  0.2640E+04
     13.193  0.9117E+00  0.2640E+04
     13.245  0.1119E+01  0.2640E+04
     13.297  0.1072E+01  0.2640E+04
     13.348  0.6692E+00  0.2640E+04
     13.400  0.1639E+00  0.2640E+04
     13.452 -0.4212E-01  0.2640E+04
     13.504 -0.3300E-01  0.2640E+04
     13.556 -0.7336E-02  0.2640E+04
     13.608 -0.7831E-03  0.2640E+04
     13.660 -0.4451E-04  0.2640E+04
     13.712 -0.1400E-05  0.2640E+04
     13.764 -0.2486E-07  0.2640E+04
     13.816 -0.2515E-09  0.2640E+04
     13.868 -0.1459E-11  0.2640E+04
     13.920 -0.5227E-14  0.2640E+04
     13.971  0.0000E+00  0.2640E+04
     14.023  0.0000E+00  0.2640E+04
     14.075  0.0000E+00  0.2640E+04
     14.127  0.0000E+00  0.2640E+04
     14.179  0.0000E+00  0.2640E+04
     14.231  0.0000E+00  0.2640E+04
     14.283  0.0000E+00  0.2640E+04
