       N       E                     dE             d eps       ncg     rms          rms(c)
RMM:   1    -0.248454461419E+04   -0.24845E+04   -0.63923E+02 50307   0.284E+01    0.720E+01
RMM:   2    -0.239885001295E+04    0.85695E+02   -0.34333E+02 51485   0.199E+01    0.538E+01
RMM:   3    -0.236994005453E+04    0.28910E+02   -0.25500E+02 50229   0.153E+01    0.421E+01
RMM:   4    -0.233312345051E+04    0.36817E+02   -0.10578E+02 50273   0.102E+01    0.231E+01
RMM:   5    -0.232306788488E+04    0.10056E+02   -0.17216E+01 51369   0.348E+00    0.887E+00
RMM:   6    -0.232159459966E+04    0.14733E+01   -0.39239E+00 65634   0.126E+00    0.372E+00
RMM:   7    -0.232117742107E+04    0.41718E+00   -0.12747E+00 53403   0.113E+00    0.336E+00
RMM:   8    -0.232087700070E+04    0.30042E+00   -0.62446E-01 53757   0.846E-01    0.260E+00
RMM:   9    -0.232071130901E+04    0.16569E+00   -0.17961E-01 53769   0.399E-01    0.147E+00
RMM:  10    -0.232067574581E+04    0.35563E-01   -0.10287E-01 60005   0.241E-01    0.132E+00
RMM:  11    -0.232064085159E+04    0.34894E-01   -0.85782E-02 59337   0.235E-01    0.845E-01
RMM:  12    -0.232062767694E+04    0.13175E-01   -0.24117E-02 59705   0.109E-01    0.351E-01
RMM:  13    -0.232062606212E+04    0.16148E-02   -0.61454E-03 67087   0.486E-02    0.180E-01
RMM:  14    -0.232062608237E+04   -0.20248E-04   -0.21441E-03 61153   0.364E-02    0.147E-01
RMM:  15    -0.232062616324E+04   -0.80874E-04   -0.13116E-03 60635   0.293E-02    0.123E-01
RMM:  16    -0.232062595383E+04    0.20941E-03   -0.53907E-04 59341   0.190E-02    0.576E-02
RMM:  17    -0.232062594125E+04    0.12580E-04   -0.18597E-04 61329   0.101E-02
   1 F= -.23206259E+04 E0= -.23206260E+04  d E =0.147109E-03
