 256 256   0   0
  0.1418917E+02  0.1588033E-08  0.1692661E-08  0.1693229E-08  0.5000000E-15
  1.000000000000000E-004
  CAR 
 Ir_Ru                                   
     14.27517652     -1.29210936  301      9.45700310      1.00000000
     -1.292  0.0000E+00  0.0000E+00
     -1.240  0.0000E+00  0.0000E+00
     -1.188  0.0000E+00  0.0000E+00
     -1.136 -0.2794E-30 -0.1450E-31
     -1.085 -0.1280E-26 -0.6643E-28
     -1.033 -0.3408E-23 -0.1769E-24
     -0.981 -0.5269E-20 -0.2736E-21
     -0.929 -0.4727E-17 -0.2456E-18
     -0.877 -0.2399E-14 -0.1247E-15
     -0.825 -0.7148E-12 -0.3721E-13
     -0.773 -0.1234E-09 -0.6443E-11
     -0.721 -0.1226E-07 -0.6428E-09
     -0.669 -0.6981E-06 -0.3687E-07
     -0.618 -0.2264E-04 -0.1212E-05
     -0.566 -0.4153E-03 -0.2276E-04
     -0.514 -0.4267E-02 -0.2442E-03
     -0.462 -0.2430E-01 -0.1505E-02
     -0.410 -0.7519E-01 -0.5407E-02
     -0.358 -0.1020E+00 -0.1070E-01
     -0.306  0.2059E+00 -0.1643E-04
     -0.254  0.1640E+01  0.8509E-01
     -0.202  0.4400E+01  0.3134E+00
     -0.151  0.6355E+01  0.6431E+00
     -0.099  0.6423E+01  0.9764E+00
     -0.047  0.6964E+01  0.1338E+01
      0.005  0.8862E+01  0.1798E+01
      0.057  0.1118E+02  0.2378E+01
      0.109  0.1361E+02  0.3084E+01
      0.161  0.1434E+02  0.3829E+01
      0.213  0.1170E+02  0.4436E+01
      0.265  0.1007E+02  0.4958E+01
      0.317  0.1429E+02  0.5700E+01
      0.368  0.2036E+02  0.6756E+01
      0.420  0.2252E+02  0.7925E+01
      0.472  0.2270E+02  0.9103E+01
      0.524  0.2351E+02  0.1032E+02
      0.576  0.2253E+02  0.1149E+02
      0.628  0.2045E+02  0.1255E+02
      0.680  0.2100E+02  0.1364E+02
      0.732  0.2036E+02  0.1470E+02
      0.784  0.1457E+02  0.1546E+02
      0.835  0.8835E+01  0.1591E+02
      0.887  0.7988E+01  0.1633E+02
      0.939  0.1167E+02  0.1693E+02
      0.991  0.1888E+02  0.1791E+02
      1.043  0.2785E+02  0.1936E+02
      1.095  0.3340E+02  0.2109E+02
      1.147  0.3313E+02  0.2281E+02
      1.199  0.2883E+02  0.2431E+02
      1.251  0.2283E+02  0.2549E+02
      1.302  0.1947E+02  0.2650E+02
      1.354  0.2167E+02  0.2763E+02
      1.406  0.2717E+02  0.2904E+02
      1.458  0.3034E+02  0.3061E+02
      1.510  0.2982E+02  0.3216E+02
      1.562  0.2933E+02  0.3368E+02
      1.614  0.3042E+02  0.3526E+02
      1.666  0.3111E+02  0.3687E+02
      1.718  0.3197E+02  0.3853E+02
      1.769  0.3495E+02  0.4035E+02
      1.821  0.3910E+02  0.4238E+02
      1.873  0.4550E+02  0.4474E+02
      1.925  0.5461E+02  0.4757E+02
      1.977  0.5928E+02  0.5065E+02
      2.029  0.5475E+02  0.5349E+02
      2.081  0.5049E+02  0.5611E+02
      2.133  0.6148E+02  0.5930E+02
      2.185  0.8672E+02  0.6380E+02
      2.236  0.1087E+03  0.6944E+02
      2.288  0.1197E+03  0.7565E+02
      2.340  0.1259E+03  0.8218E+02
      2.392  0.1316E+03  0.8901E+02
      2.444  0.1375E+03  0.9614E+02
      2.496  0.1471E+03  0.1038E+03
      2.548  0.1642E+03  0.1123E+03
      2.600  0.1827E+03  0.1218E+03
      2.652  0.1947E+03  0.1319E+03
      2.703  0.2067E+03  0.1426E+03
      2.755  0.2237E+03  0.1542E+03
      2.807  0.2308E+03  0.1662E+03
      2.859  0.2247E+03  0.1779E+03
      2.911  0.2277E+03  0.1897E+03
      2.963  0.2450E+03  0.2024E+03
      3.015  0.2576E+03  0.2158E+03
      3.067  0.2598E+03  0.2292E+03
      3.119  0.2604E+03  0.2427E+03
      3.171  0.2639E+03  0.2564E+03
      3.222  0.2728E+03  0.2706E+03
      3.274  0.2878E+03  0.2855E+03
      3.326  0.3070E+03  0.3015E+03
      3.378  0.3241E+03  0.3183E+03
      3.430  0.3306E+03  0.3354E+03
      3.482  0.3277E+03  0.3524E+03
      3.534  0.3212E+03  0.3691E+03
      3.586  0.3180E+03  0.3856E+03
      3.638  0.3165E+03  0.4020E+03
      3.689  0.3112E+03  0.4182E+03
      3.741  0.3053E+03  0.4340E+03
      3.793  0.3011E+03  0.4496E+03
      3.845  0.2968E+03  0.4650E+03
      3.897  0.2933E+03  0.4803E+03
      3.949  0.2887E+03  0.4952E+03
      4.001  0.2764E+03  0.5096E+03
      4.053  0.2666E+03  0.5234E+03
      4.105  0.2755E+03  0.5377E+03
      4.156  0.2940E+03  0.5530E+03
      4.208  0.3027E+03  0.5687E+03
      4.260  0.3051E+03  0.5845E+03
      4.312  0.3120E+03  0.6007E+03
      4.364  0.3186E+03  0.6172E+03
      4.416  0.3211E+03  0.6339E+03
      4.468  0.3236E+03  0.6507E+03
      4.520  0.3212E+03  0.6673E+03
      4.572  0.3098E+03  0.6834E+03
      4.623  0.2973E+03  0.6988E+03
      4.675  0.2934E+03  0.7141E+03
      4.727  0.2981E+03  0.7295E+03
      4.779  0.3058E+03  0.7454E+03
      4.831  0.3177E+03  0.7619E+03
      4.883  0.3313E+03  0.7791E+03
      4.935  0.3376E+03  0.7966E+03
      4.987  0.3448E+03  0.8145E+03
      5.039  0.3580E+03  0.8331E+03
      5.090  0.3656E+03  0.8520E+03
      5.142  0.3643E+03  0.8709E+03
      5.194  0.3551E+03  0.8894E+03
      5.246  0.3349E+03  0.9068E+03
      5.298  0.3029E+03  0.9225E+03
      5.350  0.2619E+03  0.9361E+03
      5.402  0.2186E+03  0.9474E+03
      5.454  0.1846E+03  0.9570E+03
      5.506  0.1726E+03  0.9659E+03
      5.557  0.1891E+03  0.9758E+03
      5.609  0.2273E+03  0.9876E+03
      5.661  0.2755E+03  0.1002E+04
      5.713  0.3255E+03  0.1019E+04
      5.765  0.3675E+03  0.1038E+04
      5.817  0.3950E+03  0.1058E+04
      5.869  0.4103E+03  0.1080E+04
      5.921  0.4192E+03  0.1101E+04
      5.973  0.4258E+03  0.1123E+04
      6.025  0.4282E+03  0.1146E+04
      6.076  0.4163E+03  0.1167E+04
      6.128  0.3920E+03  0.1188E+04
      6.180  0.3719E+03  0.1207E+04
      6.232  0.3612E+03  0.1226E+04
      6.284  0.3553E+03  0.1244E+04
      6.336  0.3564E+03  0.1263E+04
      6.388  0.3692E+03  0.1282E+04
      6.440  0.3820E+03  0.1302E+04
      6.492  0.3843E+03  0.1321E+04
      6.543  0.3914E+03  0.1342E+04
      6.595  0.4095E+03  0.1363E+04
      6.647  0.4238E+03  0.1385E+04
      6.699  0.4281E+03  0.1407E+04
      6.751  0.4250E+03  0.1429E+04
      6.803  0.4131E+03  0.1451E+04
      6.855  0.3924E+03  0.1471E+04
      6.907  0.3737E+03  0.1490E+04
      6.959  0.3666E+03  0.1510E+04
      7.010  0.3637E+03  0.1528E+04
      7.062  0.3680E+03  0.1547E+04
      7.114  0.3910E+03  0.1568E+04
      7.166  0.4146E+03  0.1589E+04
      7.218  0.4221E+03  0.1611E+04
      7.270  0.4223E+03  0.1633E+04
      7.322  0.4136E+03  0.1655E+04
      7.374  0.3885E+03  0.1675E+04
      7.426  0.3592E+03  0.1693E+04
      7.477  0.3403E+03  0.1711E+04
      7.529  0.3326E+03  0.1728E+04
      7.581  0.3289E+03  0.1745E+04
      7.633  0.3173E+03  0.1762E+04
      7.685  0.2959E+03  0.1777E+04
      7.737  0.2776E+03  0.1792E+04
      7.789  0.2687E+03  0.1806E+04
      7.841  0.2636E+03  0.1819E+04
      7.893  0.2576E+03  0.1833E+04
      7.944  0.2486E+03  0.1845E+04
      7.996  0.2429E+03  0.1858E+04
      8.048  0.2432E+03  0.1871E+04
      8.100  0.2393E+03  0.1883E+04
      8.152  0.2314E+03  0.1895E+04
      8.204  0.2290E+03  0.1907E+04
      8.256  0.2333E+03  0.1919E+04
      8.308  0.2377E+03  0.1931E+04
      8.360  0.2391E+03  0.1944E+04
      8.411  0.2370E+03  0.1956E+04
      8.463  0.2289E+03  0.1968E+04
      8.515  0.2186E+03  0.1979E+04
      8.567  0.2121E+03  0.1990E+04
      8.619  0.2071E+03  0.2001E+04
      8.671  0.1998E+03  0.2011E+04
      8.723  0.1915E+03  0.2021E+04
      8.775  0.1833E+03  0.2031E+04
      8.827  0.1795E+03  0.2040E+04
      8.879  0.1880E+03  0.2050E+04
      8.930  0.2127E+03  0.2061E+04
      8.982  0.2353E+03  0.2073E+04
      9.034  0.2365E+03  0.2086E+04
      9.086  0.2236E+03  0.2097E+04
      9.138  0.2066E+03  0.2108E+04
      9.190  0.1872E+03  0.2118E+04
      9.242  0.1790E+03  0.2127E+04
      9.294  0.1971E+03  0.2137E+04
      9.346  0.2280E+03  0.2149E+04
      9.397  0.2429E+03  0.2162E+04
      9.449  0.2430E+03  0.2174E+04
      9.501  0.2449E+03  0.2187E+04
      9.553  0.2444E+03  0.2200E+04
      9.605  0.2462E+03  0.2212E+04
      9.657  0.2741E+03  0.2227E+04
      9.709  0.3171E+03  0.2243E+04
      9.761  0.3354E+03  0.2260E+04
      9.813  0.3265E+03  0.2277E+04
      9.864  0.3168E+03  0.2294E+04
      9.916  0.3154E+03  0.2310E+04
      9.968  0.3218E+03  0.2327E+04
     10.020  0.3429E+03  0.2345E+04
     10.072  0.3795E+03  0.2364E+04
     10.124  0.4125E+03  0.2386E+04
     10.176  0.4282E+03  0.2408E+04
     10.228  0.4360E+03  0.2431E+04
     10.280  0.4487E+03  0.2454E+04
     10.331  0.4673E+03  0.2478E+04
     10.383  0.4861E+03  0.2503E+04
     10.435  0.4972E+03  0.2529E+04
     10.487  0.4901E+03  0.2555E+04
     10.539  0.4529E+03  0.2578E+04
     10.591  0.3928E+03  0.2598E+04
     10.643  0.3242E+03  0.2615E+04
     10.695  0.2405E+03  0.2628E+04
     10.747  0.1392E+03  0.2635E+04
     10.798  0.4979E+02  0.2638E+04
     10.850  0.3363E+01  0.2638E+04
     10.902 -0.5740E+01  0.2637E+04
     10.954 -0.2750E+01  0.2637E+04
     11.006 -0.6048E+00  0.2637E+04
     11.058 -0.7669E-01  0.2637E+04
     11.110 -0.6103E-02  0.2637E+04
     11.162 -0.3175E-03  0.2637E+04
     11.214 -0.1081E-04  0.2637E+04
     11.266 -0.2338E-06  0.2637E+04
     11.317 -0.3108E-08  0.2637E+04
     11.369 -0.2471E-10  0.2637E+04
     11.421 -0.1253E-12  0.2637E+04
     11.473 -0.2803E-11  0.2637E+04
     11.525 -0.4507E-09  0.2637E+04
     11.577 -0.4160E-07  0.2637E+04
     11.629 -0.2190E-05  0.2637E+04
     11.681 -0.6512E-04  0.2637E+04
     11.733 -0.1075E-02  0.2637E+04
     11.784 -0.9501E-02  0.2637E+04
     11.836 -0.4110E-01  0.2637E+04
     11.888 -0.5591E-01  0.2637E+04
     11.940  0.1683E+00  0.2637E+04
     11.992  0.7993E+00  0.2637E+04
     12.044  0.1547E+01  0.2637E+04
     12.096  0.1977E+01  0.2637E+04
     12.148  0.1940E+01  0.2638E+04
     12.200  0.1782E+01  0.2638E+04
     12.251  0.1851E+01  0.2638E+04
     12.303  0.2122E+01  0.2638E+04
     12.355  0.2795E+01  0.2638E+04
     12.407  0.3423E+01  0.2638E+04
     12.459  0.2889E+01  0.2638E+04
     12.511  0.1999E+01  0.2638E+04
     12.563  0.2086E+01  0.2639E+04
     12.615  0.2481E+01  0.2639E+04
     12.667  0.2921E+01  0.2639E+04
     12.718  0.3642E+01  0.2639E+04
     12.770  0.3426E+01  0.2639E+04
     12.822  0.2371E+01  0.2639E+04
     12.874  0.2269E+01  0.2639E+04
     12.926  0.2563E+01  0.2640E+04
     12.978  0.1851E+01  0.2640E+04
     13.030  0.1042E+01  0.2640E+04
     13.082  0.7874E+00  0.2640E+04
     13.134  0.5494E+00  0.2640E+04
     13.185  0.6660E+00  0.2640E+04
     13.237  0.1314E+01  0.2640E+04
     13.289  0.1497E+01  0.2640E+04
     13.341  0.8385E+00  0.2640E+04
     13.393  0.1507E+00  0.2640E+04
     13.445 -0.6299E-01  0.2640E+04
     13.497 -0.3755E-01  0.2640E+04
     13.549 -0.7741E-02  0.2640E+04
     13.601 -0.7972E-03  0.2640E+04
     13.652 -0.4445E-04  0.2640E+04
     13.704 -0.1384E-05  0.2640E+04
     13.756 -0.2442E-07  0.2640E+04
     13.808 -0.2464E-09  0.2640E+04
     13.860 -0.1428E-11  0.2640E+04
     13.912 -0.4755E-14  0.2640E+04
     13.964  0.0000E+00  0.2640E+04
     14.016  0.0000E+00  0.2640E+04
     14.068  0.0000E+00  0.2640E+04
     14.120  0.0000E+00  0.2640E+04
     14.171  0.0000E+00  0.2640E+04
     14.223  0.0000E+00  0.2640E+04
     14.275  0.0000E+00  0.2640E+04
