 256 256   0   0
  0.1418917E+02  0.1588033E-08  0.1692661E-08  0.1693229E-08  0.5000000E-15
  1.000000000000000E-004
  CAR 
 Ir_Ru                                   
     14.27670948     -1.29195564  301      9.45688805      1.00000000
     -1.292  0.0000E+00  0.0000E+00
     -1.240  0.0000E+00  0.0000E+00
     -1.188  0.0000E+00  0.0000E+00
     -1.136 -0.2800E-30 -0.1453E-31
     -1.084 -0.1283E-26 -0.6662E-28
     -1.032 -0.3419E-23 -0.1775E-24
     -0.981 -0.5288E-20 -0.2746E-21
     -0.929 -0.4746E-17 -0.2466E-18
     -0.877 -0.2409E-14 -0.1253E-15
     -0.825 -0.7179E-12 -0.3738E-13
     -0.773 -0.1240E-09 -0.6471E-11
     -0.721 -0.1231E-07 -0.6455E-09
     -0.669 -0.7008E-06 -0.3701E-07
     -0.617 -0.2272E-04 -0.1216E-05
     -0.565 -0.4166E-03 -0.2284E-04
     -0.514 -0.4278E-02 -0.2448E-03
     -0.462 -0.2434E-01 -0.1508E-02
     -0.410 -0.7526E-01 -0.5414E-02
     -0.358 -0.1019E+00 -0.1070E-01
     -0.306  0.2070E+00  0.4056E-04
     -0.254  0.1644E+01  0.8534E-01
     -0.202  0.4404E+01  0.3139E+00
     -0.150  0.6356E+01  0.6437E+00
     -0.098  0.6422E+01  0.9770E+00
     -0.046  0.6966E+01  0.1339E+01
      0.005  0.8866E+01  0.1799E+01
      0.057  0.1119E+02  0.2379E+01
      0.109  0.1362E+02  0.3086E+01
      0.161  0.1434E+02  0.3830E+01
      0.213  0.1169E+02  0.4436E+01
      0.265  0.1007E+02  0.4959E+01
      0.317  0.1430E+02  0.5702E+01
      0.369  0.2037E+02  0.6759E+01
      0.421  0.2251E+02  0.7927E+01
      0.472  0.2269E+02  0.9104E+01
      0.524  0.2351E+02  0.1032E+02
      0.576  0.2252E+02  0.1149E+02
      0.628  0.2044E+02  0.1255E+02
      0.680  0.2100E+02  0.1364E+02
      0.732  0.2038E+02  0.1470E+02
      0.784  0.1458E+02  0.1546E+02
      0.836  0.8844E+01  0.1592E+02
      0.888  0.8002E+01  0.1633E+02
      0.940  0.1168E+02  0.1694E+02
      0.991  0.1889E+02  0.1792E+02
      1.043  0.2786E+02  0.1936E+02
      1.095  0.3340E+02  0.2110E+02
      1.147  0.3310E+02  0.2281E+02
      1.199  0.2882E+02  0.2431E+02
      1.251  0.2284E+02  0.2550E+02
      1.303  0.1950E+02  0.2651E+02
      1.355  0.2170E+02  0.2763E+02
      1.407  0.2719E+02  0.2904E+02
      1.459  0.3034E+02  0.3062E+02
      1.510  0.2980E+02  0.3217E+02
      1.562  0.2933E+02  0.3369E+02
      1.614  0.3044E+02  0.3527E+02
      1.666  0.3112E+02  0.3688E+02
      1.718  0.3201E+02  0.3854E+02
      1.770  0.3499E+02  0.4036E+02
      1.822  0.3910E+02  0.4239E+02
      1.874  0.4552E+02  0.4475E+02
      1.926  0.5468E+02  0.4759E+02
      1.977  0.5935E+02  0.5067E+02
      2.029  0.5476E+02  0.5351E+02
      2.081  0.5051E+02  0.5613E+02
      2.133  0.6161E+02  0.5933E+02
      2.185  0.8693E+02  0.6384E+02
      2.237  0.1088E+03  0.6948E+02
      2.289  0.1197E+03  0.7569E+02
      2.341  0.1257E+03  0.8222E+02
      2.393  0.1315E+03  0.8904E+02
      2.445  0.1374E+03  0.9617E+02
      2.496  0.1471E+03  0.1038E+03
      2.548  0.1644E+03  0.1123E+03
      2.600  0.1830E+03  0.1218E+03
      2.652  0.1949E+03  0.1319E+03
      2.704  0.2066E+03  0.1427E+03
      2.756  0.2235E+03  0.1543E+03
      2.808  0.2307E+03  0.1662E+03
      2.860  0.2246E+03  0.1779E+03
      2.912  0.2278E+03  0.1897E+03
      2.963  0.2453E+03  0.2025E+03
      3.015  0.2579E+03  0.2158E+03
      3.067  0.2599E+03  0.2293E+03
      3.119  0.2605E+03  0.2429E+03
      3.171  0.2641E+03  0.2566E+03
      3.223  0.2730E+03  0.2707E+03
      3.275  0.2881E+03  0.2857E+03
      3.327  0.3076E+03  0.3016E+03
      3.379  0.3246E+03  0.3185E+03
      3.431  0.3307E+03  0.3356E+03
      3.482  0.3277E+03  0.3527E+03
      3.534  0.3213E+03  0.3693E+03
      3.586  0.3181E+03  0.3858E+03
      3.638  0.3162E+03  0.4022E+03
      3.690  0.3107E+03  0.4184E+03
      3.742  0.3050E+03  0.4342E+03
      3.794  0.3012E+03  0.4498E+03
      3.846  0.2970E+03  0.4652E+03
      3.898  0.2933E+03  0.4805E+03
      3.949  0.2885E+03  0.4954E+03
      4.001  0.2761E+03  0.5098E+03
      4.053  0.2664E+03  0.5236E+03
      4.105  0.2756E+03  0.5379E+03
      4.157  0.2942E+03  0.5532E+03
      4.209  0.3029E+03  0.5689E+03
      4.261  0.3054E+03  0.5847E+03
      4.313  0.3123E+03  0.6009E+03
      4.365  0.3189E+03  0.6175E+03
      4.417  0.3214E+03  0.6342E+03
      4.468  0.3235E+03  0.6509E+03
      4.520  0.3208E+03  0.6676E+03
      4.572  0.3094E+03  0.6837E+03
      4.624  0.2972E+03  0.6991E+03
      4.676  0.2935E+03  0.7143E+03
      4.728  0.2983E+03  0.7298E+03
      4.780  0.3059E+03  0.7457E+03
      4.832  0.3180E+03  0.7622E+03
      4.884  0.3316E+03  0.7794E+03
      4.936  0.3379E+03  0.7969E+03
      4.987  0.3453E+03  0.8148E+03
      5.039  0.3583E+03  0.8334E+03
      5.091  0.3656E+03  0.8524E+03
      5.143  0.3641E+03  0.8713E+03
      5.195  0.3549E+03  0.8897E+03
      5.247  0.3343E+03  0.9071E+03
      5.299  0.3019E+03  0.9227E+03
      5.351  0.2608E+03  0.9363E+03
      5.403  0.2178E+03  0.9476E+03
      5.454  0.1844E+03  0.9571E+03
      5.506  0.1729E+03  0.9661E+03
      5.558  0.1896E+03  0.9759E+03
      5.610  0.2279E+03  0.9878E+03
      5.662  0.2764E+03  0.1002E+04
      5.714  0.3265E+03  0.1019E+04
      5.766  0.3682E+03  0.1038E+04
      5.818  0.3954E+03  0.1059E+04
      5.870  0.4103E+03  0.1080E+04
      5.922  0.4187E+03  0.1102E+04
      5.973  0.4253E+03  0.1124E+04
      6.025  0.4279E+03  0.1146E+04
      6.077  0.4161E+03  0.1168E+04
      6.129  0.3919E+03  0.1188E+04
      6.181  0.3720E+03  0.1207E+04
      6.233  0.3613E+03  0.1226E+04
      6.285  0.3553E+03  0.1244E+04
      6.337  0.3565E+03  0.1263E+04
      6.389  0.3695E+03  0.1282E+04
      6.440  0.3821E+03  0.1302E+04
      6.492  0.3844E+03  0.1322E+04
      6.544  0.3918E+03  0.1342E+04
      6.596  0.4101E+03  0.1363E+04
      6.648  0.4239E+03  0.1385E+04
      6.700  0.4280E+03  0.1408E+04
      6.752  0.4251E+03  0.1430E+04
      6.804  0.4130E+03  0.1451E+04
      6.856  0.3917E+03  0.1472E+04
      6.908  0.3730E+03  0.1491E+04
      6.959  0.3663E+03  0.1510E+04
      7.011  0.3638E+03  0.1529E+04
      7.063  0.3684E+03  0.1548E+04
      7.115  0.3916E+03  0.1568E+04
      7.167  0.4149E+03  0.1590E+04
      7.219  0.4223E+03  0.1612E+04
      7.271  0.4224E+03  0.1634E+04
      7.323  0.4133E+03  0.1655E+04
      7.375  0.3878E+03  0.1675E+04
      7.426  0.3585E+03  0.1694E+04
      7.478  0.3399E+03  0.1711E+04
      7.530  0.3324E+03  0.1729E+04
      7.582  0.3287E+03  0.1746E+04
      7.634  0.3171E+03  0.1762E+04
      7.686  0.2957E+03  0.1777E+04
      7.738  0.2774E+03  0.1792E+04
      7.790  0.2686E+03  0.1806E+04
      7.842  0.2636E+03  0.1819E+04
      7.894  0.2574E+03  0.1833E+04
      7.945  0.2483E+03  0.1846E+04
      7.997  0.2429E+03  0.1858E+04
      8.049  0.2433E+03  0.1871E+04
      8.101  0.2392E+03  0.1883E+04
      8.153  0.2313E+03  0.1895E+04
      8.205  0.2290E+03  0.1907E+04
      8.257  0.2334E+03  0.1919E+04
      8.309  0.2377E+03  0.1932E+04
      8.361  0.2391E+03  0.1944E+04
      8.413  0.2369E+03  0.1956E+04
      8.464  0.2287E+03  0.1968E+04
      8.516  0.2184E+03  0.1980E+04
      8.568  0.2119E+03  0.1991E+04
      8.620  0.2070E+03  0.2001E+04
      8.672  0.1997E+03  0.2012E+04
      8.724  0.1913E+03  0.2022E+04
      8.776  0.1831E+03  0.2031E+04
      8.828  0.1795E+03  0.2040E+04
      8.880  0.1884E+03  0.2050E+04
      8.931  0.2133E+03  0.2061E+04
      8.983  0.2355E+03  0.2074E+04
      9.035  0.2362E+03  0.2086E+04
      9.087  0.2233E+03  0.2097E+04
      9.139  0.2063E+03  0.2108E+04
      9.191  0.1869E+03  0.2118E+04
      9.243  0.1790E+03  0.2127E+04
      9.295  0.1978E+03  0.2137E+04
      9.347  0.2287E+03  0.2149E+04
      9.399  0.2430E+03  0.2162E+04
      9.450  0.2429E+03  0.2174E+04
      9.502  0.2450E+03  0.2187E+04
      9.554  0.2444E+03  0.2200E+04
      9.606  0.2465E+03  0.2213E+04
      9.658  0.2751E+03  0.2227E+04
      9.710  0.3180E+03  0.2243E+04
      9.762  0.3356E+03  0.2261E+04
      9.814  0.3263E+03  0.2278E+04
      9.866  0.3165E+03  0.2294E+04
      9.917  0.3152E+03  0.2311E+04
      9.969  0.3217E+03  0.2327E+04
     10.021  0.3433E+03  0.2345E+04
     10.073  0.3805E+03  0.2365E+04
     10.125  0.4135E+03  0.2386E+04
     10.177  0.4286E+03  0.2408E+04
     10.229  0.4362E+03  0.2431E+04
     10.281  0.4489E+03  0.2454E+04
     10.333  0.4671E+03  0.2479E+04
     10.385  0.4849E+03  0.2504E+04
     10.436  0.4945E+03  0.2529E+04
     10.488  0.4859E+03  0.2555E+04
     10.540  0.4483E+03  0.2578E+04
     10.592  0.3892E+03  0.2598E+04
     10.644  0.3225E+03  0.2615E+04
     10.696  0.2408E+03  0.2627E+04
     10.748  0.1408E+03  0.2635E+04
     10.800  0.5129E+02  0.2637E+04
     10.852  0.4038E+01  0.2638E+04
     10.903 -0.5553E+01  0.2637E+04
     10.955 -0.2718E+01  0.2637E+04
     11.007 -0.6200E+00  0.2637E+04
     11.059 -0.8996E-01  0.2637E+04
     11.111 -0.9726E-02  0.2637E+04
     11.163 -0.7835E-03  0.2637E+04
     11.215 -0.4202E-04  0.2637E+04
     11.267 -0.1371E-05  0.2637E+04
     11.319 -0.2616E-07  0.2637E+04
     11.371 -0.2887E-09  0.2637E+04
     11.422 -0.1845E-11  0.2637E+04
     11.474 -0.2639E-11  0.2637E+04
     11.526 -0.4721E-09  0.2637E+04
     11.578 -0.4871E-07  0.2637E+04
     11.630 -0.2874E-05  0.2637E+04
     11.682 -0.9601E-04  0.2637E+04
     11.734 -0.1784E-02  0.2637E+04
     11.786 -0.1775E-01  0.2637E+04
     11.838 -0.8573E-01  0.2637E+04
     11.890 -0.1244E+00  0.2637E+04
     11.941  0.4354E+00  0.2637E+04
     11.993  0.1892E+01  0.2637E+04
     12.045  0.2741E+01  0.2637E+04
     12.097  0.2004E+01  0.2637E+04
     12.149  0.1102E+01  0.2638E+04
     12.201  0.9087E+00  0.2638E+04
     12.253  0.1367E+01  0.2638E+04
     12.305  0.2307E+01  0.2638E+04
     12.357  0.2934E+01  0.2638E+04
     12.408  0.2934E+01  0.2638E+04
     12.460  0.2871E+01  0.2638E+04
     12.512  0.2792E+01  0.2638E+04
     12.564  0.2765E+01  0.2639E+04
     12.616  0.2726E+01  0.2639E+04
     12.668  0.2874E+01  0.2639E+04
     12.720  0.3560E+01  0.2639E+04
     12.772  0.3696E+01  0.2639E+04
     12.824  0.3034E+01  0.2639E+04
     12.876  0.2643E+01  0.2639E+04
     12.927  0.2275E+01  0.2640E+04
     12.979  0.1567E+01  0.2640E+04
     13.031  0.1073E+01  0.2640E+04
     13.083  0.8139E+00  0.2640E+04
     13.135  0.6940E+00  0.2640E+04
     13.187  0.9093E+00  0.2640E+04
     13.239  0.1143E+01  0.2640E+04
     13.291  0.1092E+01  0.2640E+04
     13.343  0.6689E+00  0.2640E+04
     13.394  0.1594E+00  0.2640E+04
     13.446 -0.4324E-01  0.2640E+04
     13.498 -0.3290E-01  0.2640E+04
     13.550 -0.7262E-02  0.2640E+04
     13.602 -0.7725E-03  0.2640E+04
     13.654 -0.4380E-04  0.2640E+04
     13.706 -0.1376E-05  0.2640E+04
     13.758 -0.2440E-07  0.2640E+04
     13.810 -0.2467E-09  0.2640E+04
     13.862 -0.1432E-11  0.2640E+04
     13.913 -0.4754E-14  0.2640E+04
     13.965  0.0000E+00  0.2640E+04
     14.017  0.0000E+00  0.2640E+04
     14.069  0.0000E+00  0.2640E+04
     14.121  0.0000E+00  0.2640E+04
     14.173  0.0000E+00  0.2640E+04
     14.225  0.0000E+00  0.2640E+04
     14.277  0.0000E+00  0.2640E+04
