  20  20   0   0
  0.1382907E+02  0.2693765E-09  0.9718210E-09  0.1077413E-08  0.5000000E-15
  1.000000000000000E-004
  CAR 
 Ir_Ru                                   
     12.15645732     -0.13591931  301      8.63541419      1.00000000
     -0.136  0.0000E+00  0.0000E+00
     -0.095  0.0000E+00  0.0000E+00
     -0.054  0.0000E+00  0.0000E+00
     -0.013  0.0000E+00  0.0000E+00
      0.028 -0.1117E-30 -0.4575E-32
      0.069 -0.8478E-28 -0.3478E-29
      0.110 -0.4592E-25 -0.1885E-26
      0.151 -0.1773E-22 -0.7282E-24
      0.192 -0.4873E-20 -0.2004E-21
      0.233 -0.9535E-18 -0.3927E-19
      0.274 -0.1267E-15 -0.5231E-17
      0.315 -0.1271E-13 -0.5259E-15
      0.356 -0.8878E-12 -0.3690E-13
      0.397 -0.4393E-10 -0.1837E-11
      0.438 -0.1536E-08 -0.6479E-10
      0.479 -0.3787E-07 -0.1616E-08
      0.520 -0.6554E-06 -0.2847E-07
      0.561 -0.7932E-05 -0.3535E-06
      0.602 -0.6673E-04 -0.3088E-05
      0.643 -0.3877E-03 -0.1897E-04
      0.684 -0.1542E-02 -0.8215E-04
      0.725 -0.4125E-02 -0.2512E-03
      0.766 -0.6910E-02 -0.5343E-03
      0.806 -0.3685E-02 -0.6853E-03
      0.847  0.2032E-01  0.1474E-03
      0.888  0.8804E-01  0.3755E-02
      0.929  0.2134E+00  0.1250E-01
      0.970  0.3753E+00  0.2788E-01
      1.011  0.5151E+00  0.4898E-01
      1.052  0.5667E+00  0.7221E-01
      1.093  0.5179E+00  0.9343E-01
      1.134  0.4572E+00  0.1122E+00
      1.175  0.5203E+00  0.1335E+00
      1.216  0.7470E+00  0.1641E+00
      1.257  0.1007E+01  0.2053E+00
      1.298  0.1122E+01  0.2513E+00
      1.339  0.1047E+01  0.2942E+00
      1.380  0.8869E+00  0.3306E+00
      1.421  0.7828E+00  0.3626E+00
      1.462  0.8005E+00  0.3954E+00
      1.503  0.8921E+00  0.4320E+00
      1.544  0.1014E+01  0.4735E+00
      1.585  0.1191E+01  0.5223E+00
      1.626  0.1379E+01  0.5789E+00
      1.667  0.1450E+01  0.6383E+00
      1.708  0.1401E+01  0.6957E+00
      1.749  0.1386E+01  0.7524E+00
      1.790  0.1451E+01  0.8119E+00
      1.831  0.1506E+01  0.8736E+00
      1.872  0.1512E+01  0.9356E+00
      1.913  0.1494E+01  0.9968E+00
      1.954  0.1460E+01  0.1057E+01
      1.995  0.1431E+01  0.1115E+01
      2.036  0.1435E+01  0.1174E+01
      2.077  0.1535E+01  0.1237E+01
      2.118  0.1800E+01  0.1311E+01
      2.159  0.2143E+01  0.1399E+01
      2.200  0.2325E+01  0.1494E+01
      2.241  0.2255E+01  0.1586E+01
      2.282  0.2118E+01  0.1673E+01
      2.323  0.2231E+01  0.1764E+01
      2.364  0.2804E+01  0.1879E+01
      2.405  0.3689E+01  0.2030E+01
      2.445  0.4479E+01  0.2214E+01
      2.486  0.4948E+01  0.2417E+01
      2.527  0.5254E+01  0.2632E+01
      2.568  0.5755E+01  0.2868E+01
      2.609  0.6659E+01  0.3141E+01
      2.650  0.7976E+01  0.3467E+01
      2.691  0.9733E+01  0.3866E+01
      2.732  0.1185E+02  0.4352E+01
      2.773  0.1395E+02  0.4923E+01
      2.814  0.1582E+02  0.5571E+01
      2.855  0.1783E+02  0.6302E+01
      2.896  0.2016E+02  0.7128E+01
      2.937  0.2218E+02  0.8037E+01
      2.978  0.2318E+02  0.8986E+01
      3.019  0.2329E+02  0.9941E+01
      3.060  0.2329E+02  0.1090E+02
      3.101  0.2387E+02  0.1187E+02
      3.142  0.2525E+02  0.1291E+02
      3.183  0.2722E+02  0.1402E+02
      3.224  0.2938E+02  0.1523E+02
      3.265  0.3136E+02  0.1651E+02
      3.306  0.3296E+02  0.1786E+02
      3.347  0.3413E+02  0.1926E+02
      3.388  0.3497E+02  0.2069E+02
      3.429  0.3568E+02  0.2216E+02
      3.470  0.3648E+02  0.2365E+02
      3.511  0.3732E+02  0.2518E+02
      3.552  0.3775E+02  0.2673E+02
      3.593  0.3721E+02  0.2825E+02
      3.634  0.3572E+02  0.2972E+02
      3.675  0.3401E+02  0.3111E+02
      3.716  0.3286E+02  0.3246E+02
      3.757  0.3223E+02  0.3378E+02
      3.798  0.3144E+02  0.3506E+02
      3.839  0.3027E+02  0.3630E+02
      3.880  0.2907E+02  0.3750E+02
      3.921  0.2815E+02  0.3865E+02
      3.962  0.2743E+02  0.3977E+02
      4.003  0.2674E+02  0.4087E+02
      4.043  0.2605E+02  0.4194E+02
      4.084  0.2545E+02  0.4298E+02
      4.125  0.2488E+02  0.4400E+02
      4.166  0.2402E+02  0.4498E+02
      4.207  0.2281E+02  0.4592E+02
      4.248  0.2167E+02  0.4680E+02
      4.289  0.2094E+02  0.4766E+02
      4.330  0.2059E+02  0.4851E+02
      4.371  0.2052E+02  0.4935E+02
      4.412  0.2066E+02  0.5019E+02
      4.453  0.2085E+02  0.5105E+02
      4.494  0.2104E+02  0.5191E+02
      4.535  0.2150E+02  0.5279E+02
      4.576  0.2251E+02  0.5371E+02
      4.617  0.2373E+02  0.5468E+02
      4.658  0.2425E+02  0.5568E+02
      4.699  0.2375E+02  0.5665E+02
      4.740  0.2305E+02  0.5760E+02
      4.781  0.2304E+02  0.5854E+02
      4.822  0.2339E+02  0.5950E+02
      4.863  0.2343E+02  0.6046E+02
      4.904  0.2335E+02  0.6142E+02
      4.945  0.2362E+02  0.6238E+02
      4.986  0.2402E+02  0.6337E+02
      5.027  0.2404E+02  0.6435E+02
      5.068  0.2360E+02  0.6532E+02
      5.109  0.2304E+02  0.6626E+02
      5.150  0.2265E+02  0.6719E+02
      5.191  0.2242E+02  0.6811E+02
      5.232  0.2223E+02  0.6902E+02
      5.273  0.2208E+02  0.6993E+02
      5.314  0.2213E+02  0.7083E+02
      5.355  0.2258E+02  0.7176E+02
      5.396  0.2325E+02  0.7271E+02
      5.437  0.2367E+02  0.7368E+02
      5.478  0.2372E+02  0.7465E+02
      5.519  0.2365E+02  0.7562E+02
      5.560  0.2378E+02  0.7659E+02
      5.601  0.2412E+02  0.7758E+02
      5.641  0.2438E+02  0.7858E+02
      5.682  0.2458E+02  0.7959E+02
      5.723  0.2509E+02  0.8062E+02
      5.764  0.2590E+02  0.8168E+02
      5.805  0.2650E+02  0.8276E+02
      5.846  0.2671E+02  0.8386E+02
      5.887  0.2693E+02  0.8496E+02
      5.928  0.2754E+02  0.8609E+02
      5.969  0.2852E+02  0.8726E+02
      6.010  0.2970E+02  0.8848E+02
      6.051  0.3095E+02  0.8974E+02
      6.092  0.3198E+02  0.9105E+02
      6.133  0.3272E+02  0.9240E+02
      6.174  0.3343E+02  0.9377E+02
      6.215  0.3426E+02  0.9517E+02
      6.256  0.3507E+02  0.9661E+02
      6.297  0.3583E+02  0.9807E+02
      6.338  0.3678E+02  0.9958E+02
      6.379  0.3792E+02  0.1011E+03
      6.420  0.3881E+02  0.1027E+03
      6.461  0.3912E+02  0.1043E+03
      6.502  0.3877E+02  0.1059E+03
      6.543  0.3773E+02  0.1075E+03
      6.584  0.3636E+02  0.1090E+03
      6.625  0.3530E+02  0.1104E+03
      6.666  0.3456E+02  0.1118E+03
      6.707  0.3345E+02  0.1132E+03
      6.748  0.3155E+02  0.1145E+03
      6.789  0.2909E+02  0.1157E+03
      6.830  0.2671E+02  0.1168E+03
      6.871  0.2500E+02  0.1178E+03
      6.912  0.2436E+02  0.1188E+03
      6.953  0.2487E+02  0.1198E+03
      6.994  0.2588E+02  0.1209E+03
      7.035  0.2640E+02  0.1219E+03
      7.076  0.2616E+02  0.1230E+03
      7.117  0.2562E+02  0.1241E+03
      7.158  0.2486E+02  0.1251E+03
      7.199  0.2365E+02  0.1261E+03
      7.240  0.2235E+02  0.1270E+03
      7.280  0.2151E+02  0.1279E+03
      7.321  0.2119E+02  0.1287E+03
      7.362  0.2106E+02  0.1296E+03
      7.403  0.2100E+02  0.1304E+03
      7.444  0.2117E+02  0.1313E+03
      7.485  0.2149E+02  0.1322E+03
      7.526  0.2164E+02  0.1331E+03
      7.567  0.2168E+02  0.1340E+03
      7.608  0.2194E+02  0.1349E+03
      7.649  0.2241E+02  0.1358E+03
      7.690  0.2266E+02  0.1367E+03
      7.731  0.2262E+02  0.1376E+03
      7.772  0.2273E+02  0.1386E+03
      7.813  0.2315E+02  0.1395E+03
      7.854  0.2346E+02  0.1405E+03
      7.895  0.2360E+02  0.1415E+03
      7.936  0.2410E+02  0.1424E+03
      7.977  0.2523E+02  0.1435E+03
      8.018  0.2657E+02  0.1446E+03
      8.059  0.2766E+02  0.1457E+03
      8.100  0.2829E+02  0.1469E+03
      8.141  0.2837E+02  0.1480E+03
      8.182  0.2788E+02  0.1492E+03
      8.223  0.2693E+02  0.1503E+03
      8.264  0.2569E+02  0.1513E+03
      8.305  0.2440E+02  0.1523E+03
      8.346  0.2340E+02  0.1533E+03
      8.387  0.2305E+02  0.1542E+03
      8.428  0.2315E+02  0.1552E+03
      8.469  0.2319E+02  0.1561E+03
      8.510  0.2315E+02  0.1571E+03
      8.551  0.2336E+02  0.1580E+03
      8.592  0.2356E+02  0.1590E+03
      8.633  0.2318E+02  0.1599E+03
      8.674  0.2230E+02  0.1609E+03
      8.715  0.2148E+02  0.1617E+03
      8.756  0.2108E+02  0.1626E+03
      8.797  0.2100E+02  0.1635E+03
      8.838  0.2099E+02  0.1643E+03
      8.878  0.2083E+02  0.1652E+03
      8.919  0.2054E+02  0.1660E+03
      8.960  0.2048E+02  0.1668E+03
      9.001  0.2088E+02  0.1677E+03
      9.042  0.2131E+02  0.1686E+03
      9.083  0.2128E+02  0.1695E+03
      9.124  0.2096E+02  0.1703E+03
      9.165  0.2072E+02  0.1712E+03
      9.206  0.2056E+02  0.1720E+03
      9.247  0.2043E+02  0.1728E+03
      9.288  0.2049E+02  0.1737E+03
      9.329  0.2071E+02  0.1745E+03
      9.370  0.2075E+02  0.1754E+03
      9.411  0.2043E+02  0.1762E+03
      9.452  0.2023E+02  0.1770E+03
      9.493  0.2061E+02  0.1779E+03
      9.534  0.2121E+02  0.1788E+03
      9.575  0.2140E+02  0.1796E+03
      9.616  0.2122E+02  0.1805E+03
      9.657  0.2133E+02  0.1814E+03
      9.698  0.2206E+02  0.1823E+03
      9.739  0.2289E+02  0.1832E+03
      9.780  0.2340E+02  0.1842E+03
      9.821  0.2389E+02  0.1852E+03
      9.862  0.2467E+02  0.1862E+03
      9.903  0.2538E+02  0.1872E+03
      9.944  0.2560E+02  0.1883E+03
      9.985  0.2543E+02  0.1893E+03
     10.026  0.2526E+02  0.1903E+03
     10.067  0.2523E+02  0.1914E+03
     10.108  0.2497E+02  0.1924E+03
     10.149  0.2403E+02  0.1934E+03
     10.190  0.2235E+02  0.1943E+03
     10.231  0.2020E+02  0.1951E+03
     10.272  0.1791E+02  0.1959E+03
     10.313  0.1571E+02  0.1965E+03
     10.354  0.1375E+02  0.1971E+03
     10.395  0.1199E+02  0.1976E+03
     10.436  0.1027E+02  0.1980E+03
     10.476  0.8611E+01  0.1983E+03
     10.517  0.7438E+01  0.1986E+03
     10.558  0.6922E+01  0.1989E+03
     10.599  0.6589E+01  0.1992E+03
     10.640  0.5935E+01  0.1994E+03
     10.681  0.4902E+01  0.1996E+03
     10.722  0.3651E+01  0.1998E+03
     10.763  0.2373E+01  0.1999E+03
     10.804  0.1299E+01  0.1999E+03
     10.845  0.5769E+00  0.2000E+03
     10.886  0.1967E+00  0.2000E+03
     10.927  0.7695E-01  0.2000E+03
     10.968  0.1083E+00  0.2000E+03
     11.009  0.1595E+00  0.2000E+03
     11.050  0.1605E+00  0.2000E+03
     11.091  0.1429E+00  0.2000E+03
     11.132  0.1429E+00  0.2000E+03
     11.173  0.1323E+00  0.2000E+03
     11.214  0.8389E-01  0.2000E+03
     11.255  0.2704E-01  0.2000E+03
     11.296 -0.2561E-02  0.2000E+03
     11.337 -0.6696E-02  0.2000E+03
     11.378 -0.3197E-02  0.2000E+03
     11.419 -0.8599E-03  0.2000E+03
     11.460 -0.1494E-03  0.2000E+03
     11.501 -0.1758E-04  0.2000E+03
     11.542 -0.1429E-05  0.2000E+03
     11.583 -0.8124E-07  0.2000E+03
     11.624 -0.3249E-08  0.2000E+03
     11.665 -0.9180E-10  0.2000E+03
     11.706 -0.1837E-11  0.2000E+03
     11.747 -0.2606E-13  0.2000E+03
     11.788 -0.2890E-15  0.2000E+03
     11.829  0.0000E+00  0.2000E+03
     11.870  0.0000E+00  0.2000E+03
     11.911  0.0000E+00  0.2000E+03
     11.952  0.0000E+00  0.2000E+03
     11.993  0.0000E+00  0.2000E+03
     12.034  0.0000E+00  0.2000E+03
     12.075  0.0000E+00  0.2000E+03
     12.115  0.0000E+00  0.2000E+03
     12.156  0.0000E+00  0.2000E+03
