<?xml version="1.0" encoding="ISO-8859-1"?>
<modeling>
 <generator>
  <i name="program" type="string">vasp </i>
  <i name="version" type="string">5.4.1  </i>
  <i name="subversion" type="string">24Jun15 (build Feb 03 2017 16:24:58) complex                          parallel </i>
  <i name="platform" type="string">IFC91_ompi </i>
  <i name="date" type="string">2018 06 25 </i>
  <i name="time" type="string">13:16:14 </i>
 </generator>
 <incar>
  <i type="string" name="SYSTEM"> Ir_Ru</i>
  <i type="int" name="ISTART">     0</i>
  <i type="string" name="PREC">accurate</i>
  <i type="string" name="ALGO"> Fast</i>
  <i type="int" name="ICHARG">     2</i>
  <i type="int" name="NELMIN">     5</i>
  <i type="int" name="IBRION">    -1</i>
  <i name="EDIFFG">      0.00001000</i>
  <i type="int" name="ISIF">     2</i>
  <i type="string" name="LREAL"> AUTO</i>
  <i type="int" name="ISMEAR">     1</i>
  <i name="SIGMA">      0.10000000</i>
  <v type="int" name="KPOINT_BSE">    -1     0     0     0</v>
 </incar>
 <kpoints>
  <generation param="Gamma">
   <v type="int" name="divisions">      18        5        5 </v>
   <v name="usershift">      0.00000000       0.00000000       0.00000000 </v>
   <v name="genvec1">      0.05555556      -0.00000000      -0.00000000 </v>
   <v name="genvec2">      0.00000000       0.20000000       0.00000000 </v>
   <v name="genvec3">     -0.00000000      -0.00000000       0.20000000 </v>
   <v name="shift">      0.00000000       0.00000000       0.00000000 </v>
  </generation>
  <varray name="kpointlist" >
   <v>       0.00000000       0.00000000       0.00000000 </v>
   <v>       0.05555556       0.00000000      -0.00000000 </v>
   <v>       0.11111111       0.00000000      -0.00000000 </v>
   <v>       0.16666667       0.00000000      -0.00000000 </v>
   <v>       0.22222222       0.00000000      -0.00000000 </v>
   <v>       0.27777778       0.00000000      -0.00000000 </v>
   <v>       0.33333333       0.00000000      -0.00000000 </v>
   <v>       0.38888889       0.00000000      -0.00000000 </v>
   <v>       0.44444444       0.00000000      -0.00000000 </v>
   <v>       0.50000000       0.00000000       0.00000000 </v>
   <v>      -0.00000000       0.20000000       0.00000000 </v>
   <v>       0.05555556       0.20000000      -0.00000000 </v>
   <v>       0.11111111       0.20000000       0.00000000 </v>
   <v>       0.16666667       0.20000000       0.00000000 </v>
   <v>       0.22222222       0.20000000      -0.00000000 </v>
   <v>       0.27777778       0.20000000      -0.00000000 </v>
   <v>       0.33333333       0.20000000      -0.00000000 </v>
   <v>       0.38888889       0.20000000       0.00000000 </v>
   <v>       0.44444444       0.20000000      -0.00000000 </v>
   <v>       0.50000000       0.20000000       0.00000000 </v>
   <v>      -0.44444444       0.20000000       0.00000000 </v>
   <v>      -0.38888889       0.20000000      -0.00000000 </v>
   <v>      -0.33333333       0.20000000       0.00000000 </v>
   <v>      -0.27777778       0.20000000      -0.00000000 </v>
   <v>      -0.22222222       0.20000000       0.00000000 </v>
   <v>      -0.16666667       0.20000000       0.00000000 </v>
   <v>      -0.11111111       0.20000000       0.00000000 </v>
   <v>      -0.05555556       0.20000000      -0.00000000 </v>
   <v>      -0.00000000       0.40000000       0.00000000 </v>
   <v>       0.05555556       0.40000000      -0.00000000 </v>
   <v>       0.11111111       0.40000000      -0.00000000 </v>
   <v>       0.16666667       0.40000000       0.00000000 </v>
   <v>       0.22222222       0.40000000       0.00000000 </v>
   <v>       0.27777778       0.40000000       0.00000000 </v>
   <v>       0.33333333       0.40000000       0.00000000 </v>
   <v>       0.38888889       0.40000000       0.00000000 </v>
   <v>       0.44444444       0.40000000      -0.00000000 </v>
   <v>       0.50000000       0.40000000      -0.00000000 </v>
   <v>      -0.44444444       0.40000000       0.00000000 </v>
   <v>      -0.38888889       0.40000000      -0.00000000 </v>
   <v>      -0.33333333       0.40000000       0.00000000 </v>
   <v>      -0.27777778       0.40000000       0.00000000 </v>
   <v>      -0.22222222       0.40000000       0.00000000 </v>
   <v>      -0.16666667       0.40000000       0.00000000 </v>
   <v>      -0.11111111       0.40000000      -0.00000000 </v>
   <v>      -0.05555556       0.40000000       0.00000000 </v>
   <v>       0.00000000      -0.00000000       0.20000000 </v>
   <v>       0.05555556      -0.00000000       0.20000000 </v>
   <v>       0.11111111       0.00000000       0.20000000 </v>
   <v>       0.16666667       0.00000000       0.20000000 </v>
   <v>       0.22222222       0.00000000       0.20000000 </v>
   <v>       0.27777778       0.00000000       0.20000000 </v>
   <v>       0.33333333       0.00000000       0.20000000 </v>
   <v>       0.38888889       0.00000000       0.20000000 </v>
   <v>       0.44444444      -0.00000000       0.20000000 </v>
   <v>       0.50000000      -0.00000000       0.20000000 </v>
   <v>      -0.44444444       0.00000000       0.20000000 </v>
   <v>      -0.38888889      -0.00000000       0.20000000 </v>
   <v>      -0.33333333       0.00000000       0.20000000 </v>
   <v>      -0.27777778       0.00000000       0.20000000 </v>
   <v>      -0.22222222       0.00000000       0.20000000 </v>
   <v>      -0.16666667      -0.00000000       0.20000000 </v>
   <v>      -0.11111111      -0.00000000       0.20000000 </v>
   <v>      -0.05555556       0.00000000       0.20000000 </v>
   <v>       0.00000000       0.20000000       0.20000000 </v>
   <v>       0.05555556       0.20000000       0.20000000 </v>
   <v>       0.11111111       0.20000000       0.20000000 </v>
   <v>       0.16666667       0.20000000       0.20000000 </v>
   <v>       0.22222222       0.20000000       0.20000000 </v>
   <v>       0.27777778       0.20000000       0.20000000 </v>
   <v>       0.33333333       0.20000000       0.20000000 </v>
   <v>       0.38888889       0.20000000       0.20000000 </v>
   <v>       0.44444444       0.20000000       0.20000000 </v>
   <v>       0.50000000       0.20000000       0.20000000 </v>
   <v>      -0.44444444       0.20000000       0.20000000 </v>
   <v>      -0.38888889       0.20000000       0.20000000 </v>
   <v>      -0.33333333       0.20000000       0.20000000 </v>
   <v>      -0.27777778       0.20000000       0.20000000 </v>
   <v>      -0.22222222       0.20000000       0.20000000 </v>
   <v>      -0.16666667       0.20000000       0.20000000 </v>
   <v>      -0.11111111       0.20000000       0.20000000 </v>
   <v>      -0.05555556       0.20000000       0.20000000 </v>
   <v>       0.00000000       0.40000000       0.20000000 </v>
   <v>       0.05555556       0.40000000       0.20000000 </v>
   <v>       0.11111111       0.40000000       0.20000000 </v>
   <v>       0.16666667       0.40000000       0.20000000 </v>
   <v>       0.22222222       0.40000000       0.20000000 </v>
   <v>       0.27777778       0.40000000       0.20000000 </v>
   <v>       0.33333333       0.40000000       0.20000000 </v>
   <v>       0.38888889       0.40000000       0.20000000 </v>
   <v>       0.44444444       0.40000000       0.20000000 </v>
   <v>       0.50000000       0.40000000       0.20000000 </v>
   <v>      -0.44444444       0.40000000       0.20000000 </v>
   <v>      -0.38888889       0.40000000       0.20000000 </v>
   <v>      -0.33333333       0.40000000       0.20000000 </v>
   <v>      -0.27777778       0.40000000       0.20000000 </v>
   <v>      -0.22222222       0.40000000       0.20000000 </v>
   <v>      -0.16666667       0.40000000       0.20000000 </v>
   <v>      -0.11111111       0.40000000       0.20000000 </v>
   <v>      -0.05555556       0.40000000       0.20000000 </v>
   <v>       0.00000000      -0.40000000       0.20000000 </v>
   <v>       0.05555556      -0.40000000       0.20000000 </v>
   <v>       0.11111111      -0.40000000       0.20000000 </v>
   <v>       0.16666667      -0.40000000       0.20000000 </v>
   <v>       0.22222222      -0.40000000       0.20000000 </v>
   <v>       0.27777778      -0.40000000       0.20000000 </v>
   <v>       0.33333333      -0.40000000       0.20000000 </v>
   <v>       0.38888889      -0.40000000       0.20000000 </v>
   <v>       0.44444444      -0.40000000       0.20000000 </v>
   <v>       0.50000000      -0.40000000       0.20000000 </v>
   <v>      -0.44444444      -0.40000000       0.20000000 </v>
   <v>      -0.38888889      -0.40000000       0.20000000 </v>
   <v>      -0.33333333      -0.40000000       0.20000000 </v>
   <v>      -0.27777778      -0.40000000       0.20000000 </v>
   <v>      -0.22222222      -0.40000000       0.20000000 </v>
   <v>      -0.16666667      -0.40000000       0.20000000 </v>
   <v>      -0.11111111      -0.40000000       0.20000000 </v>
   <v>      -0.05555556      -0.40000000       0.20000000 </v>
   <v>       0.00000000      -0.20000000       0.20000000 </v>
   <v>       0.05555556      -0.20000000       0.20000000 </v>
   <v>       0.11111111      -0.20000000       0.20000000 </v>
   <v>       0.16666667      -0.20000000       0.20000000 </v>
   <v>       0.22222222      -0.20000000       0.20000000 </v>
   <v>       0.27777778      -0.20000000       0.20000000 </v>
   <v>       0.33333333      -0.20000000       0.20000000 </v>
   <v>       0.38888889      -0.20000000       0.20000000 </v>
   <v>       0.44444444      -0.20000000       0.20000000 </v>
   <v>       0.50000000      -0.20000000       0.20000000 </v>
   <v>      -0.44444444      -0.20000000       0.20000000 </v>
   <v>      -0.38888889      -0.20000000       0.20000000 </v>
   <v>      -0.33333333      -0.20000000       0.20000000 </v>
   <v>      -0.27777778      -0.20000000       0.20000000 </v>
   <v>      -0.22222222      -0.20000000       0.20000000 </v>
   <v>      -0.16666667      -0.20000000       0.20000000 </v>
   <v>      -0.11111111      -0.20000000       0.20000000 </v>
   <v>      -0.05555556      -0.20000000       0.20000000 </v>
   <v>       0.00000000      -0.00000000       0.40000000 </v>
   <v>       0.05555556       0.00000000       0.40000000 </v>
   <v>       0.11111111      -0.00000000       0.40000000 </v>
   <v>       0.16666667       0.00000000       0.40000000 </v>
   <v>       0.22222222       0.00000000       0.40000000 </v>
   <v>       0.27777778       0.00000000       0.40000000 </v>
   <v>       0.33333333       0.00000000       0.40000000 </v>
   <v>       0.38888889      -0.00000000       0.40000000 </v>
   <v>       0.44444444       0.00000000       0.40000000 </v>
   <v>       0.50000000       0.00000000       0.40000000 </v>
   <v>      -0.44444444       0.00000000       0.40000000 </v>
   <v>      -0.38888889       0.00000000       0.40000000 </v>
   <v>      -0.33333333      -0.00000000       0.40000000 </v>
   <v>      -0.27777778      -0.00000000       0.40000000 </v>
   <v>      -0.22222222       0.00000000       0.40000000 </v>
   <v>      -0.16666667       0.00000000       0.40000000 </v>
   <v>      -0.11111111       0.00000000       0.40000000 </v>
   <v>      -0.05555556      -0.00000000       0.40000000 </v>
   <v>       0.00000000       0.20000000       0.40000000 </v>
   <v>       0.05555556       0.20000000       0.40000000 </v>
   <v>       0.11111111       0.20000000       0.40000000 </v>
   <v>       0.16666667       0.20000000       0.40000000 </v>
   <v>       0.22222222       0.20000000       0.40000000 </v>
   <v>       0.27777778       0.20000000       0.40000000 </v>
   <v>       0.33333333       0.20000000       0.40000000 </v>
   <v>       0.38888889       0.20000000       0.40000000 </v>
   <v>       0.44444444       0.20000000       0.40000000 </v>
   <v>       0.50000000       0.20000000       0.40000000 </v>
   <v>      -0.44444444       0.20000000       0.40000000 </v>
   <v>      -0.38888889       0.20000000       0.40000000 </v>
   <v>      -0.33333333       0.20000000       0.40000000 </v>
   <v>      -0.27777778       0.20000000       0.40000000 </v>
   <v>      -0.22222222       0.20000000       0.40000000 </v>
   <v>      -0.16666667       0.20000000       0.40000000 </v>
   <v>      -0.11111111       0.20000000       0.40000000 </v>
   <v>      -0.05555556       0.20000000       0.40000000 </v>
   <v>       0.00000000       0.40000000       0.40000000 </v>
   <v>       0.05555556       0.40000000       0.40000000 </v>
   <v>       0.11111111       0.40000000       0.40000000 </v>
   <v>       0.16666667       0.40000000       0.40000000 </v>
   <v>       0.22222222       0.40000000       0.40000000 </v>
   <v>       0.27777778       0.40000000       0.40000000 </v>
   <v>       0.33333333       0.40000000       0.40000000 </v>
   <v>       0.38888889       0.40000000       0.40000000 </v>
   <v>       0.44444444       0.40000000       0.40000000 </v>
   <v>       0.50000000       0.40000000       0.40000000 </v>
   <v>      -0.44444444       0.40000000       0.40000000 </v>
   <v>      -0.38888889       0.40000000       0.40000000 </v>
   <v>      -0.33333333       0.40000000       0.40000000 </v>
   <v>      -0.27777778       0.40000000       0.40000000 </v>
   <v>      -0.22222222       0.40000000       0.40000000 </v>
   <v>      -0.16666667       0.40000000       0.40000000 </v>
   <v>      -0.11111111       0.40000000       0.40000000 </v>
   <v>      -0.05555556       0.40000000       0.40000000 </v>
   <v>       0.00000000      -0.40000000       0.40000000 </v>
   <v>       0.05555556      -0.40000000       0.40000000 </v>
   <v>       0.11111111      -0.40000000       0.40000000 </v>
   <v>       0.16666667      -0.40000000       0.40000000 </v>
   <v>       0.22222222      -0.40000000       0.40000000 </v>
   <v>       0.27777778      -0.40000000       0.40000000 </v>
   <v>       0.33333333      -0.40000000       0.40000000 </v>
   <v>       0.38888889      -0.40000000       0.40000000 </v>
   <v>       0.44444444      -0.40000000       0.40000000 </v>
   <v>       0.50000000      -0.40000000       0.40000000 </v>
   <v>      -0.44444444      -0.40000000       0.40000000 </v>
   <v>      -0.38888889      -0.40000000       0.40000000 </v>
   <v>      -0.33333333      -0.40000000       0.40000000 </v>
   <v>      -0.27777778      -0.40000000       0.40000000 </v>
   <v>      -0.22222222      -0.40000000       0.40000000 </v>
   <v>      -0.16666667      -0.40000000       0.40000000 </v>
   <v>      -0.11111111      -0.40000000       0.40000000 </v>
   <v>      -0.05555556      -0.40000000       0.40000000 </v>
   <v>       0.00000000      -0.20000000       0.40000000 </v>
   <v>       0.05555556      -0.20000000       0.40000000 </v>
   <v>       0.11111111      -0.20000000       0.40000000 </v>
   <v>       0.16666667      -0.20000000       0.40000000 </v>
   <v>       0.22222222      -0.20000000       0.40000000 </v>
   <v>       0.27777778      -0.20000000       0.40000000 </v>
   <v>       0.33333333      -0.20000000       0.40000000 </v>
   <v>       0.38888889      -0.20000000       0.40000000 </v>
   <v>       0.44444444      -0.20000000       0.40000000 </v>
   <v>       0.50000000      -0.20000000       0.40000000 </v>
   <v>      -0.44444444      -0.20000000       0.40000000 </v>
   <v>      -0.38888889      -0.20000000       0.40000000 </v>
   <v>      -0.33333333      -0.20000000       0.40000000 </v>
   <v>      -0.27777778      -0.20000000       0.40000000 </v>
   <v>      -0.22222222      -0.20000000       0.40000000 </v>
   <v>      -0.16666667      -0.20000000       0.40000000 </v>
   <v>      -0.11111111      -0.20000000       0.40000000 </v>
   <v>      -0.05555556      -0.20000000       0.40000000 </v>
  </varray>
  <varray name="weights" >
   <v>       0.00222222 </v>
   <v>       0.00444444 </v>
   <v>       0.00444444 </v>
   <v>       0.00444444 </v>
   <v>       0.00444444 </v>
   <v>       0.00444444 </v>
   <v>       0.00444444 </v>
   <v>       0.00444444 </v>
   <v>       0.00444444 </v>
   <v>       0.00222222 </v>
   <v>       0.00444444 </v>
   <v>       0.00444444 </v>
   <v>       0.00444444 </v>
   <v>       0.00444444 </v>
   <v>       0.00444444 </v>
   <v>       0.00444444 </v>
   <v>       0.00444444 </v>
   <v>       0.00444444 </v>
   <v>       0.00444444 </v>
   <v>       0.00444444 </v>
   <v>       0.00444444 </v>
   <v>       0.00444444 </v>
   <v>       0.00444444 </v>
   <v>       0.00444444 </v>
   <v>       0.00444444 </v>
   <v>       0.00444444 </v>
   <v>       0.00444444 </v>
   <v>       0.00444444 </v>
   <v>       0.00444444 </v>
   <v>       0.00444444 </v>
   <v>       0.00444444 </v>
   <v>       0.00444444 </v>
   <v>       0.00444444 </v>
   <v>       0.00444444 </v>
   <v>       0.00444444 </v>
   <v>       0.00444444 </v>
   <v>       0.00444444 </v>
   <v>       0.00444444 </v>
   <v>       0.00444444 </v>
   <v>       0.00444444 </v>
   <v>       0.00444444 </v>
   <v>       0.00444444 </v>
   <v>       0.00444444 </v>
   <v>       0.00444444 </v>
   <v>       0.00444444 </v>
   <v>       0.00444444 </v>
   <v>       0.00444444 </v>
   <v>       0.00444444 </v>
   <v>       0.00444444 </v>
   <v>       0.00444444 </v>
   <v>       0.00444444 </v>
   <v>       0.00444444 </v>
   <v>       0.00444444 </v>
   <v>       0.00444444 </v>
   <v>       0.00444444 </v>
   <v>       0.00444444 </v>
   <v>       0.00444444 </v>
   <v>       0.00444444 </v>
   <v>       0.00444444 </v>
   <v>       0.00444444 </v>
   <v>       0.00444444 </v>
   <v>       0.00444444 </v>
   <v>       0.00444444 </v>
   <v>       0.00444444 </v>
   <v>       0.00444444 </v>
   <v>       0.00444444 </v>
   <v>       0.00444444 </v>
   <v>       0.00444444 </v>
   <v>       0.00444444 </v>
   <v>       0.00444444 </v>
   <v>       0.00444444 </v>
   <v>       0.00444444 </v>
   <v>       0.00444444 </v>
   <v>       0.00444444 </v>
   <v>       0.00444444 </v>
   <v>       0.00444444 </v>
   <v>       0.00444444 </v>
   <v>       0.00444444 </v>
   <v>       0.00444444 </v>
   <v>       0.00444444 </v>
   <v>       0.00444444 </v>
   <v>       0.00444444 </v>
   <v>       0.00444444 </v>
   <v>       0.00444444 </v>
   <v>       0.00444444 </v>
   <v>       0.00444444 </v>
   <v>       0.00444444 </v>
   <v>       0.00444444 </v>
   <v>       0.00444444 </v>
   <v>       0.00444444 </v>
   <v>       0.00444444 </v>
   <v>       0.00444444 </v>
   <v>       0.00444444 </v>
   <v>       0.00444444 </v>
   <v>       0.00444444 </v>
   <v>       0.00444444 </v>
   <v>       0.00444444 </v>
   <v>       0.00444444 </v>
   <v>       0.00444444 </v>
   <v>       0.00444444 </v>
   <v>       0.00444444 </v>
   <v>       0.00444444 </v>
   <v>       0.00444444 </v>
   <v>       0.00444444 </v>
   <v>       0.00444444 </v>
   <v>       0.00444444 </v>
   <v>       0.00444444 </v>
   <v>       0.00444444 </v>
   <v>       0.00444444 </v>
   <v>       0.00444444 </v>
   <v>       0.00444444 </v>
   <v>       0.00444444 </v>
   <v>       0.00444444 </v>
   <v>       0.00444444 </v>
   <v>       0.00444444 </v>
   <v>       0.00444444 </v>
   <v>       0.00444444 </v>
   <v>       0.00444444 </v>
   <v>       0.00444444 </v>
   <v>       0.00444444 </v>
   <v>       0.00444444 </v>
   <v>       0.00444444 </v>
   <v>       0.00444444 </v>
   <v>       0.00444444 </v>
   <v>       0.00444444 </v>
   <v>       0.00444444 </v>
   <v>       0.00444444 </v>
   <v>       0.00444444 </v>
   <v>       0.00444444 </v>
   <v>       0.00444444 </v>
   <v>       0.00444444 </v>
   <v>       0.00444444 </v>
   <v>       0.00444444 </v>
   <v>       0.00444444 </v>
   <v>       0.00444444 </v>
   <v>       0.00444444 </v>
   <v>       0.00444444 </v>
   <v>       0.00444444 </v>
   <v>       0.00444444 </v>
   <v>       0.00444444 </v>
   <v>       0.00444444 </v>
   <v>       0.00444444 </v>
   <v>       0.00444444 </v>
   <v>       0.00444444 </v>
   <v>       0.00444444 </v>
   <v>       0.00444444 </v>
   <v>       0.00444444 </v>
   <v>       0.00444444 </v>
   <v>       0.00444444 </v>
   <v>       0.00444444 </v>
   <v>       0.00444444 </v>
   <v>       0.00444444 </v>
   <v>       0.00444444 </v>
   <v>       0.00444444 </v>
   <v>       0.00444444 </v>
   <v>       0.00444444 </v>
   <v>       0.00444444 </v>
   <v>       0.00444444 </v>
   <v>       0.00444444 </v>
   <v>       0.00444444 </v>
   <v>       0.00444444 </v>
   <v>       0.00444444 </v>
   <v>       0.00444444 </v>
   <v>       0.00444444 </v>
   <v>       0.00444444 </v>
   <v>       0.00444444 </v>
   <v>       0.00444444 </v>
   <v>       0.00444444 </v>
   <v>       0.00444444 </v>
   <v>       0.00444444 </v>
   <v>       0.00444444 </v>
   <v>       0.00444444 </v>
   <v>       0.00444444 </v>
   <v>       0.00444444 </v>
   <v>       0.00444444 </v>
   <v>       0.00444444 </v>
   <v>       0.00444444 </v>
   <v>       0.00444444 </v>
   <v>       0.00444444 </v>
   <v>       0.00444444 </v>
   <v>       0.00444444 </v>
   <v>       0.00444444 </v>
   <v>       0.00444444 </v>
   <v>       0.00444444 </v>
   <v>       0.00444444 </v>
   <v>       0.00444444 </v>
   <v>       0.00444444 </v>
   <v>       0.00444444 </v>
   <v>       0.00444444 </v>
   <v>       0.00444444 </v>
   <v>       0.00444444 </v>
   <v>       0.00444444 </v>
   <v>       0.00444444 </v>
   <v>       0.00444444 </v>
   <v>       0.00444444 </v>
   <v>       0.00444444 </v>
   <v>       0.00444444 </v>
   <v>       0.00444444 </v>
   <v>       0.00444444 </v>
   <v>       0.00444444 </v>
   <v>       0.00444444 </v>
   <v>       0.00444444 </v>
   <v>       0.00444444 </v>
   <v>       0.00444444 </v>
   <v>       0.00444444 </v>
   <v>       0.00444444 </v>
   <v>       0.00444444 </v>
   <v>       0.00444444 </v>
   <v>       0.00444444 </v>
   <v>       0.00444444 </v>
   <v>       0.00444444 </v>
   <v>       0.00444444 </v>
   <v>       0.00444444 </v>
   <v>       0.00444444 </v>
   <v>       0.00444444 </v>
   <v>       0.00444444 </v>
   <v>       0.00444444 </v>
   <v>       0.00444444 </v>
   <v>       0.00444444 </v>
   <v>       0.00444444 </v>
   <v>       0.00444444 </v>
   <v>       0.00444444 </v>
   <v>       0.00444444 </v>
   <v>       0.00444444 </v>
   <v>       0.00444444 </v>
   <v>       0.00444444 </v>
  </varray>
 </kpoints>
 <parameters>
  <separator name="general" >
   <i type="string" name="SYSTEM">Ir_Ru</i>
   <i type="logical" name="LCOMPAT"> F  </i>
  </separator>
  <separator name="electronic" >
   <i type="string" name="PREC">accura</i>
   <i name="ENMAX">    213.27600000</i>
   <i name="ENAUG">    333.49400000</i>
   <i name="EDIFF">      0.00010000</i>
   <i type="int" name="IALGO">    68</i>
   <i type="int" name="IWAVPR">    10</i>
   <i type="int" name="NBANDS">   100</i>
   <i name="NELECT">    160.00000000</i>
   <i type="int" name="TURBO">     0</i>
   <i type="int" name="IRESTART">     0</i>
   <i type="int" name="NREBOOT">     0</i>
   <i type="int" name="NMIN">     0</i>
   <i name="EREF">      0.00000000</i>
   <separator name="electronic smearing" >
    <i type="int" name="ISMEAR">     1</i>
    <i name="SIGMA">      0.10000000</i>
    <i name="KSPACING">      0.50000000</i>
    <i type="logical" name="KGAMMA"> T  </i>
   </separator>
   <separator name="electronic projectors" >
    <i type="logical" name="LREAL"> T  </i>
    <v name="ROPT">     -0.00025000</v>
    <i type="int" name="LMAXPAW">  -100</i>
    <i type="int" name="LMAXMIX">     2</i>
    <i type="logical" name="NLSPLINE"> F  </i>
   </separator>
   <separator name="electronic startup" >
    <i type="int" name="ISTART">     0</i>
    <i type="int" name="ICHARG">     2</i>
    <i type="int" name="INIWAV">     1</i>
   </separator>
   <separator name="electronic spin" >
    <i type="int" name="ISPIN">     1</i>
    <i type="logical" name="LNONCOLLINEAR"> F  </i>
    <v name="MAGMOM">      1.00000000      1.00000000      1.00000000      1.00000000      1.00000000      1.00000000      1.00000000      1.00000000      1.00000000      1.00000000      1.00000000      1.00000000      1.00000000      1.00000000      1.00000000      1.00000000      1.00000000      1.00000000      1.00000000      1.00000000
</v>
    <i name="NUPDOWN">     -1.00000000</i>
    <i type="logical" name="LSORBIT"> F  </i>
    <v name="SAXIS">      0.00000000      0.00000000      1.00000000</v>
    <i type="logical" name="LSPIRAL"> F  </i>
    <v name="QSPIRAL">      0.00000000      0.00000000      0.00000000</v>
    <i type="logical" name="LZEROZ"> F  </i>
   </separator>
   <separator name="electronic exchange-correlation" >
    <i type="logical" name="LASPH"> F  </i>
    <i type="logical" name="LMETAGGA"> F  </i>
   </separator>
   <separator name="electronic convergence" >
    <i type="int" name="NELM">    60</i>
    <i type="int" name="NELMDL">    -5</i>
    <i type="int" name="NELMIN">     5</i>
    <i name="ENINI">    213.27600000</i>
    <separator name="electronic convergence detail" >
     <i type="logical" name="LDIAG"> T  </i>
     <i type="logical" name="LSUBROT"> F  </i>
     <i name="WEIMIN">      0.00000000</i>
     <i name="EBREAK">      0.00000000</i>
     <i name="DEPER">      0.30000000</i>
     <i type="int" name="NRMM">     4</i>
     <i name="TIME">      0.40000000</i>
    </separator>
   </separator>
   <separator name="electronic mixer" >
    <i name="AMIX">      0.40000000</i>
    <i name="BMIX">      1.00000000</i>
    <i name="AMIN">      0.10000000</i>
    <i name="AMIX_MAG">      1.60000000</i>
    <i name="BMIX_MAG">      1.00000000</i>
    <separator name="electronic mixer details" >
     <i type="int" name="IMIX">     4</i>
     <i type="logical" name="MIXFIRST"> F  </i>
     <i type="int" name="MAXMIX">   -45</i>
     <i name="WC">    100.00000000</i>
     <i type="int" name="INIMIX">     1</i>
     <i type="int" name="MIXPRE">     1</i>
     <i type="int" name="MREMOVE">     5</i>
    </separator>
   </separator>
   <separator name="electronic dipolcorrection" >
    <i type="logical" name="LDIPOL"> F  </i>
    <i type="logical" name="LMONO"> F  </i>
    <i type="int" name="IDIPOL">     0</i>
    <i name="EPSILON">      1.00000000</i>
    <v name="DIPOL">   -100.00000000   -100.00000000   -100.00000000</v>
    <i name="EFIELD">      0.00000000</i>
   </separator>
  </separator>
  <separator name="grids" >
   <i type="int" name="NGX">    14</i>
   <i type="int" name="NGY">    48</i>
   <i type="int" name="NGZ">    54</i>
   <i type="int" name="NGXF">    28</i>
   <i type="int" name="NGYF">    96</i>
   <i type="int" name="NGZF">   108</i>
   <i type="logical" name="ADDGRID"> F  </i>
  </separator>
  <separator name="ionic" >
   <i type="int" name="NSW">     0</i>
   <i type="int" name="IBRION">    -1</i>
   <i type="int" name="ISIF">     2</i>
   <i name="PSTRESS">      0.00000000</i>
   <i name="EDIFFG">      0.00001000</i>
   <i type="int" name="NFREE">     0</i>
   <i name="POTIM">      0.50000000</i>
   <i name="SMASS">     -3.00000000</i>
   <i name="SCALEE">      1.00000000</i>
  </separator>
  <separator name="ionic md" >
   <i name="TEBEG">      0.00010000</i>
   <i name="TEEND">      0.00010000</i>
   <i type="int" name="NBLOCK">     1</i>
   <i type="int" name="KBLOCK">     1</i>
   <i type="int" name="NPACO">   256</i>
   <i name="APACO">     16.00000000</i>
  </separator>
  <separator name="symmetry" >
   <i type="int" name="ISYM">     2</i>
   <i name="SYMPREC">      0.00001000</i>
  </separator>
  <separator name="dos" >
   <i type="logical" name="LORBIT"> F  </i>
   <v name="RWIGS">     -1.00000000</v>
   <i type="int" name="NEDOS">   301</i>
   <i name="EMIN">     10.00000000</i>
   <i name="EMAX">    -10.00000000</i>
   <i name="EFERMI">      0.00000000</i>
  </separator>
  <separator name="writing" >
   <i type="int" name="NWRITE">     2</i>
   <i type="logical" name="LWAVE"> T  </i>
   <i type="logical" name="LCHARG"> T  </i>
   <i type="logical" name="LPARD"> F  </i>
   <i type="logical" name="LVTOT"> F  </i>
   <i type="logical" name="LVHAR"> F  </i>
   <i type="logical" name="LELF"> F  </i>
   <i type="logical" name="LOPTICS"> F  </i>
   <v name="STM">      0.00000000      0.00000000      0.00000000      0.00000000      0.00000000      0.00000000      0.00000000</v>
  </separator>
  <separator name="performance" >
   <i type="int" name="NPAR">    20</i>
   <i type="int" name="NSIM">     4</i>
   <i type="int" name="NBLK">    -1</i>
   <i type="logical" name="LPLANE"> T  </i>
   <i type="logical" name="LSCALAPACK"> T  </i>
   <i type="logical" name="LSCAAWARE"> F  </i>
   <i type="logical" name="LSCALU"> F  </i>
   <i type="logical" name="LASYNC"> F  </i>
   <i type="logical" name="LORBITALREAL"> F  </i>
  </separator>
  <separator name="miscellaneous" >
   <i type="int" name="IDIOT">     3</i>
   <i type="logical" name="LMUSIC"> F  </i>
   <v name="POMASS">    101.07000000</v>
   <v name="DARWINR">      0.00000000</v>
   <v name="DARWINV">      1.00000000</v>
   <i type="logical" name="LCORR"> T  </i>
  </separator>
  <i type="logical" name="GGA_COMPAT"> T  </i>
  <i type="logical" name="LBERRY"> F  </i>
  <i type="int" name="ICORELEVEL">     0</i>
  <i type="logical" name="LDAU"> F  </i>
  <i type="int" name="I_CONSTRAINED_M">     0</i>
  <separator name="electronic exchange-correlation" >
   <i type="string" name="GGA">--</i>
   <i type="int" name="VOSKOWN">     0</i>
   <i type="logical" name="LHFCALC"> F  </i>
   <i type="string" name="PRECFOCK"></i>
   <i type="logical" name="LSYMGRAD"> F  </i>
   <i type="logical" name="LHFONE"> F  </i>
   <i type="logical" name="LRHFCALC"> F  </i>
   <i type="logical" name="LTHOMAS"> F  </i>
   <i type="logical" name="LMODELHF"> F  </i>
   <i name="ENCUT4O">     -1.00000000</i>
   <i type="int" name="EXXOEP">     0</i>
   <i type="int" name="FOURORBIT">     0</i>
   <i name="AEXX">      0.00000000</i>
   <i name="HFALPHA">      0.00000000</i>
   <i name="MCALPHA">      0.00000000</i>
   <i name="ALDAX">      1.00000000</i>
   <i name="AGGAX">      1.00000000</i>
   <i name="ALDAC">      1.00000000</i>
   <i name="AGGAC">      1.00000000</i>
   <i type="int" name="NKREDX">     1</i>
   <i type="int" name="NKREDY">     1</i>
   <i type="int" name="NKREDZ">     1</i>
   <i type="logical" name="SHIFTRED"> F  </i>
   <i type="logical" name="ODDONLY"> F  </i>
   <i type="logical" name="EVENONLY"> F  </i>
   <i type="int" name="LMAXFOCK">     0</i>
   <i type="int" name="NMAXFOCKAE">     0</i>
   <i type="logical" name="LFOCKAEDFT"> F  </i>
   <i name="HFSCREEN">      0.00000000</i>
   <i name="HFSCREENC">      0.00000000</i>
   <i type="int" name="NBANDSGWLOW">     0</i>
  </separator>
  <separator name="vdW DFT" >
   <i type="logical" name="LUSE_VDW"> F  </i>
   <i name="Zab_VDW">     -0.84910000</i>
   <i name="PARAM1">      0.12340000</i>
   <i name="PARAM2">      1.00000000</i>
   <i name="PARAM3">      0.00000000</i>
  </separator>
  <separator name="model GW" >
   <i type="int" name="MODEL_GW">     0</i>
   <i name="MODEL_EPS0">      8.29743930</i>
   <i name="MODEL_ALPHA">      1.00000000</i>
  </separator>
  <separator name="linear response parameters" >
   <i type="logical" name="LEPSILON"> F  </i>
   <i type="logical" name="LRPA"> F  </i>
   <i type="logical" name="LNABLA"> F  </i>
   <i type="logical" name="LVEL"> F  </i>
   <i type="int" name="KINTER">     0</i>
   <i name="CSHIFT">      0.10000000</i>
   <i name="OMEGAMAX">     -1.00000000</i>
   <i name="DEG_THRESHOLD">      0.00200000</i>
  </separator>
  <separator name="orbital magnetization" >
   <i type="logical" name="NUCIND"> F  </i>
   <v name="MAGPOS">      0.00000000      0.00000000      0.00000000</v>
   <i type="logical" name="LNICSALL"> T  </i>
   <i type="logical" name="ORBITALMAG"> F  </i>
   <i type="logical" name="LMAGBLOCH"> F  </i>
   <i type="logical" name="LCHIMAG"> F  </i>
   <i type="logical" name="LGAUGE"> T  </i>
   <i type="int" name="MAGATOM">     0</i>
   <v name="MAGDIPOL">      0.00000000      0.00000000      0.00000000</v>
   <v name="AVECCONST">      0.00000000      0.00000000      0.00000000</v>
  </separator>
  <separator name="response functions" >
   <i type="logical" name="LADDER"> F  </i>
   <i type="logical" name="LFXC"> F  </i>
   <i type="logical" name="LHARTREE"> T  </i>
   <i type="int" name="IBSE">     0</i>
   <v type="int" name="KPOINT">    -1     0     0     0</v>
   <i type="logical" name="LTCTE"> F  </i>
   <i type="logical" name="LTETE"> F  </i>
   <i type="logical" name="LTRIPLET"> F  </i>
   <i type="logical" name="LFXCEPS"> F  </i>
   <i type="logical" name="LFXHEG"> F  </i>
   <i type="int" name="NATURALO">     0</i>
   <i type="logical" name="L2ORDER"> F  </i>
   <i type="logical" name="LUSEW"> F  </i>
   <i name="ENCUTGW">     -2.00000000</i>
   <i name="ENCUTGWSOFT">     -2.00000000</i>
   <i name="ENCUTLF">     -1.00000000</i>
   <i type="int" name="LMAXMP2">    -1</i>
   <i name="SCISSOR">      0.00000000</i>
   <i type="int" name="NOMEGA">     0</i>
   <i type="int" name="NOMEGAR">     0</i>
   <i type="int" name="NBANDSGW">    -1</i>
   <i type="int" name="NBANDSO">    -1</i>
   <i type="int" name="NBANDSV">    -1</i>
   <i type="int" name="NELM">     1</i>
   <i type="int" name="NELMHF">     1</i>
   <i type="int" name="DIM">     3</i>
   <i type="int" name="ANTIRES">     0</i>
   <i name="OMEGAMAX">    -30.00000000</i>
   <i name="OMEGAMIN">    -30.00000000</i>
   <i name="OMEGATL">   -200.00000000</i>
   <i type="int" name="OMEGAGRID">     0</i>
   <i name="CSHIFT">     -0.10000000</i>
   <i type="logical" name="SELFENERGY"> F  </i>
   <i type="logical" name="LSPECTRAL"> F  </i>
   <i type="logical" name="LSPECTRALGW"> F  </i>
   <i type="logical" name="LSINGLES"> F  </i>
   <i type="logical" name="LFERMIGW"> F  </i>
   <i type="logical" name="ODDONLYGW"> F  </i>
   <i type="logical" name="EVENONLYGW"> F  </i>
   <i type="int" name="NKREDLFX">     1</i>
   <i type="int" name="NKREDLFY">     1</i>
   <i type="int" name="NKREDLFZ">     1</i>
   <i type="int" name="MAXMEM">  1800</i>
   <i type="int" name="TELESCOPE">     0</i>
   <i type="int" name="TAUPAR">     1</i>
   <i type="int" name="OMEGAPAR">    -1</i>
   <i name="LAMBDA">      1.00000000</i>
  </separator>
  <separator name="External order field" >
   <i name="OFIELD_KAPPA">      0.00000000</i>
   <v name="OFIELD_K">      0.00000000      0.00000000      0.00000000</v>
   <i name="OFIELD_Q6_NEAR">      0.00000000</i>
   <i name="OFIELD_Q6_FAR">      0.00000000</i>
   <i name="OFIELD_A">      0.00000000</i>
  </separator>
 </parameters>
 <atominfo>
  <atoms>      20 </atoms>
  <types>       1 </types>
  <array name="atoms" >
   <dimension dim="1">ion</dimension>
   <field type="string">element</field>
   <field type="int">atomtype</field>
   <set>
    <rc><c>Ru</c><c>   1</c></rc>
    <rc><c>Ru</c><c>   1</c></rc>
    <rc><c>Ru</c><c>   1</c></rc>
    <rc><c>Ru</c><c>   1</c></rc>
    <rc><c>Ru</c><c>   1</c></rc>
    <rc><c>Ru</c><c>   1</c></rc>
    <rc><c>Ru</c><c>   1</c></rc>
    <rc><c>Ru</c><c>   1</c></rc>
    <rc><c>Ru</c><c>   1</c></rc>
    <rc><c>Ru</c><c>   1</c></rc>
    <rc><c>Ru</c><c>   1</c></rc>
    <rc><c>Ru</c><c>   1</c></rc>
    <rc><c>Ru</c><c>   1</c></rc>
    <rc><c>Ru</c><c>   1</c></rc>
    <rc><c>Ru</c><c>   1</c></rc>
    <rc><c>Ru</c><c>   1</c></rc>
    <rc><c>Ru</c><c>   1</c></rc>
    <rc><c>Ru</c><c>   1</c></rc>
    <rc><c>Ru</c><c>   1</c></rc>
    <rc><c>Ru</c><c>   1</c></rc>
   </set>
  </array>
  <array name="atomtypes" >
   <dimension dim="1">type</dimension>
   <field type="int">atomspertype</field>
   <field type="string">element</field>
   <field>mass</field>
   <field>valence</field>
   <field type="string">pseudopotential</field>
   <set>
    <rc><c>  20</c><c>Ru</c><c>    101.07000000</c><c>      8.00000000</c><c> PAW_PBE Ru 06Sep2000                   </c></rc>
   </set>
  </array>
 </atominfo>
 <structure name="initialpos" >
  <crystal>
   <varray name="basis" >
    <v>       0.00256000       1.90108000      -1.90847000 </v>
    <v>       9.53465000       0.00804000      -1.87989000 </v>
    <v>       0.02936000      -7.63100000      -7.60584000 </v>
   </varray>
   <i name="volume">    276.58131014 </i>
   <varray name="rec_basis" >
    <v>      -0.05208809       0.26199828      -0.26306604 </v>
    <v>       0.10493422       0.00013219       0.00027244 </v>
    <v>      -0.01286594      -0.06577372      -0.06553629 </v>
   </varray>
  </crystal>
  <varray name="positions" >
   <v>       0.84496600       0.38558800       0.21142400 </v>
   <v>       0.80131200       0.39952600       0.95064300 </v>
   <v>       0.80131200       0.39952600       0.70064300 </v>
   <v>       0.80131200       0.39952600       0.45064300 </v>
   <v>       0.20131200       0.59952600       0.30064300 </v>
   <v>       0.20151200       0.59952600       0.05059300 </v>
   <v>       0.20132000       0.59952000       0.80064500 </v>
   <v>       0.14892600       0.59935800       0.56379900 </v>
   <v>       0.55643200       0.81763600       0.40743050 </v>
   <v>       0.61672400       0.77854200       0.15194100 </v>
   <v>       0.60031400       0.80154200       0.90039600 </v>
   <v>       0.61610600       0.79953800       0.64690650 </v>
   <v>       0.99817000       0.00547000       0.24996250 </v>
   <v>       0.00634800       0.99953400       0.99937950 </v>
   <v>       0.00031400       0.00154200       0.75039600 </v>
   <v>       0.01610600       0.99953800       0.49690650 </v>
   <v>       0.39841400       0.20547200       0.34990100 </v>
   <v>       0.41121600       0.19953800       0.09815650 </v>
   <v>       0.39892600       0.20345800       0.84530150 </v>
   <v>       0.41108400       0.19954200       0.59818850 </v>
  </varray>
 </structure>
 <calculation>
  <scstep>
   <time name="dav">   39.23   40.03</time>
   <time name="total">   39.26   40.06</time>
   <energy>
    <i name="alphaZ">   1223.93508015 </i>
    <i name="ewald"> -11060.72546886 </i>
    <i name="hartreedc">   -805.39604782 </i>
    <i name="XCdc">   -643.64436539 </i>
    <i name="pawpsdc">   7633.44912854 </i>
    <i name="pawaedc">  -6648.37709789 </i>
    <i name="eentropy">      0.00015211 </i>
    <i name="bandstr">   1931.43730020 </i>
    <i name="atom">   9099.11557585 </i>
    <i name="e_fr_energy">    729.79425689 </i>
    <i name="e_wo_entrp">    729.79410477 </i>
    <i name="e_0_energy">    729.79420618 </i>
   </energy>
  </scstep>
  <scstep>
   <time name="dav">   39.25   39.95</time>
   <time name="total">   39.26   39.96</time>
   <energy>
    <i name="e_fr_energy">   -137.14463628 </i>
    <i name="e_wo_entrp">   -137.14454569 </i>
    <i name="e_0_energy">   -137.14460609 </i>
   </energy>
  </scstep>
  <scstep>
   <time name="dav">   54.53   55.39</time>
   <time name="total">   54.54   55.40</time>
   <energy>
    <i name="e_fr_energy">   -191.15490511 </i>
    <i name="e_wo_entrp">   -191.15601919 </i>
    <i name="e_0_energy">   -191.15527647 </i>
   </energy>
  </scstep>
  <scstep>
   <time name="dav">   48.66   49.30</time>
   <time name="total">   48.67   49.31</time>
   <energy>
    <i name="e_fr_energy">   -193.00764749 </i>
    <i name="e_wo_entrp">   -193.00841989 </i>
    <i name="e_0_energy">   -193.00790496 </i>
   </energy>
  </scstep>
  <scstep>
   <time name="dav">   48.47   49.38</time>
   <time name="total">   49.12   50.03</time>
   <energy>
    <i name="e_fr_energy">   -193.04324297 </i>
    <i name="e_wo_entrp">   -193.04397654 </i>
    <i name="e_0_energy">   -193.04348750 </i>
   </energy>
  </scstep>
  <scstep>
   <time name="diag">    3.64    3.65</time>
   <time name="diis">   15.04   15.16</time>
   <time name="orth">    0.46    0.46</time>
   <time name="total">   20.09   20.24</time>
   <energy>
    <i name="e_fr_energy">   -182.39243056 </i>
    <i name="e_wo_entrp">   -182.39105925 </i>
    <i name="e_0_energy">   -182.39197346 </i>
   </energy>
  </scstep>
  <scstep>
   <time name="diag">    3.64    3.64</time>
   <time name="diis">   19.57   19.71</time>
   <time name="orth">    0.49    0.58</time>
   <time name="total">   24.37   24.61</time>
   <energy>
    <i name="e_fr_energy">   -185.74105346 </i>
    <i name="e_wo_entrp">   -185.74154487 </i>
    <i name="e_0_energy">   -185.74121726 </i>
   </energy>
  </scstep>
  <scstep>
   <time name="diag">    3.64    3.65</time>
   <time name="diis">   16.62   16.96</time>
   <time name="orth">    0.46    0.46</time>
   <time name="total">   21.39   21.73</time>
   <energy>
    <i name="e_fr_energy">   -180.96415146 </i>
    <i name="e_wo_entrp">   -180.96276979 </i>
    <i name="e_0_energy">   -180.96369090 </i>
   </energy>
  </scstep>
  <scstep>
   <time name="diag">    3.64    3.65</time>
   <time name="diis">   20.94   21.14</time>
   <time name="orth">    0.46    0.46</time>
   <time name="total">   25.71   25.92</time>
   <energy>
    <i name="e_fr_energy">   -180.90664342 </i>
    <i name="e_wo_entrp">   -180.90553090 </i>
    <i name="e_0_energy">   -180.90627258 </i>
   </energy>
  </scstep>
  <scstep>
   <time name="diag">    3.64    3.65</time>
   <time name="diis">   19.63   19.88</time>
   <time name="orth">    0.46    0.46</time>
   <time name="total">   24.40   24.65</time>
   <energy>
    <i name="e_fr_energy">   -180.85160770 </i>
    <i name="e_wo_entrp">   -180.85064509 </i>
    <i name="e_0_energy">   -180.85128683 </i>
   </energy>
  </scstep>
  <scstep>
   <time name="diag">    4.04    4.13</time>
   <time name="diis">   18.47   18.81</time>
   <time name="orth">    0.46    0.46</time>
   <time name="total">   23.65   24.07</time>
   <energy>
    <i name="e_fr_energy">   -180.81026686 </i>
    <i name="e_wo_entrp">   -180.80929627 </i>
    <i name="e_0_energy">   -180.80994333 </i>
   </energy>
  </scstep>
  <scstep>
   <time name="diag">    3.64    3.65</time>
   <time name="diis">   20.25   20.50</time>
   <time name="orth">    0.46    0.46</time>
   <time name="total">   25.03   25.28</time>
   <energy>
    <i name="e_fr_energy">   -180.80302838 </i>
    <i name="e_wo_entrp">   -180.80231561 </i>
    <i name="e_0_energy">   -180.80279079 </i>
   </energy>
  </scstep>
  <scstep>
   <time name="diag">    4.06    4.17</time>
   <time name="diis">   19.86   20.03</time>
   <time name="orth">    0.46    0.46</time>
   <time name="total">   25.05   25.34</time>
   <energy>
    <i name="e_fr_energy">   -180.79589783 </i>
    <i name="e_wo_entrp">   -180.79499465 </i>
    <i name="e_0_energy">   -180.79559677 </i>
   </energy>
  </scstep>
  <scstep>
   <time name="diag">    4.05    4.14</time>
   <time name="diis">   20.61   20.85</time>
   <time name="orth">    0.46    0.46</time>
   <time name="total">   25.79   26.12</time>
   <energy>
    <i name="e_fr_energy">   -180.79568983 </i>
    <i name="e_wo_entrp">   -180.79481184 </i>
    <i name="e_0_energy">   -180.79539717 </i>
   </energy>
  </scstep>
  <scstep>
   <time name="diag">    3.63    3.64</time>
   <time name="diis">   20.28   20.62</time>
   <time name="orth">    0.46    0.46</time>
   <time name="total">   24.41   24.75</time>
   <energy>
    <i name="alphaZ">   1223.93508015 </i>
    <i name="ewald"> -11060.72546886 </i>
    <i name="hartreedc">   -627.32825294 </i>
    <i name="XCdc">   -644.47207540 </i>
    <i name="pawpsdc">   8793.80616221 </i>
    <i name="pawaedc">  -7855.62060747 </i>
    <i name="eentropy">     -0.00087111 </i>
    <i name="bandstr">    890.49477323 </i>
    <i name="atom">   9099.11557585 </i>
    <i name="e_fr_energy">   -180.79568435 </i>
    <i name="e_wo_entrp">   -180.79481324 </i>
    <i name="e_0_energy">   -180.79539398 </i>
   </energy>
  </scstep>
  <structure>
   <crystal>
    <varray name="basis" >
     <v>       0.00256000       1.90108000      -1.90847000 </v>
     <v>       9.53465000       0.00804000      -1.87989000 </v>
     <v>       0.02936000      -7.63100000      -7.60584000 </v>
    </varray>
    <i name="volume">    276.58131014 </i>
    <varray name="rec_basis" >
     <v>      -0.05208809       0.26199828      -0.26306604 </v>
     <v>       0.10493422       0.00013219       0.00027244 </v>
     <v>      -0.01286594      -0.06577372      -0.06553629 </v>
    </varray>
   </crystal>
   <varray name="positions" >
    <v>       0.84496600       0.38558800       0.21142400 </v>
    <v>       0.80131200       0.39952600       0.95064300 </v>
    <v>       0.80131200       0.39952600       0.70064300 </v>
    <v>       0.80131200       0.39952600       0.45064300 </v>
    <v>       0.20131200       0.59952600       0.30064300 </v>
    <v>       0.20151200       0.59952600       0.05059300 </v>
    <v>       0.20132000       0.59952000       0.80064500 </v>
    <v>       0.14892600       0.59935800       0.56379900 </v>
    <v>       0.55643200       0.81763600       0.40743050 </v>
    <v>       0.61672400       0.77854200       0.15194100 </v>
    <v>       0.60031400       0.80154200       0.90039600 </v>
    <v>       0.61610600       0.79953800       0.64690650 </v>
    <v>       0.99817000       0.00547000       0.24996250 </v>
    <v>       0.00634800       0.99953400       0.99937950 </v>
    <v>       0.00031400       0.00154200       0.75039600 </v>
    <v>       0.01610600       0.99953800       0.49690650 </v>
    <v>       0.39841400       0.20547200       0.34990100 </v>
    <v>       0.41121600       0.19953800       0.09815650 </v>
    <v>       0.39892600       0.20345800       0.84530150 </v>
    <v>       0.41108400       0.19954200       0.59818850 </v>
   </varray>
  </structure>
  <varray name="forces" >
   <v>       1.89932056       0.43739631       1.48588950 </v>
   <v>      -0.13189243       0.09094620      -0.04021183 </v>
   <v>      -0.07806844      -0.17279384       0.08119571 </v>
   <v>       0.16972827      -0.38084840      -0.40158981 </v>
   <v>      -0.30342755      -0.24911403      -0.36159217 </v>
   <v>      -0.36288684       0.17242185       0.09308633 </v>
   <v>       0.05971524      -0.25409645      -0.30962658 </v>
   <v>       0.10680207       1.97098362       0.65623706 </v>
   <v>      -2.12940018       1.91944199       0.57117841 </v>
   <v>       2.12685525      -0.28852738      -0.10640270 </v>
   <v>      -0.27297814      -0.10609418      -0.24255368 </v>
   <v>       0.42614330      -0.91499211      -0.24763458 </v>
   <v>      -0.67373553       0.03191018       0.25173772 </v>
   <v>      -0.04499161      -0.02801263      -0.06942100 </v>
   <v>      -0.04365902      -0.04334768       0.00446183 </v>
   <v>       0.67588048      -1.16488707      -0.46733414 </v>
   <v>      -1.08110751      -0.06701951      -0.45237842 </v>
   <v>       0.08696432       0.00820278       0.13999176 </v>
   <v>      -0.69135176      -0.53018823      -0.50114654 </v>
   <v>       0.26208951      -0.43138143      -0.08388686 </v>
  </varray>
  <varray name="stress" >
   <v>      18.39299090      -9.35544768       6.81202960 </v>
   <v>      -9.35544827      16.68356004       4.26929542 </v>
   <v>       6.81202979       4.26929535       9.80272866 </v>
  </varray>
  <energy>
   <i name="e_fr_energy">   -180.79568435 </i>
   <i name="e_wo_entrp">   -180.79539398 </i>
   <i name="e_0_energy">     -0.00087111 </i>
  </energy>
  <time name="totalsc">  520.37  529.67</time>
  <eigenvalues>
   <array>
    <dimension dim="1">band</dimension>
    <dimension dim="2">kpoint</dimension>
    <dimension dim="3">spin</dimension>
    <field>eigene</field>
    <field>occ</field>
    <set>
     <set comment="spin 1">
      <set comment="kpoint 1">
       <r>    0.8641    1.0000 </r>
       <r>    2.3857    1.0000 </r>
       <r>    2.3992    1.0000 </r>
       <r>    2.5959    1.0000 </r>
       <r>    2.6314    1.0000 </r>
       <r>    2.6849    1.0000 </r>
       <r>    2.6927    1.0000 </r>
       <r>    2.7315    1.0000 </r>
       <r>    2.8113    1.0000 </r>
       <r>    2.9042    1.0000 </r>
       <r>    2.9464    1.0000 </r>
       <r>    3.0043    1.0000 </r>
       <r>    3.0526    1.0000 </r>
       <r>    3.0979    1.0000 </r>
       <r>    3.1328    1.0000 </r>
       <r>    3.1883    1.0000 </r>
       <r>    3.2716    1.0000 </r>
       <r>    3.4463    1.0000 </r>
       <r>    3.4714    1.0000 </r>
       <r>    3.4859    1.0000 </r>
       <r>    4.0166    1.0000 </r>
       <r>    4.1056    1.0000 </r>
       <r>    4.1359    1.0000 </r>
       <r>    4.3394    1.0000 </r>
       <r>    4.4361    1.0000 </r>
       <r>    4.4592    1.0000 </r>
       <r>    4.6971    1.0000 </r>
       <r>    4.7893    1.0000 </r>
       <r>    5.2536    1.0000 </r>
       <r>    5.3117    1.0000 </r>
       <r>    5.3625    1.0000 </r>
       <r>    5.4564    1.0000 </r>
       <r>    5.5440    1.0000 </r>
       <r>    5.7088    1.0000 </r>
       <r>    5.7997    1.0000 </r>
       <r>    5.8209    1.0000 </r>
       <r>    5.8815    1.0000 </r>
       <r>    5.8986    1.0000 </r>
       <r>    5.9102    1.0000 </r>
       <r>    5.9642    1.0000 </r>
       <r>    5.9670    1.0000 </r>
       <r>    6.0129    1.0000 </r>
       <r>    6.0313    1.0000 </r>
       <r>    6.0624    1.0000 </r>
       <r>    6.0900    1.0000 </r>
       <r>    6.1466    1.0000 </r>
       <r>    6.1741    1.0000 </r>
       <r>    6.2339    1.0000 </r>
       <r>    6.2590    1.0000 </r>
       <r>    6.3084    1.0000 </r>
       <r>    6.3943    1.0000 </r>
       <r>    6.4492    1.0000 </r>
       <r>    6.5013    1.0000 </r>
       <r>    6.5233    1.0000 </r>
       <r>    6.5497    1.0000 </r>
       <r>    6.5859    1.0000 </r>
       <r>    6.6377    1.0000 </r>
       <r>    6.6634    1.0000 </r>
       <r>    6.6956    1.0000 </r>
       <r>    6.7272    1.0000 </r>
       <r>    6.7500    1.0000 </r>
       <r>    6.9188    1.0000 </r>
       <r>    7.0107    1.0000 </r>
       <r>    7.0440    1.0000 </r>
       <r>    7.0744    1.0000 </r>
       <r>    7.2137    1.0000 </r>
       <r>    7.2695    1.0000 </r>
       <r>    7.3711    1.0000 </r>
       <r>    7.3844    1.0000 </r>
       <r>    7.4336    1.0000 </r>
       <r>    7.4528    1.0000 </r>
       <r>    7.5806    1.0000 </r>
       <r>    7.8082    1.0000 </r>
       <r>    7.8399    1.0000 </r>
       <r>    7.9043    1.0000 </r>
       <r>    7.9399    1.0000 </r>
       <r>    7.9649    1.0000 </r>
       <r>    8.1900    1.0000 </r>
       <r>    8.3736    1.0007 </r>
       <r>    8.4643    1.0181 </r>
       <r>    8.4967    1.0322 </r>
       <r>    8.6289    0.5554 </r>
       <r>    8.6996    0.0622 </r>
       <r>    8.7687   -0.0339 </r>
       <r>    8.8227   -0.0118 </r>
       <r>    8.9555   -0.0000 </r>
       <r>    8.9724   -0.0000 </r>
       <r>    9.0112   -0.0000 </r>
       <r>    9.1326   -0.0000 </r>
       <r>    9.1653   -0.0000 </r>
       <r>    9.3351   -0.0000 </r>
       <r>    9.4030   -0.0000 </r>
       <r>    9.5116   -0.0000 </r>
       <r>    9.5767   -0.0000 </r>
       <r>    9.7249   -0.0000 </r>
       <r>    9.7681   -0.0000 </r>
       <r>    9.8101   -0.0000 </r>
       <r>    9.8644   -0.0000 </r>
       <r>   10.1571   -0.0000 </r>
       <r>   10.6737   -0.0000 </r>
      </set>
      <set comment="kpoint 2">
       <r>    0.9520    1.0000 </r>
       <r>    2.4506    1.0000 </r>
       <r>    2.4701    1.0000 </r>
       <r>    2.6522    1.0000 </r>
       <r>    2.6961    1.0000 </r>
       <r>    2.7180    1.0000 </r>
       <r>    2.7647    1.0000 </r>
       <r>    2.8349    1.0000 </r>
       <r>    2.8824    1.0000 </r>
       <r>    2.9696    1.0000 </r>
       <r>    3.0282    1.0000 </r>
       <r>    3.0606    1.0000 </r>
       <r>    3.1312    1.0000 </r>
       <r>    3.1703    1.0000 </r>
       <r>    3.2069    1.0000 </r>
       <r>    3.2775    1.0000 </r>
       <r>    3.3514    1.0000 </r>
       <r>    3.5330    1.0000 </r>
       <r>    3.5617    1.0000 </r>
       <r>    3.5727    1.0000 </r>
       <r>    4.0279    1.0000 </r>
       <r>    4.1397    1.0000 </r>
       <r>    4.1887    1.0000 </r>
       <r>    4.3572    1.0000 </r>
       <r>    4.4276    1.0000 </r>
       <r>    4.4822    1.0000 </r>
       <r>    4.7024    1.0000 </r>
       <r>    4.8256    1.0000 </r>
       <r>    5.1784    1.0000 </r>
       <r>    5.2050    1.0000 </r>
       <r>    5.2869    1.0000 </r>
       <r>    5.3754    1.0000 </r>
       <r>    5.4721    1.0000 </r>
       <r>    5.5857    1.0000 </r>
       <r>    5.6591    1.0000 </r>
       <r>    5.7472    1.0000 </r>
       <r>    5.7709    1.0000 </r>
       <r>    5.8244    1.0000 </r>
       <r>    5.8755    1.0000 </r>
       <r>    5.8968    1.0000 </r>
       <r>    5.9365    1.0000 </r>
       <r>    5.9665    1.0000 </r>
       <r>    6.0196    1.0000 </r>
       <r>    6.0605    1.0000 </r>
       <r>    6.0885    1.0000 </r>
       <r>    6.1302    1.0000 </r>
       <r>    6.1413    1.0000 </r>
       <r>    6.1914    1.0000 </r>
       <r>    6.2653    1.0000 </r>
       <r>    6.3457    1.0000 </r>
       <r>    6.3895    1.0000 </r>
       <r>    6.4396    1.0000 </r>
       <r>    6.4755    1.0000 </r>
       <r>    6.5214    1.0000 </r>
       <r>    6.5532    1.0000 </r>
       <r>    6.5900    1.0000 </r>
       <r>    6.6139    1.0000 </r>
       <r>    6.6517    1.0000 </r>
       <r>    6.6906    1.0000 </r>
       <r>    6.7447    1.0000 </r>
       <r>    6.7784    1.0000 </r>
       <r>    6.8529    1.0000 </r>
       <r>    6.9008    1.0000 </r>
       <r>    6.9407    1.0000 </r>
       <r>    7.0795    1.0000 </r>
       <r>    7.1473    1.0000 </r>
       <r>    7.2327    1.0000 </r>
       <r>    7.3387    1.0000 </r>
       <r>    7.3880    1.0000 </r>
       <r>    7.5263    1.0000 </r>
       <r>    7.5890    1.0000 </r>
       <r>    7.6654    1.0000 </r>
       <r>    7.7399    1.0000 </r>
       <r>    7.8092    1.0000 </r>
       <r>    7.9035    1.0000 </r>
       <r>    7.9383    1.0000 </r>
       <r>    8.0295    1.0000 </r>
       <r>    8.2417    1.0000 </r>
       <r>    8.3307    1.0001 </r>
       <r>    8.4500    1.0124 </r>
       <r>    8.4939    1.0312 </r>
       <r>    8.5349    1.0257 </r>
       <r>    8.5943    0.8173 </r>
       <r>    8.7627   -0.0351 </r>
       <r>    8.8392   -0.0071 </r>
       <r>    8.9071   -0.0004 </r>
       <r>    8.9579   -0.0000 </r>
       <r>    8.9985   -0.0000 </r>
       <r>    9.0295   -0.0000 </r>
       <r>    9.0750   -0.0000 </r>
       <r>    9.1050   -0.0000 </r>
       <r>    9.1923   -0.0000 </r>
       <r>    9.3570   -0.0000 </r>
       <r>    9.4402   -0.0000 </r>
       <r>    9.5071   -0.0000 </r>
       <r>    9.6109   -0.0000 </r>
       <r>    9.7204   -0.0000 </r>
       <r>    9.7538   -0.0000 </r>
       <r>    9.9270   -0.0000 </r>
       <r>   10.0604   -0.0000 </r>
      </set>
      <set comment="kpoint 3">
       <r>    1.2087    1.0000 </r>
       <r>    2.6263    1.0000 </r>
       <r>    2.6638    1.0000 </r>
       <r>    2.7749    1.0000 </r>
       <r>    2.8207    1.0000 </r>
       <r>    2.9196    1.0000 </r>
       <r>    2.9636    1.0000 </r>
       <r>    3.0267    1.0000 </r>
       <r>    3.0854    1.0000 </r>
       <r>    3.1528    1.0000 </r>
       <r>    3.2307    1.0000 </r>
       <r>    3.2811    1.0000 </r>
       <r>    3.3309    1.0000 </r>
       <r>    3.3907    1.0000 </r>
       <r>    3.4345    1.0000 </r>
       <r>    3.5284    1.0000 </r>
       <r>    3.5684    1.0000 </r>
       <r>    3.7719    1.0000 </r>
       <r>    3.7921    1.0000 </r>
       <r>    3.8283    1.0000 </r>
       <r>    4.0264    1.0000 </r>
       <r>    4.2069    1.0000 </r>
       <r>    4.2546    1.0000 </r>
       <r>    4.4038    1.0000 </r>
       <r>    4.4459    1.0000 </r>
       <r>    4.5168    1.0000 </r>
       <r>    4.7500    1.0000 </r>
       <r>    4.8964    1.0000 </r>
       <r>    4.9496    1.0000 </r>
       <r>    5.0251    1.0000 </r>
       <r>    5.0691    1.0000 </r>
       <r>    5.1910    1.0000 </r>
       <r>    5.3036    1.0000 </r>
       <r>    5.3623    1.0000 </r>
       <r>    5.4232    1.0000 </r>
       <r>    5.4948    1.0000 </r>
       <r>    5.5255    1.0000 </r>
       <r>    5.6518    1.0000 </r>
       <r>    5.6920    1.0000 </r>
       <r>    5.7521    1.0000 </r>
       <r>    5.8072    1.0000 </r>
       <r>    5.8443    1.0000 </r>
       <r>    5.8931    1.0000 </r>
       <r>    5.9623    1.0000 </r>
       <r>    6.0380    1.0000 </r>
       <r>    6.0907    1.0000 </r>
       <r>    6.1521    1.0000 </r>
       <r>    6.1946    1.0000 </r>
       <r>    6.2198    1.0000 </r>
       <r>    6.2504    1.0000 </r>
       <r>    6.2786    1.0000 </r>
       <r>    6.3193    1.0000 </r>
       <r>    6.4024    1.0000 </r>
       <r>    6.4749    1.0000 </r>
       <r>    6.5256    1.0000 </r>
       <r>    6.5932    1.0000 </r>
       <r>    6.6478    1.0000 </r>
       <r>    6.6898    1.0000 </r>
       <r>    6.7278    1.0000 </r>
       <r>    6.7644    1.0000 </r>
       <r>    6.8168    1.0000 </r>
       <r>    6.8462    1.0000 </r>
       <r>    6.9121    1.0000 </r>
       <r>    6.9709    1.0000 </r>
       <r>    7.0138    1.0000 </r>
       <r>    7.0417    1.0000 </r>
       <r>    7.1165    1.0000 </r>
       <r>    7.2502    1.0000 </r>
       <r>    7.3293    1.0000 </r>
       <r>    7.4909    1.0000 </r>
       <r>    7.6418    1.0000 </r>
       <r>    7.7690    1.0000 </r>
       <r>    7.8672    1.0000 </r>
       <r>    7.9712    1.0000 </r>
       <r>    8.0352    1.0000 </r>
       <r>    8.0741    1.0000 </r>
       <r>    8.1338    1.0000 </r>
       <r>    8.1711    1.0000 </r>
       <r>    8.2256    1.0000 </r>
       <r>    8.2789    1.0000 </r>
       <r>    8.3193    1.0000 </r>
       <r>    8.3626    1.0004 </r>
       <r>    8.4112    1.0034 </r>
       <r>    8.4559    1.0146 </r>
       <r>    8.5109    1.0354 </r>
       <r>    8.5746    0.9239 </r>
       <r>    8.6853    0.1306 </r>
       <r>    8.7305   -0.0193 </r>
       <r>    8.9500   -0.0000 </r>
       <r>    9.0473   -0.0000 </r>
       <r>    9.0661   -0.0000 </r>
       <r>    9.1185   -0.0000 </r>
       <r>    9.2125   -0.0000 </r>
       <r>    9.2435   -0.0000 </r>
       <r>    9.3972   -0.0000 </r>
       <r>    9.4418   -0.0000 </r>
       <r>    9.8741   -0.0000 </r>
       <r>    9.9821   -0.0000 </r>
       <r>   10.0774   -0.0000 </r>
       <r>   10.1239   -0.0000 </r>
      </set>
      <set comment="kpoint 4">
       <r>    1.6125    1.0000 </r>
       <r>    2.8284    1.0000 </r>
       <r>    2.9107    1.0000 </r>
       <r>    2.9334    1.0000 </r>
       <r>    3.0021    1.0000 </r>
       <r>    3.1404    1.0000 </r>
       <r>    3.1900    1.0000 </r>
       <r>    3.2827    1.0000 </r>
       <r>    3.3385    1.0000 </r>
       <r>    3.4191    1.0000 </r>
       <r>    3.5179    1.0000 </r>
       <r>    3.5844    1.0000 </r>
       <r>    3.6320    1.0000 </r>
       <r>    3.7338    1.0000 </r>
       <r>    3.7557    1.0000 </r>
       <r>    3.7934    1.0000 </r>
       <r>    3.8416    1.0000 </r>
       <r>    3.9954    1.0000 </r>
       <r>    4.0395    1.0000 </r>
       <r>    4.0508    1.0000 </r>
       <r>    4.0994    1.0000 </r>
       <r>    4.2516    1.0000 </r>
       <r>    4.3703    1.0000 </r>
       <r>    4.4130    1.0000 </r>
       <r>    4.4986    1.0000 </r>
       <r>    4.5864    1.0000 </r>
       <r>    4.6391    1.0000 </r>
       <r>    4.7029    1.0000 </r>
       <r>    4.7628    1.0000 </r>
       <r>    4.8770    1.0000 </r>
       <r>    4.9141    1.0000 </r>
       <r>    5.0663    1.0000 </r>
       <r>    5.1226    1.0000 </r>
       <r>    5.1702    1.0000 </r>
       <r>    5.2343    1.0000 </r>
       <r>    5.3078    1.0000 </r>
       <r>    5.3547    1.0000 </r>
       <r>    5.4095    1.0000 </r>
       <r>    5.5061    1.0000 </r>
       <r>    5.5607    1.0000 </r>
       <r>    5.6302    1.0000 </r>
       <r>    5.6853    1.0000 </r>
       <r>    5.7599    1.0000 </r>
       <r>    5.7905    1.0000 </r>
       <r>    5.8231    1.0000 </r>
       <r>    5.8959    1.0000 </r>
       <r>    5.9523    1.0000 </r>
       <r>    5.9840    1.0000 </r>
       <r>    6.0397    1.0000 </r>
       <r>    6.1328    1.0000 </r>
       <r>    6.2614    1.0000 </r>
       <r>    6.3214    1.0000 </r>
       <r>    6.3901    1.0000 </r>
       <r>    6.4919    1.0000 </r>
       <r>    6.5375    1.0000 </r>
       <r>    6.6241    1.0000 </r>
       <r>    6.6783    1.0000 </r>
       <r>    6.7637    1.0000 </r>
       <r>    6.7897    1.0000 </r>
       <r>    6.8649    1.0000 </r>
       <r>    6.9077    1.0000 </r>
       <r>    6.9520    1.0000 </r>
       <r>    6.9782    1.0000 </r>
       <r>    7.0383    1.0000 </r>
       <r>    7.1070    1.0000 </r>
       <r>    7.1553    1.0000 </r>
       <r>    7.1734    1.0000 </r>
       <r>    7.2445    1.0000 </r>
       <r>    7.3684    1.0000 </r>
       <r>    7.3997    1.0000 </r>
       <r>    7.4645    1.0000 </r>
       <r>    7.6339    1.0000 </r>
       <r>    7.8005    1.0000 </r>
       <r>    7.8715    1.0000 </r>
       <r>    7.9410    1.0000 </r>
       <r>    8.0146    1.0000 </r>
       <r>    8.0717    1.0000 </r>
       <r>    8.1037    1.0000 </r>
       <r>    8.1562    1.0000 </r>
       <r>    8.1727    1.0000 </r>
       <r>    8.2358    1.0000 </r>
       <r>    8.2832    1.0000 </r>
       <r>    8.3290    1.0001 </r>
       <r>    8.3650    1.0004 </r>
       <r>    8.4290    1.0065 </r>
       <r>    8.5209    1.0344 </r>
       <r>    8.5932    0.8243 </r>
       <r>    8.6570    0.3219 </r>
       <r>    8.7589   -0.0354 </r>
       <r>    8.9666   -0.0000 </r>
       <r>    9.0866   -0.0000 </r>
       <r>    9.1450   -0.0000 </r>
       <r>    9.2059   -0.0000 </r>
       <r>    9.3619   -0.0000 </r>
       <r>    9.4456   -0.0000 </r>
       <r>    9.7195   -0.0000 </r>
       <r>    9.8161   -0.0000 </r>
       <r>    9.9803   -0.0000 </r>
       <r>   10.1540   -0.0000 </r>
       <r>   10.2287   -0.0000 </r>
      </set>
      <set comment="kpoint 5">
       <r>    2.1263    1.0000 </r>
       <r>    2.8962    1.0000 </r>
       <r>    3.1110    1.0000 </r>
       <r>    3.1607    1.0000 </r>
       <r>    3.1790    1.0000 </r>
       <r>    3.2311    1.0000 </r>
       <r>    3.3616    1.0000 </r>
       <r>    3.5036    1.0000 </r>
       <r>    3.5287    1.0000 </r>
       <r>    3.5456    1.0000 </r>
       <r>    3.6008    1.0000 </r>
       <r>    3.6911    1.0000 </r>
       <r>    3.8086    1.0000 </r>
       <r>    3.8634    1.0000 </r>
       <r>    3.9210    1.0000 </r>
       <r>    4.0346    1.0000 </r>
       <r>    4.1366    1.0000 </r>
       <r>    4.1616    1.0000 </r>
       <r>    4.1781    1.0000 </r>
       <r>    4.2117    1.0000 </r>
       <r>    4.2308    1.0000 </r>
       <r>    4.2942    1.0000 </r>
       <r>    4.3532    1.0000 </r>
       <r>    4.3948    1.0000 </r>
       <r>    4.4718    1.0000 </r>
       <r>    4.5091    1.0000 </r>
       <r>    4.6522    1.0000 </r>
       <r>    4.7095    1.0000 </r>
       <r>    4.7837    1.0000 </r>
       <r>    4.8773    1.0000 </r>
       <r>    4.9010    1.0000 </r>
       <r>    4.9190    1.0000 </r>
       <r>    4.9591    1.0000 </r>
       <r>    4.9936    1.0000 </r>
       <r>    5.0584    1.0000 </r>
       <r>    5.1118    1.0000 </r>
       <r>    5.1927    1.0000 </r>
       <r>    5.2813    1.0000 </r>
       <r>    5.3071    1.0000 </r>
       <r>    5.3742    1.0000 </r>
       <r>    5.4720    1.0000 </r>
       <r>    5.5053    1.0000 </r>
       <r>    5.6175    1.0000 </r>
       <r>    5.6894    1.0000 </r>
       <r>    5.7426    1.0000 </r>
       <r>    5.7640    1.0000 </r>
       <r>    5.8148    1.0000 </r>
       <r>    5.9264    1.0000 </r>
       <r>    6.1063    1.0000 </r>
       <r>    6.2740    1.0000 </r>
       <r>    6.3827    1.0000 </r>
       <r>    6.4210    1.0000 </r>
       <r>    6.4464    1.0000 </r>
       <r>    6.4976    1.0000 </r>
       <r>    6.5346    1.0000 </r>
       <r>    6.6191    1.0000 </r>
       <r>    6.6704    1.0000 </r>
       <r>    6.7266    1.0000 </r>
       <r>    6.7774    1.0000 </r>
       <r>    6.8188    1.0000 </r>
       <r>    6.8712    1.0000 </r>
       <r>    7.0094    1.0000 </r>
       <r>    7.0769    1.0000 </r>
       <r>    7.1784    1.0000 </r>
       <r>    7.2257    1.0000 </r>
       <r>    7.2590    1.0000 </r>
       <r>    7.3015    1.0000 </r>
       <r>    7.4679    1.0000 </r>
       <r>    7.4910    1.0000 </r>
       <r>    7.5917    1.0000 </r>
       <r>    7.6175    1.0000 </r>
       <r>    7.7190    1.0000 </r>
       <r>    7.7871    1.0000 </r>
       <r>    7.8523    1.0000 </r>
       <r>    7.9023    1.0000 </r>
       <r>    8.0096    1.0000 </r>
       <r>    8.0503    1.0000 </r>
       <r>    8.0973    1.0000 </r>
       <r>    8.1446    1.0000 </r>
       <r>    8.1630    1.0000 </r>
       <r>    8.1849    1.0000 </r>
       <r>    8.2465    1.0000 </r>
       <r>    8.2818    1.0000 </r>
       <r>    8.3412    1.0001 </r>
       <r>    8.4233    1.0053 </r>
       <r>    8.5760    0.9174 </r>
       <r>    8.6582    0.3130 </r>
       <r>    8.7594   -0.0354 </r>
       <r>    8.8696   -0.0023 </r>
       <r>    9.1571   -0.0000 </r>
       <r>    9.2021   -0.0000 </r>
       <r>    9.2286   -0.0000 </r>
       <r>    9.3435   -0.0000 </r>
       <r>    9.4997   -0.0000 </r>
       <r>    9.6123   -0.0000 </r>
       <r>    9.7541   -0.0000 </r>
       <r>    9.9856   -0.0000 </r>
       <r>   10.0954   -0.0000 </r>
       <r>   10.1634   -0.0000 </r>
       <r>   10.2323   -0.0000 </r>
      </set>
      <set comment="kpoint 6">
       <r>    2.6919    1.0000 </r>
       <r>    2.8805    1.0000 </r>
       <r>    3.0670    1.0000 </r>
       <r>    3.1816    1.0000 </r>
       <r>    3.2417    1.0000 </r>
       <r>    3.2936    1.0000 </r>
       <r>    3.3314    1.0000 </r>
       <r>    3.4013    1.0000 </r>
       <r>    3.4377    1.0000 </r>
       <r>    3.4964    1.0000 </r>
       <r>    3.6137    1.0000 </r>
       <r>    3.6696    1.0000 </r>
       <r>    3.7730    1.0000 </r>
       <r>    3.8787    1.0000 </r>
       <r>    3.9580    1.0000 </r>
       <r>    4.0282    1.0000 </r>
       <r>    4.0665    1.0000 </r>
       <r>    4.0960    1.0000 </r>
       <r>    4.1011    1.0000 </r>
       <r>    4.1634    1.0000 </r>
       <r>    4.2751    1.0000 </r>
       <r>    4.3009    1.0000 </r>
       <r>    4.3844    1.0000 </r>
       <r>    4.4001    1.0000 </r>
       <r>    4.4469    1.0000 </r>
       <r>    4.4980    1.0000 </r>
       <r>    4.5781    1.0000 </r>
       <r>    4.6140    1.0000 </r>
       <r>    4.6948    1.0000 </r>
       <r>    4.7822    1.0000 </r>
       <r>    4.8131    1.0000 </r>
       <r>    4.8861    1.0000 </r>
       <r>    4.9221    1.0000 </r>
       <r>    4.9604    1.0000 </r>
       <r>    5.0383    1.0000 </r>
       <r>    5.1227    1.0000 </r>
       <r>    5.2180    1.0000 </r>
       <r>    5.2796    1.0000 </r>
       <r>    5.3833    1.0000 </r>
       <r>    5.4437    1.0000 </r>
       <r>    5.4971    1.0000 </r>
       <r>    5.5429    1.0000 </r>
       <r>    5.5625    1.0000 </r>
       <r>    5.6224    1.0000 </r>
       <r>    5.6815    1.0000 </r>
       <r>    5.7742    1.0000 </r>
       <r>    6.0052    1.0000 </r>
       <r>    6.1716    1.0000 </r>
       <r>    6.2429    1.0000 </r>
       <r>    6.2780    1.0000 </r>
       <r>    6.3510    1.0000 </r>
       <r>    6.3882    1.0000 </r>
       <r>    6.4519    1.0000 </r>
       <r>    6.4928    1.0000 </r>
       <r>    6.5331    1.0000 </r>
       <r>    6.6240    1.0000 </r>
       <r>    6.6865    1.0000 </r>
       <r>    6.7645    1.0000 </r>
       <r>    6.8436    1.0000 </r>
       <r>    6.9390    1.0000 </r>
       <r>    7.1418    1.0000 </r>
       <r>    7.2359    1.0000 </r>
       <r>    7.3104    1.0000 </r>
       <r>    7.3524    1.0000 </r>
       <r>    7.4300    1.0000 </r>
       <r>    7.4872    1.0000 </r>
       <r>    7.5885    1.0000 </r>
       <r>    7.6772    1.0000 </r>
       <r>    7.7157    1.0000 </r>
       <r>    7.7624    1.0000 </r>
       <r>    7.8298    1.0000 </r>
       <r>    7.9428    1.0000 </r>
       <r>    8.0012    1.0000 </r>
       <r>    8.0219    1.0000 </r>
       <r>    8.0694    1.0000 </r>
       <r>    8.1257    1.0000 </r>
       <r>    8.1629    1.0000 </r>
       <r>    8.2066    1.0000 </r>
       <r>    8.2641    1.0000 </r>
       <r>    8.2862    1.0000 </r>
       <r>    8.3708    1.0006 </r>
       <r>    8.3983    1.0020 </r>
       <r>    8.4373    1.0085 </r>
       <r>    8.5081    1.0351 </r>
       <r>    8.6084    0.7197 </r>
       <r>    8.6287    0.5569 </r>
       <r>    8.9724   -0.0000 </r>
       <r>    9.1665   -0.0000 </r>
       <r>    9.2452   -0.0000 </r>
       <r>    9.2789   -0.0000 </r>
       <r>    9.3357   -0.0000 </r>
       <r>    9.5313   -0.0000 </r>
       <r>    9.5788   -0.0000 </r>
       <r>    9.6884   -0.0000 </r>
       <r>    9.7616   -0.0000 </r>
       <r>    9.9859   -0.0000 </r>
       <r>   10.0391   -0.0000 </r>
       <r>   10.0819   -0.0000 </r>
       <r>   10.1724   -0.0000 </r>
       <r>   10.2420   -0.0000 </r>
      </set>
      <set comment="kpoint 7">
       <r>    2.8329    1.0000 </r>
       <r>    2.8538    1.0000 </r>
       <r>    2.9155    1.0000 </r>
       <r>    3.0156    1.0000 </r>
       <r>    3.1464    1.0000 </r>
       <r>    3.2204    1.0000 </r>
       <r>    3.2596    1.0000 </r>
       <r>    3.3379    1.0000 </r>
       <r>    3.4145    1.0000 </r>
       <r>    3.4996    1.0000 </r>
       <r>    3.5921    1.0000 </r>
       <r>    3.6175    1.0000 </r>
       <r>    3.6805    1.0000 </r>
       <r>    3.6967    1.0000 </r>
       <r>    3.8225    1.0000 </r>
       <r>    3.8539    1.0000 </r>
       <r>    3.8962    1.0000 </r>
       <r>    3.9245    1.0000 </r>
       <r>    3.9310    1.0000 </r>
       <r>    4.0245    1.0000 </r>
       <r>    4.0490    1.0000 </r>
       <r>    4.0888    1.0000 </r>
       <r>    4.1365    1.0000 </r>
       <r>    4.2298    1.0000 </r>
       <r>    4.2894    1.0000 </r>
       <r>    4.4512    1.0000 </r>
       <r>    4.5321    1.0000 </r>
       <r>    4.5863    1.0000 </r>
       <r>    4.6276    1.0000 </r>
       <r>    4.6772    1.0000 </r>
       <r>    4.7344    1.0000 </r>
       <r>    4.8059    1.0000 </r>
       <r>    4.8787    1.0000 </r>
       <r>    5.0127    1.0000 </r>
       <r>    5.1584    1.0000 </r>
       <r>    5.2221    1.0000 </r>
       <r>    5.2306    1.0000 </r>
       <r>    5.2899    1.0000 </r>
       <r>    5.3501    1.0000 </r>
       <r>    5.4655    1.0000 </r>
       <r>    5.6703    1.0000 </r>
       <r>    5.8327    1.0000 </r>
       <r>    5.8961    1.0000 </r>
       <r>    5.9129    1.0000 </r>
       <r>    5.9543    1.0000 </r>
       <r>    6.0084    1.0000 </r>
       <r>    6.0647    1.0000 </r>
       <r>    6.0786    1.0000 </r>
       <r>    6.1753    1.0000 </r>
       <r>    6.2224    1.0000 </r>
       <r>    6.2580    1.0000 </r>
       <r>    6.3747    1.0000 </r>
       <r>    6.4177    1.0000 </r>
       <r>    6.4610    1.0000 </r>
       <r>    6.6827    1.0000 </r>
       <r>    6.8499    1.0000 </r>
       <r>    6.9771    1.0000 </r>
       <r>    7.0447    1.0000 </r>
       <r>    7.0781    1.0000 </r>
       <r>    7.2377    1.0000 </r>
       <r>    7.3162    1.0000 </r>
       <r>    7.3705    1.0000 </r>
       <r>    7.4394    1.0000 </r>
       <r>    7.4774    1.0000 </r>
       <r>    7.6158    1.0000 </r>
       <r>    7.6904    1.0000 </r>
       <r>    7.7561    1.0000 </r>
       <r>    7.8517    1.0000 </r>
       <r>    7.8980    1.0000 </r>
       <r>    7.9412    1.0000 </r>
       <r>    7.9757    1.0000 </r>
       <r>    8.0754    1.0000 </r>
       <r>    8.1366    1.0000 </r>
       <r>    8.2155    1.0000 </r>
       <r>    8.2886    1.0000 </r>
       <r>    8.3578    1.0003 </r>
       <r>    8.4344    1.0077 </r>
       <r>    8.5482    1.0063 </r>
       <r>    8.6815    0.1519 </r>
       <r>    8.8478   -0.0052 </r>
       <r>    8.8892   -0.0010 </r>
       <r>    8.9336   -0.0001 </r>
       <r>    8.9773   -0.0000 </r>
       <r>    9.0426   -0.0000 </r>
       <r>    9.1246   -0.0000 </r>
       <r>    9.3558   -0.0000 </r>
       <r>    9.3752   -0.0000 </r>
       <r>    9.4055   -0.0000 </r>
       <r>    9.5470   -0.0000 </r>
       <r>    9.6913   -0.0000 </r>
       <r>    9.7390   -0.0000 </r>
       <r>    9.7960   -0.0000 </r>
       <r>    9.8355   -0.0000 </r>
       <r>    9.8855   -0.0000 </r>
       <r>    9.9629   -0.0000 </r>
       <r>   10.0422   -0.0000 </r>
       <r>   10.0745   -0.0000 </r>
       <r>   10.1575   -0.0000 </r>
       <r>   10.2185   -0.0000 </r>
       <r>   10.2814   -0.0000 </r>
      </set>
      <set comment="kpoint 8">
       <r>    2.5740    1.0000 </r>
       <r>    2.7700    1.0000 </r>
       <r>    2.8129    1.0000 </r>
       <r>    2.8592    1.0000 </r>
       <r>    2.9711    1.0000 </r>
       <r>    3.0075    1.0000 </r>
       <r>    3.2479    1.0000 </r>
       <r>    3.3566    1.0000 </r>
       <r>    3.3810    1.0000 </r>
       <r>    3.4458    1.0000 </r>
       <r>    3.4897    1.0000 </r>
       <r>    3.5429    1.0000 </r>
       <r>    3.5953    1.0000 </r>
       <r>    3.6220    1.0000 </r>
       <r>    3.6555    1.0000 </r>
       <r>    3.6850    1.0000 </r>
       <r>    3.7211    1.0000 </r>
       <r>    3.7431    1.0000 </r>
       <r>    3.8272    1.0000 </r>
       <r>    3.8623    1.0000 </r>
       <r>    3.8978    1.0000 </r>
       <r>    3.9289    1.0000 </r>
       <r>    3.9945    1.0000 </r>
       <r>    4.0885    1.0000 </r>
       <r>    4.1393    1.0000 </r>
       <r>    4.2318    1.0000 </r>
       <r>    4.3715    1.0000 </r>
       <r>    4.4499    1.0000 </r>
       <r>    4.5197    1.0000 </r>
       <r>    4.6237    1.0000 </r>
       <r>    4.6506    1.0000 </r>
       <r>    4.7894    1.0000 </r>
       <r>    4.9293    1.0000 </r>
       <r>    5.0095    1.0000 </r>
       <r>    5.0332    1.0000 </r>
       <r>    5.1234    1.0000 </r>
       <r>    5.2443    1.0000 </r>
       <r>    5.3021    1.0000 </r>
       <r>    5.7214    1.0000 </r>
       <r>    5.7720    1.0000 </r>
       <r>    5.8759    1.0000 </r>
       <r>    5.9412    1.0000 </r>
       <r>    5.9895    1.0000 </r>
       <r>    6.0643    1.0000 </r>
       <r>    6.1030    1.0000 </r>
       <r>    6.1211    1.0000 </r>
       <r>    6.1590    1.0000 </r>
       <r>    6.2490    1.0000 </r>
       <r>    6.2596    1.0000 </r>
       <r>    6.3009    1.0000 </r>
       <r>    6.3472    1.0000 </r>
       <r>    6.3653    1.0000 </r>
       <r>    6.4506    1.0000 </r>
       <r>    6.5157    1.0000 </r>
       <r>    6.7240    1.0000 </r>
       <r>    6.9423    1.0000 </r>
       <r>    7.0158    1.0000 </r>
       <r>    7.0962    1.0000 </r>
       <r>    7.2750    1.0000 </r>
       <r>    7.3230    1.0000 </r>
       <r>    7.3779    1.0000 </r>
       <r>    7.4971    1.0000 </r>
       <r>    7.5527    1.0000 </r>
       <r>    7.6374    1.0000 </r>
       <r>    7.7484    1.0000 </r>
       <r>    7.8261    1.0000 </r>
       <r>    7.8677    1.0000 </r>
       <r>    7.9296    1.0000 </r>
       <r>    8.1079    1.0000 </r>
       <r>    8.1553    1.0000 </r>
       <r>    8.2856    1.0000 </r>
       <r>    8.3192    1.0000 </r>
       <r>    8.3915    1.0015 </r>
       <r>    8.4791    1.0248 </r>
       <r>    8.5086    1.0352 </r>
       <r>    8.6280    0.5622 </r>
       <r>    8.8372   -0.0075 </r>
       <r>    9.1799   -0.0000 </r>
       <r>    9.2666   -0.0000 </r>
       <r>    9.3436   -0.0000 </r>
       <r>    9.3616   -0.0000 </r>
       <r>    9.4450   -0.0000 </r>
       <r>    9.4914   -0.0000 </r>
       <r>    9.5520   -0.0000 </r>
       <r>    9.6116   -0.0000 </r>
       <r>    9.6633   -0.0000 </r>
       <r>    9.8473   -0.0000 </r>
       <r>    9.8856   -0.0000 </r>
       <r>    9.9349   -0.0000 </r>
       <r>   10.0062   -0.0000 </r>
       <r>   10.0668   -0.0000 </r>
       <r>   10.1239   -0.0000 </r>
       <r>   10.1570   -0.0000 </r>
       <r>   10.1690   -0.0000 </r>
       <r>   10.2270   -0.0000 </r>
       <r>   10.3312   -0.0000 </r>
       <r>   10.3477   -0.0000 </r>
       <r>   10.4107   -0.0000 </r>
       <r>   10.4661   -0.0000 </r>
       <r>   10.5830   -0.0000 </r>
      </set>
      <set comment="kpoint 9">
       <r>    2.4022    1.0000 </r>
       <r>    2.6870    1.0000 </r>
       <r>    2.7229    1.0000 </r>
       <r>    2.8109    1.0000 </r>
       <r>    2.8449    1.0000 </r>
       <r>    2.9204    1.0000 </r>
       <r>    3.1267    1.0000 </r>
       <r>    3.2357    1.0000 </r>
       <r>    3.2769    1.0000 </r>
       <r>    3.3361    1.0000 </r>
       <r>    3.3891    1.0000 </r>
       <r>    3.4389    1.0000 </r>
       <r>    3.4908    1.0000 </r>
       <r>    3.5188    1.0000 </r>
       <r>    3.5609    1.0000 </r>
       <r>    3.5787    1.0000 </r>
       <r>    3.6124    1.0000 </r>
       <r>    3.6811    1.0000 </r>
       <r>    3.7255    1.0000 </r>
       <r>    3.7838    1.0000 </r>
       <r>    3.8271    1.0000 </r>
       <r>    3.8779    1.0000 </r>
       <r>    3.9418    1.0000 </r>
       <r>    3.9910    1.0000 </r>
       <r>    4.0800    1.0000 </r>
       <r>    4.1545    1.0000 </r>
       <r>    4.2975    1.0000 </r>
       <r>    4.3542    1.0000 </r>
       <r>    4.4360    1.0000 </r>
       <r>    4.5411    1.0000 </r>
       <r>    4.5746    1.0000 </r>
       <r>    4.7144    1.0000 </r>
       <r>    4.8771    1.0000 </r>
       <r>    4.9181    1.0000 </r>
       <r>    4.9480    1.0000 </r>
       <r>    5.1910    1.0000 </r>
       <r>    5.4462    1.0000 </r>
       <r>    5.4666    1.0000 </r>
       <r>    5.8230    1.0000 </r>
       <r>    5.8688    1.0000 </r>
       <r>    5.9034    1.0000 </r>
       <r>    5.9942    1.0000 </r>
       <r>    6.0267    1.0000 </r>
       <r>    6.0835    1.0000 </r>
       <r>    6.1615    1.0000 </r>
       <r>    6.1953    1.0000 </r>
       <r>    6.2503    1.0000 </r>
       <r>    6.3004    1.0000 </r>
       <r>    6.3735    1.0000 </r>
       <r>    6.4345    1.0000 </r>
       <r>    6.4472    1.0000 </r>
       <r>    6.4891    1.0000 </r>
       <r>    6.5691    1.0000 </r>
       <r>    6.6928    1.0000 </r>
       <r>    6.7536    1.0000 </r>
       <r>    6.9172    1.0000 </r>
       <r>    7.0234    1.0000 </r>
       <r>    7.1361    1.0000 </r>
       <r>    7.2246    1.0000 </r>
       <r>    7.3263    1.0000 </r>
       <r>    7.3911    1.0000 </r>
       <r>    7.4478    1.0000 </r>
       <r>    7.5828    1.0000 </r>
       <r>    7.7727    1.0000 </r>
       <r>    7.8101    1.0000 </r>
       <r>    7.8862    1.0000 </r>
       <r>    7.9523    1.0000 </r>
       <r>    8.2022    1.0000 </r>
       <r>    8.2213    1.0000 </r>
       <r>    8.2966    1.0000 </r>
       <r>    8.4033    1.0025 </r>
       <r>    8.4769    1.0237 </r>
       <r>    8.5512    1.0001 </r>
       <r>    8.6636    0.2715 </r>
       <r>    8.8576   -0.0037 </r>
       <r>    9.0349   -0.0000 </r>
       <r>    9.0964   -0.0000 </r>
       <r>    9.2331   -0.0000 </r>
       <r>    9.4793   -0.0000 </r>
       <r>    9.5607   -0.0000 </r>
       <r>    9.6565   -0.0000 </r>
       <r>    9.7194   -0.0000 </r>
       <r>    9.8543   -0.0000 </r>
       <r>    9.9017   -0.0000 </r>
       <r>    9.9739   -0.0000 </r>
       <r>   10.0975   -0.0000 </r>
       <r>   10.1079   -0.0000 </r>
[...]
       <r>    4.0161    1.0000 </r>
       <r>    4.4292    1.0000 </r>
       <r>    4.7841    1.0000 </r>
       <r>    4.8508    1.0000 </r>
       <r>    4.8872    1.0000 </r>
       <r>    4.9273    1.0000 </r>
       <r>    4.9849    1.0000 </r>
       <r>    5.1327    1.0000 </r>
       <r>    5.1688    1.0000 </r>
       <r>    5.2895    1.0000 </r>
       <r>    5.4708    1.0000 </r>
       <r>    5.5628    1.0000 </r>
       <r>    5.6401    1.0000 </r>
       <r>    5.7500    1.0000 </r>
       <r>    5.8641    1.0000 </r>
       <r>    5.8987    1.0000 </r>
       <r>    5.9476    1.0000 </r>
       <r>    5.9970    1.0000 </r>
       <r>    6.0650    1.0000 </r>
       <r>    6.0998    1.0000 </r>
       <r>    6.1435    1.0000 </r>
       <r>    6.1751    1.0000 </r>
       <r>    6.2060    1.0000 </r>
       <r>    6.2852    1.0000 </r>
       <r>    6.3191    1.0000 </r>
       <r>    6.3616    1.0000 </r>
       <r>    6.3725    1.0000 </r>
       <r>    6.3933    1.0000 </r>
       <r>    6.4479    1.0000 </r>
       <r>    6.4813    1.0000 </r>
       <r>    6.5062    1.0000 </r>
       <r>    6.5374    1.0000 </r>
       <r>    6.6362    1.0000 </r>
       <r>    6.6752    1.0000 </r>
       <r>    6.6923    1.0000 </r>
       <r>    6.7583    1.0000 </r>
       <r>    6.8205    1.0000 </r>
       <r>    6.8418    1.0000 </r>
       <r>    6.8711    1.0000 </r>
       <r>    7.0369    1.0000 </r>
       <r>    7.0949    1.0000 </r>
       <r>    7.1537    1.0000 </r>
       <r>    7.2746    1.0000 </r>
       <r>    7.3664    1.0000 </r>
       <r>    7.4364    1.0000 </r>
       <r>    7.5540    1.0000 </r>
       <r>    7.6166    1.0000 </r>
       <r>    7.6647    1.0000 </r>
       <r>    7.7482    1.0000 </r>
       <r>    7.7981    1.0000 </r>
       <r>    7.8550    1.0000 </r>
       <r>    7.9631    1.0000 </r>
       <r>    8.0170    1.0000 </r>
       <r>    8.0483    1.0000 </r>
       <r>    8.0970    1.0000 </r>
       <r>    8.1572    1.0000 </r>
       <r>    8.2518    1.0000 </r>
       <r>    8.3640    1.0004 </r>
       <r>    8.3891    1.0014 </r>
       <r>    8.4350    1.0079 </r>
       <r>    8.5574    0.9847 </r>
       <r>    8.6358    0.4968 </r>
       <r>    8.8335   -0.0085 </r>
       <r>    8.9195   -0.0002 </r>
       <r>    8.9698   -0.0000 </r>
       <r>    9.1032   -0.0000 </r>
       <r>    9.1791   -0.0000 </r>
       <r>    9.2195   -0.0000 </r>
       <r>    9.2858   -0.0000 </r>
       <r>    9.5807   -0.0000 </r>
       <r>    9.6168   -0.0000 </r>
       <r>    9.6439   -0.0000 </r>
       <r>    9.6886   -0.0000 </r>
       <r>    9.7342   -0.0000 </r>
       <r>    9.7871   -0.0000 </r>
       <r>    9.8665   -0.0000 </r>
       <r>    9.8854   -0.0000 </r>
      </set>
     </set>
    </set>
   </array>
  </eigenvalues>
  <separator name="orbital magnetization" >
   <v name="MAGDIPOLOUT">      0.00000000      0.00000000      0.00000000</v>
  </separator>
  <dos>
   <i name="efermi">      8.63541419 </i>
   <total>
    <array>
     <dimension dim="1">gridpoints</dimension>
     <dimension dim="2">spin</dimension>
     <field>energy</field>
     <field>total</field>
     <field>integrated</field>
     <set>
      <set comment="spin 1">
       <r>    -0.1359     0.0000     0.0000 </r>
       <r>    -0.0949     0.0000     0.0000 </r>
       <r>    -0.0540     0.0000     0.0000 </r>
       <r>    -0.0130     0.0000     0.0000 </r>
       <r>     0.0280    -0.0000    -0.0000 </r>
       <r>     0.0690    -0.0000    -0.0000 </r>
       <r>     0.1099    -0.0000    -0.0000 </r>
       <r>     0.1509    -0.0000    -0.0000 </r>
       <r>     0.1919    -0.0000    -0.0000 </r>
       <r>     0.2329    -0.0000    -0.0000 </r>
       <r>     0.2738    -0.0000    -0.0000 </r>
       <r>     0.3148    -0.0000    -0.0000 </r>
       <r>     0.3558    -0.0000    -0.0000 </r>
       <r>     0.3968    -0.0000    -0.0000 </r>
       <r>     0.4377    -0.0000    -0.0000 </r>
       <r>     0.4787    -0.0000    -0.0000 </r>
       <r>     0.5197    -0.0000    -0.0000 </r>
       <r>     0.5606    -0.0000    -0.0000 </r>
       <r>     0.6016    -0.0001    -0.0000 </r>
       <r>     0.6426    -0.0004    -0.0000 </r>
       <r>     0.6836    -0.0015    -0.0001 </r>
       <r>     0.7245    -0.0041    -0.0003 </r>
       <r>     0.7655    -0.0069    -0.0005 </r>
       <r>     0.8065    -0.0037    -0.0007 </r>
       <r>     0.8475     0.0203     0.0001 </r>
       <r>     0.8884     0.0880     0.0038 </r>
       <r>     0.9294     0.2134     0.0125 </r>
       <r>     0.9704     0.3753     0.0279 </r>
       <r>     1.0114     0.5151     0.0490 </r>
       <r>     1.0523     0.5667     0.0722 </r>
       <r>     1.0933     0.5179     0.0934 </r>
       <r>     1.1343     0.4572     0.1122 </r>
       <r>     1.1753     0.5203     0.1335 </r>
       <r>     1.2162     0.7470     0.1641 </r>
       <r>     1.2572     1.0066     0.2053 </r>
       <r>     1.2982     1.1216     0.2513 </r>
       <r>     1.3392     1.0475     0.2942 </r>
       <r>     1.3801     0.8869     0.3306 </r>
       <r>     1.4211     0.7828     0.3626 </r>
       <r>     1.4621     0.8005     0.3954 </r>
       <r>     1.5031     0.8921     0.4320 </r>
       <r>     1.5440     1.0144     0.4735 </r>
       <r>     1.5850     1.1908     0.5223 </r>
       <r>     1.6260     1.3792     0.5789 </r>
       <r>     1.6670     1.4498     0.6383 </r>
       <r>     1.7079     1.4009     0.6957 </r>
       <r>     1.7489     1.3858     0.7524 </r>
       <r>     1.7899     1.4515     0.8119 </r>
       <r>     1.8309     1.5058     0.8736 </r>
       <r>     1.8718     1.5124     0.9356 </r>
       <r>     1.9128     1.4937     0.9968 </r>
       <r>     1.9538     1.4604     1.0566 </r>
       <r>     1.9948     1.4313     1.1153 </r>
       <r>     2.0357     1.4355     1.1741 </r>
       <r>     2.0767     1.5351     1.2370 </r>
       <r>     2.1177     1.8004     1.3108 </r>
       <r>     2.1587     2.1425     1.3985 </r>
       <r>     2.1996     2.3251     1.4938 </r>
       <r>     2.2406     2.2551     1.5862 </r>
       <r>     2.2816     2.1175     1.6730 </r>
       <r>     2.3226     2.2310     1.7644 </r>
       <r>     2.3635     2.8044     1.8793 </r>
       <r>     2.4045     3.6886     2.0304 </r>
       <r>     2.4455     4.4788     2.2140 </r>
       <r>     2.4865     4.9476     2.4167 </r>
       <r>     2.5274     5.2544     2.6320 </r>
       <r>     2.5684     5.7549     2.8678 </r>
       <r>     2.6094     6.6587     3.1406 </r>
       <r>     2.6504     7.9762     3.4675 </r>
       <r>     2.6913     9.7332     3.8663 </r>
       <r>     2.7323    11.8515     4.3519 </r>
       <r>     2.7733    13.9472     4.9234 </r>
       <r>     2.8143    15.8168     5.5715 </r>
       <r>     2.8552    17.8268     6.3019 </r>
       <r>     2.8962    20.1584     7.1279 </r>
       <r>     2.9372    22.1778     8.0366 </r>
       <r>     2.9781    23.1794     8.9864 </r>
       <r>     3.0191    23.2926     9.9408 </r>
       <r>     3.0601    23.2945    10.8953 </r>
       <r>     3.1011    23.8725    11.8734 </r>
       <r>     3.1420    25.2483    12.9080 </r>
       <r>     3.1830    27.2189    14.0232 </r>
       <r>     3.2240    29.3776    15.2270 </r>
       <r>     3.2650    31.3589    16.5119 </r>
       <r>     3.3059    32.9585    17.8624 </r>
       <r>     3.3469    34.1327    19.2609 </r>
       <r>     3.3879    34.9728    20.6939 </r>
       <r>     3.4289    35.6838    22.1561 </r>
       <r>     3.4698    36.4813    23.6509 </r>
       <r>     3.5108    37.3244    25.1802 </r>
       <r>     3.5518    37.7498    26.7270 </r>
       <r>     3.5928    37.2128    28.2518 </r>
       <r>     3.6337    35.7212    29.7154 </r>
       <r>     3.6747    34.0111    31.1090 </r>
       <r>     3.7157    32.8611    32.4555 </r>
       <r>     3.7567    32.2253    33.7759 </r>
       <r>     3.7976    31.4439    35.0643 </r>
       <r>     3.8386    30.2662    36.3045 </r>
       <r>     3.8796    29.0652    37.4954 </r>
       <r>     3.9206    28.1451    38.6486 </r>
       <r>     3.9615    27.4274    39.7725 </r>
       <r>     4.0025    26.7356    40.8679 </r>
       <r>     4.0435    26.0454    41.9351 </r>
       <r>     4.0845    25.4532    42.9781 </r>
       <r>     4.1254    24.8824    43.9976 </r>
       <r>     4.1664    24.0162    44.9817 </r>
       <r>     4.2074    22.8087    45.9163 </r>
       <r>     4.2484    21.6735    46.8043 </r>
       <r>     4.2893    20.9397    47.6623 </r>
       <r>     4.3303    20.5876    48.5059 </r>
       <r>     4.3713    20.5197    49.3467 </r>
       <r>     4.4123    20.6572    50.1931 </r>
       <r>     4.4532    20.8497    51.0474 </r>
       <r>     4.4942    21.0399    51.9095 </r>
       <r>     4.5352    21.4963    52.7903 </r>
       <r>     4.5762    22.5089    53.7126 </r>
       <r>     4.6171    23.7258    54.6847 </r>
       <r>     4.6581    24.2505    55.6784 </r>
       <r>     4.6991    23.7457    56.6514 </r>
       <r>     4.7401    23.0478    57.5957 </r>
       <r>     4.7810    23.0396    58.5398 </r>
       <r>     4.8220    23.3909    59.4982 </r>
       <r>     4.8630    23.4252    60.4581 </r>
       <r>     4.9040    23.3549    61.4150 </r>
       <r>     4.9449    23.6235    62.3830 </r>
       <r>     4.9859    24.0152    63.3670 </r>
       <r>     5.0269    24.0387    64.3520 </r>
       <r>     5.0679    23.5986    65.3189 </r>
       <r>     5.1088    23.0361    66.2628 </r>
       <r>     5.1498    22.6492    67.1908 </r>
       <r>     5.1908    22.4186    68.1094 </r>
       <r>     5.2318    22.2318    69.0204 </r>
       <r>     5.2727    22.0789    69.9251 </r>
       <r>     5.3137    22.1252    70.8316 </r>
       <r>     5.3547    22.5780    71.7568 </r>
       <r>     5.3957    23.2481    72.7093 </r>
       <r>     5.4366    23.6726    73.6793 </r>
       <r>     5.4776    23.7176    74.6511 </r>
       <r>     5.5186    23.6482    75.6201 </r>
       <r>     5.5595    23.7848    76.5947 </r>
       <r>     5.6005    24.1235    77.5831 </r>
       <r>     5.6415    24.3765    78.5819 </r>
       <r>     5.6825    24.5760    79.5889 </r>
       <r>     5.7234    25.0907    80.6170 </r>
       <r>     5.7644    25.8983    81.6782 </r>
       <r>     5.8054    26.5029    82.7641 </r>
       <r>     5.8464    26.7064    83.8584 </r>
       <r>     5.8873    26.9253    84.9617 </r>
       <r>     5.9283    27.5447    86.0903 </r>
       <r>     5.9693    28.5163    87.2588 </r>
       <r>     6.0103    29.7037    88.4758 </r>
       <r>     6.0512    30.9523    89.7441 </r>
       <r>     6.0922    31.9817    91.0545 </r>
       <r>     6.1332    32.7236    92.3954 </r>
       <r>     6.1742    33.4313    93.7652 </r>
       <r>     6.2151    34.2575    95.1689 </r>
       <r>     6.2561    35.0710    96.6059 </r>
       <r>     6.2971    35.8337    98.0742 </r>
       <r>     6.3381    36.7829    99.5814 </r>
       <r>     6.3790    37.9230   101.1352 </r>
       <r>     6.4200    38.8116   102.7255 </r>
       <r>     6.4610    39.1216   104.3285 </r>
       <r>     6.5020    38.7743   105.9173 </r>
       <r>     6.5429    37.7344   107.4634 </r>
       <r>     6.5839    36.3623   108.9534 </r>
       <r>     6.6249    35.2987   110.3997 </r>
       <r>     6.6659    34.5566   111.8156 </r>
       <r>     6.7068    33.4548   113.1864 </r>
       <r>     6.7478    31.5485   114.4791 </r>
       <r>     6.7888    29.0938   115.6712 </r>
       <r>     6.8298    26.7147   116.7659 </r>
       <r>     6.8707    24.9990   117.7902 </r>
       <r>     6.9117    24.3599   118.7883 </r>
       <r>     6.9527    24.8653   119.8072 </r>
       <r>     6.9937    25.8790   120.8676 </r>
       <r>     7.0346    26.3963   121.9491 </r>
       <r>     7.0756    26.1569   123.0209 </r>
       <r>     7.1166    25.6194   124.0706 </r>
       <r>     7.1576    24.8563   125.0891 </r>
       <r>     7.1985    23.6533   126.0583 </r>
       <r>     7.2395    22.3467   126.9739 </r>
       <r>     7.2805    21.5065   127.8552 </r>
       <r>     7.3215    21.1867   128.7233 </r>
       <r>     7.3624    21.0579   129.5861 </r>
       <r>     7.4034    21.0025   130.4467 </r>
       <r>     7.4444    21.1726   131.3142 </r>
       <r>     7.4854    21.4878   132.1947 </r>
       <r>     7.5263    21.6415   133.0814 </r>
       <r>     7.5673    21.6763   133.9696 </r>
       <r>     7.6083    21.9365   134.8685 </r>
       <r>     7.6493    22.4077   135.7866 </r>
       <r>     7.6902    22.6612   136.7151 </r>
       <r>     7.7312    22.6172   137.6419 </r>
       <r>     7.7722    22.7333   138.5734 </r>
       <r>     7.8132    23.1500   139.5219 </r>
       <r>     7.8541    23.4617   140.4833 </r>
       <r>     7.8951    23.6038   141.4504 </r>
       <r>     7.9361    24.1047   142.4381 </r>
       <r>     7.9770    25.2279   143.4718 </r>
       <r>     8.0180    26.5747   144.5607 </r>
       <r>     8.0590    27.6624   145.6941 </r>
       <r>     8.1000    28.2944   146.8535 </r>
       <r>     8.1409    28.3735   148.0161 </r>
       <r>     8.1819    27.8761   149.1583 </r>
       <r>     8.2229    26.9259   150.2616 </r>
       <r>     8.2639    25.6948   151.3144 </r>
       <r>     8.3048    24.3988   152.3141 </r>
       <r>     8.3458    23.4042   153.2731 </r>
       <r>     8.3868    23.0465   154.2174 </r>
       <r>     8.4278    23.1464   155.1659 </r>
       <r>     8.4687    23.1857   156.1159 </r>
       <r>     8.5097    23.1524   157.0645 </r>
       <r>     8.5507    23.3624   158.0218 </r>
       <r>     8.5917    23.5559   158.9870 </r>
       <r>     8.6326    23.1835   159.9369 </r>
       <r>     8.6736    22.3036   160.8508 </r>
       <r>     8.7146    21.4818   161.7310 </r>
       <r>     8.7556    21.0777   162.5947 </r>
       <r>     8.7965    21.0016   163.4552 </r>
       <r>     8.8375    20.9874   164.3152 </r>
       <r>     8.8785    20.8307   165.1687 </r>
       <r>     8.9195    20.5447   166.0105 </r>
       <r>     8.9604    20.4847   166.8499 </r>
       <r>     9.0014    20.8822   167.7055 </r>
       <r>     9.0424    21.3087   168.5786 </r>
       <r>     9.0834    21.2761   169.4504 </r>
       <r>     9.1243    20.9607   170.3092 </r>
       <r>     9.1653    20.7234   171.1584 </r>
       <r>     9.2063    20.5639   172.0010 </r>
       <r>     9.2473    20.4343   172.8383 </r>
       <r>     9.2882    20.4865   173.6777 </r>
       <r>     9.3292    20.7128   174.5264 </r>
       <r>     9.3702    20.7498   175.3766 </r>
       <r>     9.4112    20.4298   176.2137 </r>
       <r>     9.4521    20.2295   177.0426 </r>
       <r>     9.4931    20.6055   177.8869 </r>
       <r>     9.5341    21.2118   178.7560 </r>
       <r>     9.5751    21.4046   179.6331 </r>
       <r>     9.6160    21.2165   180.5024 </r>
       <r>     9.6570    21.3276   181.3763 </r>
       <r>     9.6980    22.0593   182.2802 </r>
       <r>     9.7390    22.8941   183.2183 </r>
       <r>     9.7799    23.3986   184.1770 </r>
       <r>     9.8209    23.8936   185.1560 </r>
       <r>     9.8619    24.6718   186.1670 </r>
       <r>     9.9029    25.3785   187.2068 </r>
       <r>     9.9438    25.5991   188.2557 </r>
       <r>     9.9848    25.4309   189.2978 </r>
       <r>    10.0258    25.2612   190.3328 </r>
       <r>    10.0668    25.2266   191.3665 </r>
       <r>    10.1077    24.9685   192.3896 </r>
       <r>    10.1487    24.0319   193.3743 </r>
       <r>    10.1897    22.3545   194.2902 </r>
       <r>    10.2307    20.2040   195.1181 </r>
       <r>    10.2716    17.9052   195.8517 </r>
       <r>    10.3126    15.7106   196.4955 </r>
       <r>    10.3536    13.7516   197.0589 </r>
       <r>    10.3945    11.9936   197.5504 </r>
       <r>    10.4355    10.2680   197.9711 </r>
       <r>    10.4765     8.6113   198.3239 </r>
       <r>    10.5175     7.4385   198.6287 </r>
       <r>    10.5584     6.9223   198.9124 </r>
       <r>    10.5994     6.5892   199.1824 </r>
       <r>    10.6404     5.9347   199.4255 </r>
       <r>    10.6814     4.9023   199.6264 </r>
       <r>    10.7223     3.6512   199.7760 </r>
       <r>    10.7633     2.3732   199.8732 </r>
       <r>    10.8043     1.2992   199.9265 </r>
       <r>    10.8453     0.5769   199.9501 </r>
       <r>    10.8862     0.1967   199.9582 </r>
       <r>    10.9272     0.0769   199.9613 </r>
       <r>    10.9682     0.1083   199.9658 </r>
       <r>    11.0092     0.1595   199.9723 </r>
       <r>    11.0501     0.1605   199.9789 </r>
       <r>    11.0911     0.1429   199.9847 </r>
       <r>    11.1321     0.1429   199.9906 </r>
       <r>    11.1731     0.1323   199.9960 </r>
       <r>    11.2140     0.0839   199.9994 </r>
       <r>    11.2550     0.0270   200.0006 </r>
       <r>    11.2960    -0.0026   200.0004 </r>
       <r>    11.3370    -0.0067   200.0002 </r>
       <r>    11.3779    -0.0032   200.0000 </r>
       <r>    11.4189    -0.0009   200.0000 </r>
       <r>    11.4599    -0.0001   200.0000 </r>
       <r>    11.5009    -0.0000   200.0000 </r>
       <r>    11.5418    -0.0000   200.0000 </r>
       <r>    11.5828    -0.0000   200.0000 </r>
       <r>    11.6238    -0.0000   200.0000 </r>
       <r>    11.6648    -0.0000   200.0000 </r>
       <r>    11.7057    -0.0000   200.0000 </r>
       <r>    11.7467    -0.0000   200.0000 </r>
       <r>    11.7877    -0.0000   200.0000 </r>
       <r>    11.8287     0.0000   200.0000 </r>
       <r>    11.8696     0.0000   200.0000 </r>
       <r>    11.9106     0.0000   200.0000 </r>
       <r>    11.9516     0.0000   200.0000 </r>
       <r>    11.9926     0.0000   200.0000 </r>
       <r>    12.0335     0.0000   200.0000 </r>
       <r>    12.0745     0.0000   200.0000 </r>
       <r>    12.1155     0.0000   200.0000 </r>
       <r>    12.1565     0.0000   200.0000 </r>
      </set>
     </set>
    </array>
   </total>
  </dos>
 </calculation>
 <structure name="finalpos" >
  <crystal>
   <varray name="basis" >
    <v>       0.00256000       1.90108000      -1.90847000 </v>
    <v>       9.53465000       0.00804000      -1.87989000 </v>
    <v>       0.02936000      -7.63100000      -7.60584000 </v>
   </varray>
   <i name="volume">    276.58131014 </i>
   <varray name="rec_basis" >
    <v>      -0.05208809       0.26199828      -0.26306604 </v>
    <v>       0.10493422       0.00013219       0.00027244 </v>
    <v>      -0.01286594      -0.06577372      -0.06553629 </v>
   </varray>
  </crystal>
  <varray name="positions" >
   <v>       0.84496600       0.38558800       0.21142400 </v>
   <v>       0.80131200       0.39952600       0.95064300 </v>
   <v>       0.80131200       0.39952600       0.70064300 </v>
   <v>       0.80131200       0.39952600       0.45064300 </v>
   <v>       0.20131200       0.59952600       0.30064300 </v>
   <v>       0.20151200       0.59952600       0.05059300 </v>
   <v>       0.20132000       0.59952000       0.80064500 </v>
   <v>       0.14892600       0.59935800       0.56379900 </v>
   <v>       0.55643200       0.81763600       0.40743050 </v>
   <v>       0.61672400       0.77854200       0.15194100 </v>
   <v>       0.60031400       0.80154200       0.90039600 </v>
   <v>       0.61610600       0.79953800       0.64690650 </v>
   <v>       0.99817000       0.00547000       0.24996250 </v>
   <v>       0.00634800       0.99953400       0.99937950 </v>
   <v>       0.00031400       0.00154200       0.75039600 </v>
   <v>       0.01610600       0.99953800       0.49690650 </v>
   <v>       0.39841400       0.20547200       0.34990100 </v>
   <v>       0.41121600       0.19953800       0.09815650 </v>
   <v>       0.39892600       0.20345800       0.84530150 </v>
   <v>       0.41108400       0.19954200       0.59818850 </v>
  </varray>
 </structure>
</modeling>
