 256 256   0   0
  0.1419206E+02  0.1537080E-08  0.1537218E-08  0.1537636E-08  0.5000000E-15
  1.000000000000000E-004
  CAR 
 Ir_Ru                                   
     12.68547852     -1.29579737  301      9.24213913      1.00000000
     -1.296  0.0000E+00  0.0000E+00
     -1.249  0.0000E+00  0.0000E+00
     -1.203  0.0000E+00  0.0000E+00
     -1.156  0.0000E+00  0.0000E+00
     -1.109 -0.2758E-28 -0.1285E-29
     -1.063 -0.4116E-25 -0.1920E-26
     -1.016 -0.3963E-22 -0.1849E-23
     -0.970 -0.2462E-19 -0.1149E-20
     -0.923 -0.9866E-17 -0.4609E-18
     -0.876 -0.2476E-14 -0.1158E-15
     -0.830 -0.4106E-12 -0.1925E-13
     -0.783 -0.4385E-10 -0.2063E-11
     -0.737 -0.3017E-08 -0.1427E-09
     -0.690 -0.1339E-06 -0.6381E-08
     -0.643 -0.3835E-05 -0.1851E-06
     -0.597 -0.7113E-04 -0.3500E-05
     -0.550 -0.8568E-03 -0.4343E-04
     -0.504 -0.6703E-02 -0.3558E-03
     -0.457 -0.3366E-01 -0.1924E-02
     -0.410 -0.1023E+00 -0.6690E-02
     -0.364 -0.1377E+00 -0.1311E-01
     -0.317  0.2256E+00 -0.2595E-02
     -0.271  0.1514E+01  0.6796E-01
     -0.224  0.3545E+01  0.2332E+00
     -0.177  0.5075E+01  0.4697E+00
     -0.131  0.5740E+01  0.7372E+00
     -0.084  0.7342E+01  0.1079E+01
     -0.037  0.1021E+02  0.1555E+01
      0.009  0.1102E+02  0.2069E+01
      0.056  0.9155E+01  0.2495E+01
      0.102  0.9416E+01  0.2934E+01
      0.149  0.1319E+02  0.3549E+01
      0.196  0.1593E+02  0.4291E+01
      0.242  0.1607E+02  0.5040E+01
      0.289  0.1678E+02  0.5822E+01
      0.335  0.1851E+02  0.6685E+01
      0.382  0.1833E+02  0.7539E+01
      0.429  0.1747E+02  0.8354E+01
      0.475  0.1988E+02  0.9280E+01
      0.522  0.2341E+02  0.1037E+02
      0.568  0.2406E+02  0.1149E+02
      0.615  0.2226E+02  0.1253E+02
      0.662  0.1867E+02  0.1340E+02
      0.708  0.1402E+02  0.1405E+02
      0.755  0.1112E+02  0.1457E+02
      0.801  0.1070E+02  0.1507E+02
      0.848  0.1108E+02  0.1559E+02
      0.895  0.1204E+02  0.1615E+02
      0.941  0.1452E+02  0.1682E+02
      0.988  0.1825E+02  0.1767E+02
      1.034  0.2282E+02  0.1874E+02
      1.081  0.2803E+02  0.2004E+02
      1.128  0.3125E+02  0.2150E+02
      1.174  0.2979E+02  0.2289E+02
      1.221  0.2599E+02  0.2410E+02
      1.267  0.2314E+02  0.2518E+02
      1.314  0.2101E+02  0.2616E+02
      1.361  0.2001E+02  0.2709E+02
      1.407  0.2154E+02  0.2809E+02
      1.454  0.2398E+02  0.2921E+02
      1.500  0.2559E+02  0.3040E+02
      1.547  0.2890E+02  0.3175E+02
      1.594  0.3506E+02  0.3339E+02
      1.640  0.3878E+02  0.3519E+02
      1.687  0.3791E+02  0.3696E+02
      1.733  0.3924E+02  0.3879E+02
      1.780  0.4543E+02  0.4091E+02
      1.827  0.4930E+02  0.4320E+02
      1.873  0.4786E+02  0.4543E+02
      1.920  0.4729E+02  0.4764E+02
      1.967  0.5078E+02  0.5000E+02
      2.013  0.5395E+02  0.5252E+02
      2.060  0.5548E+02  0.5510E+02
      2.106  0.6155E+02  0.5797E+02
      2.153  0.7475E+02  0.6146E+02
      2.200  0.8947E+02  0.6563E+02
      2.246  0.1031E+03  0.7043E+02
      2.293  0.1178E+03  0.7592E+02
      2.339  0.1310E+03  0.8203E+02
      2.386  0.1382E+03  0.8847E+02
      2.433  0.1432E+03  0.9514E+02
      2.479  0.1523E+03  0.1022E+03
      2.526  0.1610E+03  0.1097E+03
      2.572  0.1618E+03  0.1173E+03
      2.619  0.1615E+03  0.1248E+03
      2.666  0.1691E+03  0.1327E+03
      2.712  0.1785E+03  0.1410E+03
      2.759  0.1846E+03  0.1496E+03
      2.805  0.1975E+03  0.1588E+03
      2.852  0.2226E+03  0.1692E+03
      2.899  0.2473E+03  0.1807E+03
      2.945  0.2562E+03  0.1927E+03
      2.992  0.2497E+03  0.2043E+03
      3.038  0.2467E+03  0.2158E+03
      3.085  0.2619E+03  0.2280E+03
      3.132  0.2862E+03  0.2413E+03
      3.178  0.3010E+03  0.2554E+03
      3.225  0.3037E+03  0.2695E+03
      3.271  0.3049E+03  0.2837E+03
      3.318  0.3083E+03  0.2981E+03
      3.365  0.3108E+03  0.3126E+03
      3.411  0.3138E+03  0.3272E+03
      3.458  0.3209E+03  0.3422E+03
      3.504  0.3326E+03  0.3577E+03
      3.551  0.3436E+03  0.3737E+03
      3.598  0.3468E+03  0.3898E+03
      3.644  0.3448E+03  0.4059E+03
      3.691  0.3484E+03  0.4221E+03
      3.737  0.3574E+03  0.4388E+03
      3.784  0.3593E+03  0.4555E+03
      3.831  0.3524E+03  0.4720E+03
      3.877  0.3478E+03  0.4882E+03
      3.924  0.3496E+03  0.5045E+03
      3.970  0.3506E+03  0.5208E+03
      4.017  0.3416E+03  0.5367E+03
      4.064  0.3231E+03  0.5518E+03
      4.110  0.3070E+03  0.5661E+03
      4.157  0.2977E+03  0.5800E+03
      4.204  0.2875E+03  0.5934E+03
      4.250  0.2714E+03  0.6060E+03
      4.297  0.2539E+03  0.6179E+03
      4.343  0.2428E+03  0.6292E+03
      4.390  0.2451E+03  0.6406E+03
      4.437  0.2575E+03  0.6526E+03
      4.483  0.2619E+03  0.6648E+03
      4.530  0.2511E+03  0.6765E+03
      4.576  0.2477E+03  0.6880E+03
      4.623  0.2669E+03  0.7005E+03
      4.670  0.2918E+03  0.7141E+03
      4.716  0.3067E+03  0.7284E+03
      4.763  0.3135E+03  0.7430E+03
      4.809  0.3134E+03  0.7576E+03
      4.856  0.3049E+03  0.7718E+03
      4.903  0.2903E+03  0.7853E+03
      4.949  0.2786E+03  0.7983E+03
      4.996  0.2811E+03  0.8114E+03
      5.042  0.2950E+03  0.8252E+03
      5.089  0.3076E+03  0.8395E+03
      5.136  0.3091E+03  0.8539E+03
      5.182  0.2978E+03  0.8678E+03
      5.229  0.2858E+03  0.8811E+03
      5.275  0.2846E+03  0.8944E+03
      5.322  0.2905E+03  0.9079E+03
      5.369  0.2975E+03  0.9218E+03
      5.415  0.3019E+03  0.9358E+03
      5.462  0.2987E+03  0.9498E+03
      5.508  0.2889E+03  0.9632E+03
      5.555  0.2868E+03  0.9766E+03
      5.602  0.3027E+03  0.9907E+03
      5.648  0.3215E+03  0.1006E+04
      5.695  0.3253E+03  0.1021E+04
      5.741  0.3203E+03  0.1036E+04
      5.788  0.3200E+03  0.1051E+04
      5.835  0.3262E+03  0.1066E+04
      5.881  0.3365E+03  0.1082E+04
      5.928  0.3499E+03  0.1098E+04
      5.974  0.3652E+03  0.1115E+04
      6.021  0.3790E+03  0.1133E+04
      6.068  0.3857E+03  0.1151E+04
      6.114  0.3876E+03  0.1169E+04
      6.161  0.3916E+03  0.1187E+04
      6.207  0.3986E+03  0.1205E+04
      6.254  0.4096E+03  0.1225E+04
      6.301  0.4273E+03  0.1244E+04
      6.347  0.4465E+03  0.1265E+04
      6.394  0.4573E+03  0.1287E+04
      6.441  0.4570E+03  0.1308E+04
      6.487  0.4530E+03  0.1329E+04
      6.534  0.4499E+03  0.1350E+04
      6.580  0.4455E+03  0.1371E+04
      6.627  0.4390E+03  0.1391E+04
      6.674  0.4315E+03  0.1411E+04
      6.720  0.4245E+03  0.1431E+04
      6.767  0.4168E+03  0.1450E+04
      6.813  0.4015E+03  0.1469E+04
      6.860  0.3767E+03  0.1487E+04
      6.907  0.3543E+03  0.1503E+04
      6.953  0.3443E+03  0.1519E+04
      7.000  0.3394E+03  0.1535E+04
      7.046  0.3278E+03  0.1550E+04
      7.093  0.3149E+03  0.1565E+04
      7.140  0.3135E+03  0.1580E+04
      7.186  0.3193E+03  0.1595E+04
      7.233  0.3135E+03  0.1609E+04
      7.279  0.2877E+03  0.1623E+04
      7.326  0.2561E+03  0.1634E+04
      7.373  0.2402E+03  0.1646E+04
      7.419  0.2486E+03  0.1657E+04
      7.466  0.2711E+03  0.1670E+04
      7.512  0.2847E+03  0.1683E+04
      7.559  0.2766E+03  0.1696E+04
      7.606  0.2586E+03  0.1708E+04
      7.652  0.2482E+03  0.1720E+04
      7.699  0.2570E+03  0.1732E+04
      7.745  0.2828E+03  0.1745E+04
      7.792  0.3056E+03  0.1759E+04
      7.839  0.3122E+03  0.1774E+04
      7.885  0.3089E+03  0.1788E+04
      7.932  0.3030E+03  0.1802E+04
      7.978  0.2960E+03  0.1816E+04
      8.025  0.2910E+03  0.1830E+04
      8.072  0.2958E+03  0.1843E+04
      8.118  0.3093E+03  0.1858E+04
      8.165  0.3172E+03  0.1872E+04
      8.211  0.3178E+03  0.1887E+04
      8.258  0.3298E+03  0.1903E+04
      8.305  0.3535E+03  0.1919E+04
      8.351  0.3622E+03  0.1936E+04
      8.398  0.3399E+03  0.1952E+04
      8.444  0.3002E+03  0.1966E+04
      8.491  0.2670E+03  0.1978E+04
      8.538  0.2557E+03  0.1990E+04
      8.584  0.2709E+03  0.2003E+04
      8.631  0.2957E+03  0.2017E+04
      8.678  0.3005E+03  0.2031E+04
      8.724  0.2842E+03  0.2044E+04
      8.771  0.2675E+03  0.2056E+04
      8.817  0.2568E+03  0.2068E+04
      8.864  0.2489E+03  0.2080E+04
      8.911  0.2449E+03  0.2091E+04
      8.957  0.2452E+03  0.2103E+04
      9.004  0.2534E+03  0.2115E+04
      9.050  0.2734E+03  0.2127E+04
      9.097  0.2841E+03  0.2141E+04
      9.144  0.2661E+03  0.2153E+04
      9.190  0.2408E+03  0.2164E+04
      9.237  0.2283E+03  0.2175E+04
      9.283  0.2199E+03  0.2185E+04
      9.330  0.2138E+03  0.2195E+04
      9.377  0.2218E+03  0.2205E+04
      9.423  0.2424E+03  0.2217E+04
      9.470  0.2622E+03  0.2229E+04
      9.516  0.2735E+03  0.2242E+04
      9.563  0.2773E+03  0.2255E+04
      9.610  0.2762E+03  0.2267E+04
      9.656  0.2709E+03  0.2280E+04
      9.703  0.2610E+03  0.2292E+04
      9.749  0.2439E+03  0.2304E+04
      9.796  0.2243E+03  0.2314E+04
      9.843  0.2194E+03  0.2324E+04
      9.889  0.2365E+03  0.2335E+04
      9.936  0.2642E+03  0.2348E+04
      9.982  0.2953E+03  0.2361E+04
     10.029  0.3274E+03  0.2377E+04
     10.076  0.3491E+03  0.2393E+04
     10.122  0.3464E+03  0.2409E+04
     10.169  0.3240E+03  0.2424E+04
     10.215  0.3102E+03  0.2439E+04
     10.262  0.3291E+03  0.2454E+04
     10.309  0.3872E+03  0.2472E+04
     10.355  0.4666E+03  0.2494E+04
     10.402  0.5187E+03  0.2518E+04
     10.448  0.5091E+03  0.2542E+04
     10.495  0.4504E+03  0.2563E+04
     10.542  0.3738E+03  0.2580E+04
     10.588  0.3019E+03  0.2594E+04
     10.635  0.2479E+03  0.2606E+04
     10.681  0.2122E+03  0.2616E+04
     10.728  0.1808E+03  0.2624E+04
     10.775  0.1420E+03  0.2631E+04
     10.821  0.9714E+02  0.2635E+04
     10.868  0.5628E+02  0.2638E+04
     10.915  0.2725E+02  0.2639E+04
     10.961  0.1053E+02  0.2639E+04
     11.008  0.3104E+01  0.2640E+04
     11.054  0.1401E+01  0.2640E+04
     11.101  0.1736E+01  0.2640E+04
     11.148  0.1570E+01  0.2640E+04
     11.194  0.6687E+00  0.2640E+04
     11.241  0.1021E-01  0.2640E+04
     11.287 -0.1124E+00  0.2640E+04
     11.334 -0.4969E-01  0.2640E+04
     11.381 -0.1076E-01  0.2640E+04
     11.427 -0.3416E-02  0.2640E+04
     11.474 -0.1323E-01  0.2640E+04
     11.520 -0.4251E-01  0.2640E+04
     11.567 -0.3537E-01  0.2640E+04
     11.614  0.2019E+00  0.2640E+04
     11.660  0.7185E+00  0.2640E+04
     11.707  0.1026E+01  0.2640E+04
     11.753  0.7196E+00  0.2640E+04
     11.800  0.2027E+00  0.2640E+04
     11.847 -0.3520E-01  0.2640E+04
     11.893 -0.4257E-01  0.2640E+04
     11.940 -0.1318E-01  0.2640E+04
     11.986 -0.2130E-02  0.2640E+04
     12.033 -0.2021E-03  0.2640E+04
     12.080 -0.1174E-04  0.2640E+04
     12.126 -0.4266E-06  0.2640E+04
     12.173 -0.9797E-08  0.2640E+04
     12.219 -0.1432E-09  0.2640E+04
     12.266 -0.1338E-11  0.2640E+04
     12.313 -0.8040E-14  0.2640E+04
     12.359  0.0000E+00  0.2640E+04
     12.406  0.0000E+00  0.2640E+04
     12.452  0.0000E+00  0.2640E+04
     12.499  0.0000E+00  0.2640E+04
     12.546  0.0000E+00  0.2640E+04
     12.592  0.0000E+00  0.2640E+04
     12.639  0.0000E+00  0.2640E+04
     12.685  0.0000E+00  0.2640E+04
