       N       E                     dE             d eps       ncg     rms          rms(c)
DAV:   1     0.112829982865E+05    0.11283E+05   -0.55466E+05 95400   0.810E+02
DAV:   2    -0.143892093097E+04   -0.12722E+05   -0.12145E+05 95800   0.337E+02
DAV:   3    -0.241081582869E+04   -0.97189E+03   -0.89386E+03135240   0.780E+01
DAV:   4    -0.248227468603E+04   -0.71459E+02   -0.69034E+02132060   0.209E+01
DAV:   5    -0.248512333286E+04   -0.28486E+01   -0.27927E+01139760   0.332E+00    0.779E+01
RMM:   6    -0.241648882851E+04    0.68635E+02   -0.68108E+02105927   0.245E+01    0.623E+01
RMM:   7    -0.236999725334E+04    0.46492E+02   -0.35245E+02 97795   0.172E+01    0.455E+01
RMM:   8    -0.233986311047E+04    0.30134E+02   -0.15707E+02 97694   0.114E+01    0.321E+01
RMM:   9    -0.231563362222E+04    0.24229E+02   -0.34492E+01 98712   0.532E+00    0.621E+00
RMM:  10    -0.231544283086E+04    0.19079E+00   -0.73707E+00136615   0.152E+00    0.357E+00
RMM:  11    -0.231533599302E+04    0.10684E+00   -0.13340E+00121750   0.751E-01    0.400E+00
RMM:  12    -0.231489317377E+04    0.44282E+00   -0.54557E-01114354   0.633E-01    0.204E+00
RMM:  13    -0.231477738806E+04    0.11579E+00   -0.25526E-01112056   0.438E-01    0.133E+00
RMM:  14    -0.231476702353E+04    0.10365E-01   -0.15763E-01114437   0.312E-01    0.157E+00
RMM:  15    -0.231472864327E+04    0.38380E-01   -0.55392E-02119873   0.149E-01    0.973E-01
RMM:  16    -0.231471417583E+04    0.14467E-01   -0.21984E-02111391   0.121E-01    0.467E-01
RMM:  17    -0.231471200743E+04    0.21684E-02   -0.13147E-02123347   0.773E-02    0.274E-01
RMM:  18    -0.231471182874E+04    0.17869E-03   -0.79779E-03131058   0.555E-02    0.210E-01
RMM:  19    -0.231471198870E+04   -0.15996E-03   -0.30358E-03128938   0.343E-02    0.214E-01
RMM:  20    -0.231471135219E+04    0.63651E-03   -0.57453E-04112485   0.185E-02    0.137E-01
RMM:  21    -0.231471095154E+04    0.40065E-03   -0.89561E-04117775   0.221E-02    0.438E-02
RMM:  22    -0.231471091355E+04    0.37997E-04   -0.30660E-04135043   0.106E-02
   1 F= -.23147109E+04 E0= -.23147185E+04  d E =0.228981E-01
