 216 216   0   0
  0.1398160E+02  0.1605843E-08  0.1605843E-08  0.1605848E-08  0.5000000E-15
  1.000000000000000E-004
  CAR 
 Ir_Ru                                   
     13.96867596     -0.68756863  301      9.13294790      1.00000000
     -0.688  0.0000E+00  0.0000E+00
     -0.639  0.0000E+00  0.0000E+00
     -0.590  0.0000E+00  0.0000E+00
     -0.541  0.0000E+00  0.0000E+00
     -0.492 -0.1116E-27 -0.5452E-29
     -0.443 -0.2142E-24 -0.1047E-25
     -0.394 -0.2540E-21 -0.1242E-22
     -0.346 -0.1860E-18 -0.9101E-20
     -0.297 -0.8404E-16 -0.4115E-17
     -0.248 -0.2266E-13 -0.1111E-14
     -0.199 -0.3862E-11 -0.1898E-12
     -0.150 -0.4039E-09 -0.1992E-10
     -0.101 -0.2588E-07 -0.1284E-08
     -0.052 -0.1014E-05 -0.5083E-07
     -0.004 -0.2432E-04 -0.1239E-05
      0.045 -0.3583E-03 -0.1874E-04
      0.094 -0.3283E-02 -0.1791E-03
      0.143 -0.1903E-01 -0.1109E-02
      0.192 -0.6871E-01 -0.4465E-02
      0.241 -0.1212E+00 -0.1039E-01
      0.290  0.1357E+00 -0.3758E-02
      0.338  0.1258E+01  0.5768E-01
      0.387  0.2871E+01  0.1980E+00
      0.436  0.3643E+01  0.3759E+00
      0.485  0.4296E+01  0.5858E+00
      0.534  0.6718E+01  0.9140E+00
      0.583  0.8865E+01  0.1347E+01
      0.631  0.7266E+01  0.1702E+01
      0.680  0.4915E+01  0.1942E+01
      0.729  0.7351E+01  0.2301E+01
      0.778  0.1191E+02  0.2883E+01
      0.827  0.1276E+02  0.3506E+01
      0.876  0.1168E+02  0.4077E+01
      0.925  0.1120E+02  0.4624E+01
      0.973  0.8927E+01  0.5060E+01
      1.022  0.7289E+01  0.5416E+01
      1.071  0.1240E+02  0.6022E+01
      1.120  0.1968E+02  0.6984E+01
      1.169  0.1964E+02  0.7943E+01
      1.218  0.1568E+02  0.8709E+01
      1.267  0.1434E+02  0.9410E+01
      1.315  0.1269E+02  0.1003E+02
      1.364  0.1084E+02  0.1056E+02
      1.413  0.1440E+02  0.1126E+02
      1.462  0.2142E+02  0.1231E+02
      1.511  0.2643E+02  0.1360E+02
      1.560  0.2744E+02  0.1494E+02
      1.609  0.2270E+02  0.1605E+02
      1.657  0.1660E+02  0.1686E+02
      1.706  0.1646E+02  0.1767E+02
      1.755  0.1989E+02  0.1864E+02
      1.804  0.2324E+02  0.1977E+02
      1.853  0.2850E+02  0.2117E+02
      1.902  0.3491E+02  0.2287E+02
      1.951  0.3983E+02  0.2482E+02
      1.999  0.3967E+02  0.2675E+02
      2.048  0.3171E+02  0.2830E+02
      2.097  0.2427E+02  0.2949E+02
      2.146  0.2743E+02  0.3083E+02
      2.195  0.3905E+02  0.3274E+02
      2.244  0.5161E+02  0.3526E+02
      2.293  0.5900E+02  0.3814E+02
      2.341  0.5904E+02  0.4103E+02
      2.390  0.5841E+02  0.4388E+02
      2.439  0.6586E+02  0.4710E+02
      2.488  0.8143E+02  0.5107E+02
      2.537  0.1049E+03  0.5620E+02
      2.586  0.1373E+03  0.6291E+02
      2.635  0.1696E+03  0.7120E+02
      2.683  0.1943E+03  0.8069E+02
      2.732  0.2125E+03  0.9107E+02
      2.781  0.2206E+03  0.1018E+03
      2.830  0.2184E+03  0.1125E+03
      2.879  0.2115E+03  0.1229E+03
      2.928  0.2067E+03  0.1330E+03
      2.976  0.2072E+03  0.1431E+03
      3.025  0.2098E+03  0.1533E+03
      3.074  0.2128E+03  0.1637E+03
      3.123  0.2161E+03  0.1743E+03
      3.172  0.2238E+03  0.1852E+03
      3.221  0.2430E+03  0.1971E+03
      3.270  0.2754E+03  0.2105E+03
      3.318  0.3100E+03  0.2257E+03
      3.367  0.3308E+03  0.2418E+03
      3.416  0.3370E+03  0.2583E+03
      3.465  0.3349E+03  0.2747E+03
      3.514  0.3259E+03  0.2906E+03
      3.563  0.3106E+03  0.3058E+03
      3.612  0.2954E+03  0.3202E+03
      3.660  0.2831E+03  0.3340E+03
      3.709  0.2682E+03  0.3471E+03
      3.758  0.2657E+03  0.3601E+03
      3.807  0.2807E+03  0.3738E+03
      3.856  0.2761E+03  0.3873E+03
      3.905  0.2432E+03  0.3992E+03
      3.954  0.2231E+03  0.4101E+03
      4.002  0.2246E+03  0.4211E+03
      4.051  0.2197E+03  0.4318E+03
      4.100  0.2109E+03  0.4421E+03
      4.149  0.2234E+03  0.4530E+03
      4.198  0.2628E+03  0.4659E+03
      4.247  0.3134E+03  0.4812E+03
      4.296  0.3449E+03  0.4980E+03
      4.344  0.3387E+03  0.5146E+03
      4.393  0.3105E+03  0.5297E+03
      4.442  0.2811E+03  0.5435E+03
      4.491  0.2647E+03  0.5564E+03
      4.540  0.2690E+03  0.5695E+03
      4.589  0.2700E+03  0.5827E+03
      4.638  0.2464E+03  0.5948E+03
      4.686  0.2189E+03  0.6055E+03
      4.735  0.2142E+03  0.6159E+03
      4.784  0.2396E+03  0.6276E+03
      4.833  0.2855E+03  0.6416E+03
      4.882  0.3204E+03  0.6572E+03
      4.931  0.3188E+03  0.6728E+03
      4.980  0.2960E+03  0.6873E+03
      5.028  0.2842E+03  0.7012E+03
      5.077  0.2971E+03  0.7157E+03
      5.126  0.3148E+03  0.7311E+03
      5.175  0.3036E+03  0.7459E+03
      5.224  0.2582E+03  0.7585E+03
      5.273  0.2129E+03  0.7689E+03
      5.321  0.1966E+03  0.7785E+03
      5.370  0.1970E+03  0.7881E+03
      5.419  0.1946E+03  0.7976E+03
      5.468  0.1860E+03  0.8067E+03
      5.517  0.1743E+03  0.8152E+03
      5.566  0.1704E+03  0.8236E+03
      5.615  0.1884E+03  0.8328E+03
      5.663  0.2205E+03  0.8435E+03
      5.712  0.2445E+03  0.8555E+03
      5.761  0.2642E+03  0.8684E+03
      5.810  0.2942E+03  0.8828E+03
      5.859  0.3256E+03  0.8987E+03
      5.908  0.3447E+03  0.9155E+03
      5.957  0.3574E+03  0.9330E+03
      6.005  0.3684E+03  0.9510E+03
      6.054  0.3648E+03  0.9688E+03
      6.103  0.3536E+03  0.9861E+03
      6.152  0.3579E+03  0.1004E+04
      6.201  0.3619E+03  0.1021E+04
      6.250  0.3393E+03  0.1038E+04
      6.299  0.3101E+03  0.1053E+04
      6.347  0.3074E+03  0.1068E+04
      6.396  0.3307E+03  0.1084E+04
      6.445  0.3536E+03  0.1101E+04
      6.494  0.3562E+03  0.1119E+04
      6.543  0.3477E+03  0.1136E+04
      6.592  0.3460E+03  0.1153E+04
      6.641  0.3512E+03  0.1170E+04
      6.689  0.3602E+03  0.1187E+04
      6.738  0.3678E+03  0.1205E+04
      6.787  0.3641E+03  0.1223E+04
      6.836  0.3501E+03  0.1240E+04
      6.885  0.3336E+03  0.1257E+04
      6.934  0.3237E+03  0.1272E+04
      6.983  0.3233E+03  0.1288E+04
      7.031  0.3209E+03  0.1304E+04
      7.080  0.3129E+03  0.1319E+04
      7.129  0.3197E+03  0.1335E+04
      7.178  0.3407E+03  0.1351E+04
      7.227  0.3434E+03  0.1368E+04
      7.276  0.3195E+03  0.1384E+04
      7.325  0.3012E+03  0.1399E+04
      7.373  0.3116E+03  0.1414E+04
      7.422  0.3295E+03  0.1430E+04
      7.471  0.3284E+03  0.1446E+04
      7.520  0.3244E+03  0.1462E+04
      7.569  0.3273E+03  0.1478E+04
      7.618  0.3091E+03  0.1493E+04
      7.666  0.2626E+03  0.1506E+04
      7.715  0.2115E+03  0.1516E+04
      7.764  0.1813E+03  0.1525E+04
      7.813  0.1859E+03  0.1534E+04
      7.862  0.2157E+03  0.1544E+04
      7.911  0.2414E+03  0.1556E+04
      7.960  0.2364E+03  0.1568E+04
      8.008  0.2063E+03  0.1578E+04
      8.057  0.1847E+03  0.1587E+04
      8.106  0.1897E+03  0.1596E+04
      8.155  0.2107E+03  0.1606E+04
      8.204  0.2274E+03  0.1618E+04
      8.253  0.2228E+03  0.1628E+04
      8.302  0.1944E+03  0.1638E+04
      8.350  0.1737E+03  0.1646E+04
      8.399  0.1856E+03  0.1656E+04
      8.448  0.2033E+03  0.1665E+04
      8.497  0.1970E+03  0.1675E+04
      8.546  0.1696E+03  0.1683E+04
      8.595  0.1354E+03  0.1690E+04
      8.644  0.1177E+03  0.1696E+04
      8.692  0.1319E+03  0.1702E+04
      8.741  0.1667E+03  0.1710E+04
      8.790  0.2029E+03  0.1720E+04
      8.839  0.2281E+03  0.1731E+04
      8.888  0.2330E+03  0.1743E+04
      8.937  0.2086E+03  0.1753E+04
      8.986  0.1657E+03  0.1761E+04
      9.034  0.1378E+03  0.1768E+04
      9.083  0.1379E+03  0.1775E+04
      9.132  0.1506E+03  0.1782E+04
      9.181  0.1668E+03  0.1790E+04
      9.230  0.1850E+03  0.1799E+04
      9.279  0.1970E+03  0.1809E+04
      9.328  0.2045E+03  0.1819E+04
      9.376  0.2252E+03  0.1830E+04
      9.425  0.2504E+03  0.1842E+04
      9.474  0.2478E+03  0.1854E+04
      9.523  0.2223E+03  0.1865E+04
      9.572  0.2067E+03  0.1875E+04
      9.621  0.2215E+03  0.1886E+04
      9.670  0.2571E+03  0.1898E+04
      9.718  0.2858E+03  0.1912E+04
      9.767  0.2995E+03  0.1927E+04
      9.816  0.3074E+03  0.1942E+04
      9.865  0.3087E+03  0.1957E+04
      9.914  0.2933E+03  0.1971E+04
      9.963  0.2795E+03  0.1985E+04
     10.011  0.3083E+03  0.2000E+04
     10.060  0.3730E+03  0.2018E+04
     10.109  0.4152E+03  0.2039E+04
     10.158  0.4117E+03  0.2059E+04
     10.207  0.3971E+03  0.2078E+04
     10.256  0.3935E+03  0.2097E+04
     10.305  0.3825E+03  0.2116E+04
     10.353  0.3478E+03  0.2133E+04
     10.402  0.2983E+03  0.2148E+04
     10.451  0.2416E+03  0.2159E+04
     10.500  0.1738E+03  0.2168E+04
     10.549  0.9968E+02  0.2173E+04
     10.598  0.3904E+02  0.2175E+04
     10.647  0.6897E+01  0.2175E+04
     10.695 -0.1897E+01  0.2175E+04
     10.744 -0.1645E+01  0.2175E+04
     10.793 -0.5827E+00  0.2175E+04
     10.842 -0.1811E+00  0.2175E+04
     10.891 -0.6065E-01  0.2175E+04
     10.940 -0.1616E-01  0.2175E+04
     10.989 -0.2765E-02  0.2175E+04
     11.037 -0.2885E-03  0.2175E+04
     11.086 -0.1826E-04  0.2175E+04
     11.135 -0.7045E-06  0.2175E+04
     11.184 -0.1662E-07  0.2175E+04
     11.233 -0.2404E-09  0.2175E+04
     11.282 -0.2138E-11  0.2175E+04
     11.331 -0.1179E-13  0.2175E+04
     11.379 -0.5723E-27  0.2175E+04
     11.428 -0.1036E-23  0.2175E+04
     11.477 -0.1159E-20  0.2175E+04
     11.526 -0.8005E-18  0.2175E+04
     11.575 -0.3409E-15  0.2175E+04
     11.624 -0.8659E-13  0.2175E+04
     11.673 -0.1387E-10  0.2175E+04
     11.721 -0.1362E-08  0.2175E+04
     11.770 -0.8148E-07  0.2175E+04
     11.819 -0.2952E-05  0.2175E+04
     11.868 -0.6407E-04  0.2175E+04
     11.917 -0.8159E-03  0.2175E+04
     11.966 -0.5843E-02  0.2175E+04
     12.015 -0.2095E-01  0.2175E+04
     12.063 -0.1906E-01  0.2175E+04
     12.112  0.1008E+00  0.2175E+04
     12.161  0.3423E+00  0.2175E+04
     12.210  0.4532E+00  0.2175E+04
     12.259  0.4371E+00  0.2175E+04
     12.308  0.7926E+00  0.2175E+04
     12.356  0.1721E+01  0.2175E+04
     12.405  0.2724E+01  0.2175E+04
     12.454  0.3012E+01  0.2175E+04
     12.503  0.2354E+01  0.2175E+04
     12.552  0.1514E+01  0.2175E+04
     12.601  0.1245E+01  0.2175E+04
     12.650  0.1304E+01  0.2176E+04
     12.698  0.1171E+01  0.2176E+04
     12.747  0.1035E+01  0.2176E+04
     12.796  0.1077E+01  0.2176E+04
     12.845  0.1057E+01  0.2176E+04
     12.894  0.1124E+01  0.2176E+04
     12.943  0.1437E+01  0.2176E+04
     12.992  0.1391E+01  0.2176E+04
     13.040  0.7177E+00  0.2176E+04
     13.089  0.1015E+00  0.2176E+04
     13.138 -0.7056E-01  0.2176E+04
     13.187 -0.3875E-01  0.2176E+04
     13.236 -0.8513E-02  0.2176E+04
     13.285 -0.1007E-02  0.2176E+04
     13.334 -0.6898E-04  0.2176E+04
     13.382 -0.2822E-05  0.2176E+04
     13.431 -0.6994E-07  0.2176E+04
     13.480 -0.1058E-08  0.2176E+04
     13.529 -0.9824E-11  0.2176E+04
     13.578 -0.5596E-13  0.2176E+04
     13.627 -0.2841E-15  0.2176E+04
     13.676  0.0000E+00  0.2176E+04
     13.724  0.0000E+00  0.2176E+04
     13.773  0.0000E+00  0.2176E+04
     13.822  0.0000E+00  0.2176E+04
     13.871  0.0000E+00  0.2176E+04
     13.920  0.0000E+00  0.2176E+04
     13.969  0.0000E+00  0.2176E+04
