<?xml version="1.0" encoding="ISO-8859-1"?>
<modeling>
 <generator>
  <i name="program" type="string">vasp </i>
  <i name="version" type="string">5.4.1  </i>
  <i name="subversion" type="string">24Jun15 (build Dec 12 2017 15:24:27) complex                          parallel </i>
  <i name="platform" type="string">IFC91_ompi </i>
  <i name="date" type="string">2020 04 03 </i>
  <i name="time" type="string">20:03:45 </i>
 </generator>
 <incar>
  <i type="string" name="SYSTEM"> Ir_Ru</i>
  <i type="int" name="ISTART">     0</i>
  <i type="string" name="PREC">accurate</i>
  <i type="string" name="ALGO"> Very_Fast</i>
  <i type="int" name="ICHARG">     2</i>
  <i type="int" name="NELMIN">     5</i>
  <i type="int" name="IBRION">    -1</i>
  <i name="EDIFFG">      0.00001000</i>
  <i type="int" name="ISIF">     2</i>
  <i type="string" name="LREAL"> AUTO</i>
  <i type="int" name="ISMEAR">     1</i>
  <i name="SIGMA">      0.10000000</i>
  <v type="int" name="KPOINT_BSE">    -1     0     0     0</v>
 </incar>
 <kpoints>
  <generation param="Gamma">
   <v type="int" name="divisions">       4        4        4 </v>
   <v name="usershift">      0.00000000       0.00000000       0.00000000 </v>
   <v name="genvec1">      0.25000000       0.00000000       0.00000000 </v>
   <v name="genvec2">      0.00000000       0.25000000       0.00000000 </v>
   <v name="genvec3">      0.00000000       0.00000000       0.25000000 </v>
   <v name="shift">      0.00000000       0.00000000       0.00000000 </v>
  </generation>
  <varray name="kpointlist" >
   <v>       0.00000000       0.00000000       0.00000000 </v>
   <v>       0.25000000       0.00000000       0.00000000 </v>
   <v>       0.50000000       0.00000000       0.00000000 </v>
   <v>      -0.00000000       0.25000000       0.00000000 </v>
   <v>       0.25000000       0.25000000       0.00000000 </v>
   <v>       0.50000000       0.25000000       0.00000000 </v>
   <v>      -0.25000000       0.25000000       0.00000000 </v>
   <v>      -0.00000000       0.50000000       0.00000000 </v>
   <v>       0.25000000       0.50000000       0.00000000 </v>
   <v>       0.50000000       0.50000000       0.00000000 </v>
   <v>       0.00000000      -0.00000000       0.25000000 </v>
   <v>       0.25000000      -0.00000000       0.25000000 </v>
   <v>       0.50000000       0.00000000       0.25000000 </v>
   <v>      -0.25000000       0.00000000       0.25000000 </v>
   <v>       0.00000000       0.25000000       0.25000000 </v>
   <v>       0.25000000       0.25000000       0.25000000 </v>
   <v>       0.50000000       0.25000000       0.25000000 </v>
   <v>      -0.25000000       0.25000000       0.25000000 </v>
   <v>      -0.00000000       0.50000000       0.25000000 </v>
   <v>       0.25000000       0.50000000       0.25000000 </v>
   <v>       0.50000000       0.50000000       0.25000000 </v>
   <v>      -0.25000000       0.50000000       0.25000000 </v>
   <v>       0.00000000      -0.25000000       0.25000000 </v>
   <v>       0.25000000      -0.25000000       0.25000000 </v>
   <v>       0.50000000      -0.25000000       0.25000000 </v>
   <v>      -0.25000000      -0.25000000       0.25000000 </v>
   <v>       0.00000000      -0.00000000       0.50000000 </v>
   <v>       0.25000000       0.00000000       0.50000000 </v>
   <v>       0.50000000      -0.00000000       0.50000000 </v>
   <v>       0.00000000       0.25000000       0.50000000 </v>
   <v>       0.25000000       0.25000000       0.50000000 </v>
   <v>       0.50000000       0.25000000       0.50000000 </v>
   <v>      -0.25000000       0.25000000       0.50000000 </v>
   <v>       0.00000000       0.50000000       0.50000000 </v>
   <v>       0.25000000       0.50000000       0.50000000 </v>
   <v>       0.50000000       0.50000000       0.50000000 </v>
  </varray>
  <varray name="weights" >
   <v>       0.01562500 </v>
   <v>       0.03125000 </v>
   <v>       0.01562500 </v>
   <v>       0.03125000 </v>
   <v>       0.03125000 </v>
   <v>       0.03125000 </v>
   <v>       0.03125000 </v>
   <v>       0.01562500 </v>
   <v>       0.03125000 </v>
   <v>       0.01562500 </v>
   <v>       0.03125000 </v>
   <v>       0.03125000 </v>
   <v>       0.03125000 </v>
   <v>       0.03125000 </v>
   <v>       0.03125000 </v>
   <v>       0.03125000 </v>
   <v>       0.03125000 </v>
   <v>       0.03125000 </v>
   <v>       0.03125000 </v>
   <v>       0.03125000 </v>
   <v>       0.03125000 </v>
   <v>       0.03125000 </v>
   <v>       0.03125000 </v>
   <v>       0.03125000 </v>
   <v>       0.03125000 </v>
   <v>       0.03125000 </v>
   <v>       0.01562500 </v>
   <v>       0.03125000 </v>
   <v>       0.01562500 </v>
   <v>       0.03125000 </v>
   <v>       0.03125000 </v>
   <v>       0.03125000 </v>
   <v>       0.03125000 </v>
   <v>       0.01562500 </v>
   <v>       0.03125000 </v>
   <v>       0.01562500 </v>
  </varray>
 </kpoints>
 <parameters>
  <separator name="general" >
   <i type="string" name="SYSTEM">Ir_Ru</i>
   <i type="logical" name="LCOMPAT"> F  </i>
  </separator>
  <separator name="electronic" >
   <i type="string" name="PREC">accura</i>
   <i name="ENMAX">    213.27600000</i>
   <i name="ENAUG">    333.49400000</i>
   <i name="EDIFF">      0.00010000</i>
   <i type="int" name="IALGO">    48</i>
   <i type="int" name="IWAVPR">    10</i>
   <i type="int" name="NBANDS">  1088</i>
   <i name="NELECT">   1782.00000000</i>
   <i type="int" name="TURBO">     0</i>
   <i type="int" name="IRESTART">     0</i>
   <i type="int" name="NREBOOT">     0</i>
   <i type="int" name="NMIN">     0</i>
   <i name="EREF">      0.00000000</i>
   <separator name="electronic smearing" >
    <i type="int" name="ISMEAR">     1</i>
    <i name="SIGMA">      0.10000000</i>
    <i name="KSPACING">      0.50000000</i>
    <i type="logical" name="KGAMMA"> T  </i>
   </separator>
   <separator name="electronic projectors" >
    <i type="logical" name="LREAL"> T  </i>
    <v name="ROPT">     -0.00025000     -0.00025000</v>
    <i type="int" name="LMAXPAW">  -100</i>
    <i type="int" name="LMAXMIX">     2</i>
    <i type="logical" name="NLSPLINE"> F  </i>
   </separator>
   <separator name="electronic startup" >
    <i type="int" name="ISTART">     0</i>
    <i type="int" name="ICHARG">     2</i>
    <i type="int" name="INIWAV">     1</i>
   </separator>
   <separator name="electronic spin" >
    <i type="int" name="ISPIN">     1</i>
    <i type="logical" name="LNONCOLLINEAR"> F  </i>
    <v name="MAGMOM">      1.00000000      1.00000000      1.00000000      1.00000000      1.00000000      1.00000000      1.00000000      1.00000000      1.00000000      1.00000000      1.00000000      1.00000000      1.00000000      1.00000000      1.00000000      1.00000000      1.00000000      1.00000000      1.00000000      1.00000000
      1.00000000      1.00000000      1.00000000      1.00000000      1.00000000      1.00000000      1.00000000      1.00000000      1.00000000      1.00000000      1.00000000      1.00000000      1.00000000      1.00000000      1.00000000      1.00000000      1.00000000      1.00000000      1.00000000      1.00000000
      1.00000000      1.00000000      1.00000000      1.00000000      1.00000000      1.00000000      1.00000000      1.00000000      1.00000000      1.00000000      1.00000000      1.00000000      1.00000000      1.00000000      1.00000000      1.00000000      1.00000000      1.00000000      1.00000000      1.00000000
      1.00000000      1.00000000      1.00000000      1.00000000      1.00000000      1.00000000      1.00000000      1.00000000      1.00000000      1.00000000      1.00000000      1.00000000      1.00000000      1.00000000      1.00000000      1.00000000      1.00000000      1.00000000      1.00000000      1.00000000
      1.00000000      1.00000000      1.00000000      1.00000000      1.00000000      1.00000000      1.00000000      1.00000000      1.00000000      1.00000000      1.00000000      1.00000000      1.00000000      1.00000000      1.00000000      1.00000000      1.00000000      1.00000000      1.00000000      1.00000000
      1.00000000      1.00000000      1.00000000      1.00000000      1.00000000      1.00000000      1.00000000      1.00000000      1.00000000      1.00000000      1.00000000      1.00000000      1.00000000      1.00000000      1.00000000      1.00000000      1.00000000      1.00000000      1.00000000      1.00000000
      1.00000000      1.00000000      1.00000000      1.00000000      1.00000000      1.00000000      1.00000000      1.00000000      1.00000000      1.00000000      1.00000000      1.00000000      1.00000000      1.00000000      1.00000000      1.00000000      1.00000000      1.00000000      1.00000000      1.00000000
      1.00000000      1.00000000      1.00000000      1.00000000      1.00000000      1.00000000      1.00000000      1.00000000      1.00000000      1.00000000      1.00000000      1.00000000      1.00000000      1.00000000      1.00000000      1.00000000      1.00000000      1.00000000      1.00000000      1.00000000
      1.00000000      1.00000000      1.00000000      1.00000000      1.00000000      1.00000000      1.00000000      1.00000000      1.00000000      1.00000000      1.00000000      1.00000000      1.00000000      1.00000000      1.00000000      1.00000000      1.00000000      1.00000000      1.00000000      1.00000000
      1.00000000      1.00000000      1.00000000      1.00000000      1.00000000      1.00000000      1.00000000      1.00000000      1.00000000      1.00000000      1.00000000      1.00000000      1.00000000      1.00000000      1.00000000      1.00000000      1.00000000      1.00000000      1.00000000      1.00000000
      1.00000000      1.00000000      1.00000000      1.00000000      1.00000000      1.00000000      1.00000000      1.00000000      1.00000000      1.00000000      1.00000000      1.00000000      1.00000000      1.00000000      1.00000000      1.00000000</v>
    <i name="NUPDOWN">     -1.00000000</i>
    <i type="logical" name="LSORBIT"> F  </i>
    <v name="SAXIS">      0.00000000      0.00000000      1.00000000</v>
    <i type="logical" name="LSPIRAL"> F  </i>
    <v name="QSPIRAL">      0.00000000      0.00000000      0.00000000</v>
    <i type="logical" name="LZEROZ"> F  </i>
   </separator>
   <separator name="electronic exchange-correlation" >
    <i type="logical" name="LASPH"> F  </i>
    <i type="logical" name="LMETAGGA"> F  </i>
   </separator>
   <separator name="electronic convergence" >
    <i type="int" name="NELM">    60</i>
    <i type="int" name="NELMDL">   -12</i>
    <i type="int" name="NELMIN">     5</i>
    <i name="ENINI">    213.27600000</i>
    <separator name="electronic convergence detail" >
     <i type="logical" name="LDIAG"> T  </i>
     <i type="logical" name="LSUBROT"> F  </i>
     <i name="WEIMIN">      0.00000000</i>
     <i name="EBREAK">      0.00000000</i>
     <i name="DEPER">      0.30000000</i>
     <i type="int" name="NRMM">     4</i>
     <i name="TIME">      0.40000000</i>
    </separator>
   </separator>
   <separator name="electronic mixer" >
    <i name="AMIX">      0.40000000</i>
    <i name="BMIX">      1.00000000</i>
    <i name="AMIN">      0.10000000</i>
    <i name="AMIX_MAG">      1.60000000</i>
    <i name="BMIX_MAG">      1.00000000</i>
    <separator name="electronic mixer details" >
     <i type="int" name="IMIX">     4</i>
     <i type="logical" name="MIXFIRST"> F  </i>
     <i type="int" name="MAXMIX">   -45</i>
     <i name="WC">    100.00000000</i>
     <i type="int" name="INIMIX">     1</i>
     <i type="int" name="MIXPRE">     1</i>
     <i type="int" name="MREMOVE">     5</i>
    </separator>
   </separator>
   <separator name="electronic dipolcorrection" >
    <i type="logical" name="LDIPOL"> F  </i>
    <i type="logical" name="LMONO"> F  </i>
    <i type="int" name="IDIPOL">     0</i>
    <i name="EPSILON">      1.00000000</i>
    <v name="DIPOL">   -100.00000000   -100.00000000   -100.00000000</v>
    <i name="EFIELD">      0.00000000</i>
   </separator>
  </separator>
  <separator name="grids" >
   <i type="int" name="NGX">    80</i>
   <i type="int" name="NGY">    80</i>
   <i type="int" name="NGZ">    80</i>
   <i type="int" name="NGXF">   160</i>
   <i type="int" name="NGYF">   160</i>
   <i type="int" name="NGZF">   160</i>
   <i type="logical" name="ADDGRID"> F  </i>
  </separator>
  <separator name="ionic" >
   <i type="int" name="NSW">     0</i>
   <i type="int" name="IBRION">    -1</i>
   <i type="int" name="ISIF">     2</i>
   <i name="PSTRESS">      0.00000000</i>
   <i name="EDIFFG">      0.00001000</i>
   <i type="int" name="NFREE">     0</i>
   <i name="POTIM">      0.50000000</i>
   <i name="SMASS">     -3.00000000</i>
   <i name="SCALEE">      1.00000000</i>
  </separator>
  <separator name="ionic md" >
   <i name="TEBEG">      0.00010000</i>
   <i name="TEEND">      0.00010000</i>
   <i type="int" name="NBLOCK">     1</i>
   <i type="int" name="KBLOCK">     1</i>
   <i type="int" name="NPACO">   256</i>
   <i name="APACO">     16.00000000</i>
  </separator>
  <separator name="symmetry" >
   <i type="int" name="ISYM">     2</i>
   <i name="SYMPREC">      0.00001000</i>
  </separator>
  <separator name="dos" >
   <i type="logical" name="LORBIT"> F  </i>
   <v name="RWIGS">     -1.00000000     -1.00000000</v>
   <i type="int" name="NEDOS">   301</i>
   <i name="EMIN">     10.00000000</i>
   <i name="EMAX">    -10.00000000</i>
   <i name="EFERMI">      0.00000000</i>
  </separator>
  <separator name="writing" >
   <i type="int" name="NWRITE">     2</i>
   <i type="logical" name="LWAVE"> T  </i>
   <i type="logical" name="LCHARG"> T  </i>
   <i type="logical" name="LPARD"> F  </i>
   <i type="logical" name="LVTOT"> F  </i>
   <i type="logical" name="LVHAR"> F  </i>
   <i type="logical" name="LELF"> F  </i>
   <i type="logical" name="LOPTICS"> F  </i>
   <v name="STM">      0.00000000      0.00000000      0.00000000      0.00000000      0.00000000      0.00000000      0.00000000</v>
  </separator>
  <separator name="performance" >
   <i type="int" name="NPAR">    64</i>
   <i type="int" name="NSIM">     4</i>
   <i type="int" name="NBLK">    -1</i>
   <i type="logical" name="LPLANE"> T  </i>
   <i type="logical" name="LSCALAPACK"> T  </i>
   <i type="logical" name="LSCAAWARE"> T  </i>
   <i type="logical" name="LSCALU"> F  </i>
   <i type="logical" name="LASYNC"> F  </i>
   <i type="logical" name="LORBITALREAL"> F  </i>
  </separator>
  <separator name="miscellaneous" >
   <i type="int" name="IDIOT">     3</i>
   <i type="logical" name="LMUSIC"> F  </i>
   <v name="POMASS">    192.22000000    101.07000000</v>
   <v name="DARWINR">      0.00000000      0.00000000</v>
   <v name="DARWINV">      1.00000000      1.00000000</v>
   <i type="logical" name="LCORR"> T  </i>
  </separator>
  <i type="logical" name="GGA_COMPAT"> T  </i>
  <i type="logical" name="LBERRY"> F  </i>
  <i type="int" name="ICORELEVEL">     0</i>
  <i type="logical" name="LDAU"> F  </i>
  <i type="int" name="I_CONSTRAINED_M">     0</i>
  <separator name="electronic exchange-correlation" >
   <i type="string" name="GGA">--</i>
   <i type="int" name="VOSKOWN">     0</i>
   <i type="logical" name="LHFCALC"> F  </i>
   <i type="string" name="PRECFOCK"></i>
   <i type="logical" name="LSYMGRAD"> F  </i>
   <i type="logical" name="LHFONE"> F  </i>
   <i type="logical" name="LRHFCALC"> F  </i>
   <i type="logical" name="LTHOMAS"> F  </i>
   <i type="logical" name="LMODELHF"> F  </i>
   <i name="ENCUT4O">     -1.00000000</i>
   <i type="int" name="EXXOEP">     0</i>
   <i type="int" name="FOURORBIT">     0</i>
   <i name="AEXX">      0.00000000</i>
   <i name="HFALPHA">      0.00000000</i>
   <i name="MCALPHA">      0.00000000</i>
   <i name="ALDAX">      1.00000000</i>
   <i name="AGGAX">      1.00000000</i>
   <i name="ALDAC">      1.00000000</i>
   <i name="AGGAC">      1.00000000</i>
   <i type="int" name="NKREDX">     1</i>
   <i type="int" name="NKREDY">     1</i>
   <i type="int" name="NKREDZ">     1</i>
   <i type="logical" name="SHIFTRED"> F  </i>
   <i type="logical" name="ODDONLY"> F  </i>
   <i type="logical" name="EVENONLY"> F  </i>
   <i type="int" name="LMAXFOCK">     0</i>
   <i type="int" name="NMAXFOCKAE">     0</i>
   <i type="logical" name="LFOCKAEDFT"> F  </i>
   <i name="HFSCREEN">      0.00000000</i>
   <i name="HFSCREENC">      0.00000000</i>
   <i type="int" name="NBANDSGWLOW">     0</i>
  </separator>
  <separator name="vdW DFT" >
   <i type="logical" name="LUSE_VDW"> F  </i>
   <i name="Zab_VDW">     -0.84910000</i>
   <i name="PARAM1">      0.12340000</i>
   <i name="PARAM2">      1.00000000</i>
   <i name="PARAM3">      0.00000000</i>
  </separator>
  <separator name="model GW" >
   <i type="int" name="MODEL_GW">     0</i>
   <i name="MODEL_EPS0">      8.38895903</i>
   <i name="MODEL_ALPHA">      1.00000000</i>
  </separator>
  <separator name="linear response parameters" >
   <i type="logical" name="LEPSILON"> F  </i>
   <i type="logical" name="LRPA"> F  </i>
   <i type="logical" name="LNABLA"> F  </i>
   <i type="logical" name="LVEL"> F  </i>
   <i type="int" name="KINTER">     0</i>
   <i name="CSHIFT">      0.10000000</i>
   <i name="OMEGAMAX">     -1.00000000</i>
   <i name="DEG_THRESHOLD">      0.00200000</i>
  </separator>
  <separator name="orbital magnetization" >
   <i type="logical" name="NUCIND"> F  </i>
   <v name="MAGPOS">      0.00000000      0.00000000      0.00000000</v>
   <i type="logical" name="LNICSALL"> T  </i>
   <i type="logical" name="ORBITALMAG"> F  </i>
   <i type="logical" name="LMAGBLOCH"> F  </i>
   <i type="logical" name="LCHIMAG"> F  </i>
   <i type="logical" name="LGAUGE"> T  </i>
   <i type="int" name="MAGATOM">     0</i>
   <v name="MAGDIPOL">      0.00000000      0.00000000      0.00000000</v>
   <v name="AVECCONST">      0.00000000      0.00000000      0.00000000</v>
  </separator>
  <separator name="response functions" >
   <i type="logical" name="LADDER"> F  </i>
   <i type="logical" name="LFXC"> F  </i>
   <i type="logical" name="LHARTREE"> T  </i>
   <i type="int" name="IBSE">     0</i>
   <v type="int" name="KPOINT">    -1     0     0     0</v>
   <i type="logical" name="LTCTE"> F  </i>
   <i type="logical" name="LTETE"> F  </i>
   <i type="logical" name="LTRIPLET"> F  </i>
   <i type="logical" name="LFXCEPS"> F  </i>
   <i type="logical" name="LFXHEG"> F  </i>
   <i type="int" name="NATURALO">     0</i>
   <i type="logical" name="L2ORDER"> F  </i>
   <i type="logical" name="LUSEW"> F  </i>
   <i name="ENCUTGW">     -2.00000000</i>
   <i name="ENCUTGWSOFT">     -2.00000000</i>
   <i name="ENCUTLF">     -1.00000000</i>
   <i type="int" name="LMAXMP2">    -1</i>
   <i name="SCISSOR">      0.00000000</i>
   <i type="int" name="NOMEGA">     0</i>
   <i type="int" name="NOMEGAR">     0</i>
   <i type="int" name="NBANDSGW">    -1</i>
   <i type="int" name="NBANDSO">    -1</i>
   <i type="int" name="NBANDSV">    -1</i>
   <i type="int" name="NELM">     1</i>
   <i type="int" name="NELMHF">     1</i>
   <i type="int" name="DIM">     3</i>
   <i type="int" name="ANTIRES">     0</i>
   <i name="OMEGAMAX">    -30.00000000</i>
   <i name="OMEGAMIN">    -30.00000000</i>
   <i name="OMEGATL">   -200.00000000</i>
   <i type="int" name="OMEGAGRID">     0</i>
   <i name="CSHIFT">     -0.10000000</i>
   <i type="logical" name="SELFENERGY"> F  </i>
   <i type="logical" name="LSPECTRAL"> F  </i>
   <i type="logical" name="LSPECTRALGW"> F  </i>
   <i type="logical" name="LSINGLES"> F  </i>
   <i type="logical" name="LFERMIGW"> F  </i>
   <i type="logical" name="ODDONLYGW"> F  </i>
   <i type="logical" name="EVENONLYGW"> F  </i>
   <i type="int" name="NKREDLFX">     1</i>
   <i type="int" name="NKREDLFY">     1</i>
   <i type="int" name="NKREDLFZ">     1</i>
   <i type="int" name="MAXMEM">  1800</i>
   <i type="int" name="TELESCOPE">     0</i>
   <i type="int" name="TAUPAR">     1</i>
   <i type="int" name="OMEGAPAR">    -1</i>
   <i name="LAMBDA">      1.00000000</i>
  </separator>
  <separator name="External order field" >
   <i name="OFIELD_KAPPA">      0.00000000</i>
   <v name="OFIELD_K">      0.00000000      0.00000000      0.00000000</v>
   <i name="OFIELD_Q6_NEAR">      0.00000000</i>
   <i name="OFIELD_Q6_FAR">      0.00000000</i>
   <i name="OFIELD_A">      0.00000000</i>
  </separator>
 </parameters>
 <atominfo>
  <atoms>     216 </atoms>
  <types>       2 </types>
  <array name="atoms" >
   <dimension dim="1">ion</dimension>
   <field type="string">element</field>
   <field type="int">atomtype</field>
   <set>
    <rc><c>Ir</c><c>   1</c></rc>
    <rc><c>Ir</c><c>   1</c></rc>
    <rc><c>Ir</c><c>   1</c></rc>
    <rc><c>Ir</c><c>   1</c></rc>
    <rc><c>Ir</c><c>   1</c></rc>
    <rc><c>Ir</c><c>   1</c></rc>
    <rc><c>Ir</c><c>   1</c></rc>
    <rc><c>Ir</c><c>   1</c></rc>
    <rc><c>Ir</c><c>   1</c></rc>
    <rc><c>Ir</c><c>   1</c></rc>
    <rc><c>Ir</c><c>   1</c></rc>
    <rc><c>Ir</c><c>   1</c></rc>
    <rc><c>Ir</c><c>   1</c></rc>
    <rc><c>Ir</c><c>   1</c></rc>
    <rc><c>Ir</c><c>   1</c></rc>
    <rc><c>Ir</c><c>   1</c></rc>
    <rc><c>Ir</c><c>   1</c></rc>
    <rc><c>Ir</c><c>   1</c></rc>
    <rc><c>Ir</c><c>   1</c></rc>
    <rc><c>Ir</c><c>   1</c></rc>
    <rc><c>Ir</c><c>   1</c></rc>
    <rc><c>Ir</c><c>   1</c></rc>
    <rc><c>Ir</c><c>   1</c></rc>
    <rc><c>Ir</c><c>   1</c></rc>
    <rc><c>Ir</c><c>   1</c></rc>
    <rc><c>Ir</c><c>   1</c></rc>
    <rc><c>Ir</c><c>   1</c></rc>
    <rc><c>Ir</c><c>   1</c></rc>
    <rc><c>Ir</c><c>   1</c></rc>
    <rc><c>Ir</c><c>   1</c></rc>
    <rc><c>Ir</c><c>   1</c></rc>
    <rc><c>Ir</c><c>   1</c></rc>
    <rc><c>Ir</c><c>   1</c></rc>
    <rc><c>Ir</c><c>   1</c></rc>
    <rc><c>Ir</c><c>   1</c></rc>
    <rc><c>Ir</c><c>   1</c></rc>
    <rc><c>Ir</c><c>   1</c></rc>
    <rc><c>Ir</c><c>   1</c></rc>
    <rc><c>Ir</c><c>   1</c></rc>
    <rc><c>Ir</c><c>   1</c></rc>
    <rc><c>Ir</c><c>   1</c></rc>
    <rc><c>Ir</c><c>   1</c></rc>
    <rc><c>Ir</c><c>   1</c></rc>
    <rc><c>Ir</c><c>   1</c></rc>
    <rc><c>Ir</c><c>   1</c></rc>
    <rc><c>Ir</c><c>   1</c></rc>
    <rc><c>Ir</c><c>   1</c></rc>
    <rc><c>Ir</c><c>   1</c></rc>
    <rc><c>Ir</c><c>   1</c></rc>
    <rc><c>Ir</c><c>   1</c></rc>
    <rc><c>Ir</c><c>   1</c></rc>
    <rc><c>Ir</c><c>   1</c></rc>
    <rc><c>Ir</c><c>   1</c></rc>
    <rc><c>Ir</c><c>   1</c></rc>
    <rc><c>Ru</c><c>   2</c></rc>
    <rc><c>Ru</c><c>   2</c></rc>
    <rc><c>Ru</c><c>   2</c></rc>
    <rc><c>Ru</c><c>   2</c></rc>
    <rc><c>Ru</c><c>   2</c></rc>
    <rc><c>Ru</c><c>   2</c></rc>
    <rc><c>Ru</c><c>   2</c></rc>
    <rc><c>Ru</c><c>   2</c></rc>
    <rc><c>Ru</c><c>   2</c></rc>
    <rc><c>Ru</c><c>   2</c></rc>
    <rc><c>Ru</c><c>   2</c></rc>
    <rc><c>Ru</c><c>   2</c></rc>
    <rc><c>Ru</c><c>   2</c></rc>
    <rc><c>Ru</c><c>   2</c></rc>
    <rc><c>Ru</c><c>   2</c></rc>
    <rc><c>Ru</c><c>   2</c></rc>
    <rc><c>Ru</c><c>   2</c></rc>
    <rc><c>Ru</c><c>   2</c></rc>
    <rc><c>Ru</c><c>   2</c></rc>
    <rc><c>Ru</c><c>   2</c></rc>
    <rc><c>Ru</c><c>   2</c></rc>
    <rc><c>Ru</c><c>   2</c></rc>
    <rc><c>Ru</c><c>   2</c></rc>
    <rc><c>Ru</c><c>   2</c></rc>
    <rc><c>Ru</c><c>   2</c></rc>
    <rc><c>Ru</c><c>   2</c></rc>
    <rc><c>Ru</c><c>   2</c></rc>
    <rc><c>Ru</c><c>   2</c></rc>
    <rc><c>Ru</c><c>   2</c></rc>
    <rc><c>Ru</c><c>   2</c></rc>
    <rc><c>Ru</c><c>   2</c></rc>
    <rc><c>Ru</c><c>   2</c></rc>
    <rc><c>Ru</c><c>   2</c></rc>
    <rc><c>Ru</c><c>   2</c></rc>
    <rc><c>Ru</c><c>   2</c></rc>
    <rc><c>Ru</c><c>   2</c></rc>
    <rc><c>Ru</c><c>   2</c></rc>
    <rc><c>Ru</c><c>   2</c></rc>
    <rc><c>Ru</c><c>   2</c></rc>
    <rc><c>Ru</c><c>   2</c></rc>
    <rc><c>Ru</c><c>   2</c></rc>
    <rc><c>Ru</c><c>   2</c></rc>
    <rc><c>Ru</c><c>   2</c></rc>
    <rc><c>Ru</c><c>   2</c></rc>
    <rc><c>Ru</c><c>   2</c></rc>
    <rc><c>Ru</c><c>   2</c></rc>
    <rc><c>Ru</c><c>   2</c></rc>
    <rc><c>Ru</c><c>   2</c></rc>
    <rc><c>Ru</c><c>   2</c></rc>
    <rc><c>Ru</c><c>   2</c></rc>
    <rc><c>Ru</c><c>   2</c></rc>
    <rc><c>Ru</c><c>   2</c></rc>
    <rc><c>Ru</c><c>   2</c></rc>
    <rc><c>Ru</c><c>   2</c></rc>
    <rc><c>Ru</c><c>   2</c></rc>
    <rc><c>Ru</c><c>   2</c></rc>
    <rc><c>Ru</c><c>   2</c></rc>
    <rc><c>Ru</c><c>   2</c></rc>
    <rc><c>Ru</c><c>   2</c></rc>
    <rc><c>Ru</c><c>   2</c></rc>
    <rc><c>Ru</c><c>   2</c></rc>
    <rc><c>Ru</c><c>   2</c></rc>
    <rc><c>Ru</c><c>   2</c></rc>
    <rc><c>Ru</c><c>   2</c></rc>
    <rc><c>Ru</c><c>   2</c></rc>
    <rc><c>Ru</c><c>   2</c></rc>
    <rc><c>Ru</c><c>   2</c></rc>
    <rc><c>Ru</c><c>   2</c></rc>
    <rc><c>Ru</c><c>   2</c></rc>
    <rc><c>Ru</c><c>   2</c></rc>
    <rc><c>Ru</c><c>   2</c></rc>
    <rc><c>Ru</c><c>   2</c></rc>
    <rc><c>Ru</c><c>   2</c></rc>
    <rc><c>Ru</c><c>   2</c></rc>
    <rc><c>Ru</c><c>   2</c></rc>
    <rc><c>Ru</c><c>   2</c></rc>
    <rc><c>Ru</c><c>   2</c></rc>
    <rc><c>Ru</c><c>   2</c></rc>
    <rc><c>Ru</c><c>   2</c></rc>
    <rc><c>Ru</c><c>   2</c></rc>
    <rc><c>Ru</c><c>   2</c></rc>
    <rc><c>Ru</c><c>   2</c></rc>
    <rc><c>Ru</c><c>   2</c></rc>
    <rc><c>Ru</c><c>   2</c></rc>
    <rc><c>Ru</c><c>   2</c></rc>
    <rc><c>Ru</c><c>   2</c></rc>
    <rc><c>Ru</c><c>   2</c></rc>
    <rc><c>Ru</c><c>   2</c></rc>
    <rc><c>Ru</c><c>   2</c></rc>
    <rc><c>Ru</c><c>   2</c></rc>
    <rc><c>Ru</c><c>   2</c></rc>
    <rc><c>Ru</c><c>   2</c></rc>
    <rc><c>Ru</c><c>   2</c></rc>
    <rc><c>Ru</c><c>   2</c></rc>
    <rc><c>Ru</c><c>   2</c></rc>
    <rc><c>Ru</c><c>   2</c></rc>
    <rc><c>Ru</c><c>   2</c></rc>
    <rc><c>Ru</c><c>   2</c></rc>
    <rc><c>Ru</c><c>   2</c></rc>
    <rc><c>Ru</c><c>   2</c></rc>
    <rc><c>Ru</c><c>   2</c></rc>
    <rc><c>Ru</c><c>   2</c></rc>
    <rc><c>Ru</c><c>   2</c></rc>
    <rc><c>Ru</c><c>   2</c></rc>
    <rc><c>Ru</c><c>   2</c></rc>
    <rc><c>Ru</c><c>   2</c></rc>
    <rc><c>Ru</c><c>   2</c></rc>
    <rc><c>Ru</c><c>   2</c></rc>
    <rc><c>Ru</c><c>   2</c></rc>
    <rc><c>Ru</c><c>   2</c></rc>
    <rc><c>Ru</c><c>   2</c></rc>
    <rc><c>Ru</c><c>   2</c></rc>
    <rc><c>Ru</c><c>   2</c></rc>
    <rc><c>Ru</c><c>   2</c></rc>
    <rc><c>Ru</c><c>   2</c></rc>
    <rc><c>Ru</c><c>   2</c></rc>
    <rc><c>Ru</c><c>   2</c></rc>
    <rc><c>Ru</c><c>   2</c></rc>
    <rc><c>Ru</c><c>   2</c></rc>
    <rc><c>Ru</c><c>   2</c></rc>
    <rc><c>Ru</c><c>   2</c></rc>
    <rc><c>Ru</c><c>   2</c></rc>
    <rc><c>Ru</c><c>   2</c></rc>
    <rc><c>Ru</c><c>   2</c></rc>
    <rc><c>Ru</c><c>   2</c></rc>
    <rc><c>Ru</c><c>   2</c></rc>
    <rc><c>Ru</c><c>   2</c></rc>
    <rc><c>Ru</c><c>   2</c></rc>
    <rc><c>Ru</c><c>   2</c></rc>
    <rc><c>Ru</c><c>   2</c></rc>
    <rc><c>Ru</c><c>   2</c></rc>
    <rc><c>Ru</c><c>   2</c></rc>
    <rc><c>Ru</c><c>   2</c></rc>
    <rc><c>Ru</c><c>   2</c></rc>
    <rc><c>Ru</c><c>   2</c></rc>
    <rc><c>Ru</c><c>   2</c></rc>
    <rc><c>Ru</c><c>   2</c></rc>
    <rc><c>Ru</c><c>   2</c></rc>
    <rc><c>Ru</c><c>   2</c></rc>
    <rc><c>Ru</c><c>   2</c></rc>
    <rc><c>Ru</c><c>   2</c></rc>
    <rc><c>Ru</c><c>   2</c></rc>
    <rc><c>Ru</c><c>   2</c></rc>
    <rc><c>Ru</c><c>   2</c></rc>
    <rc><c>Ru</c><c>   2</c></rc>
    <rc><c>Ru</c><c>   2</c></rc>
    <rc><c>Ru</c><c>   2</c></rc>
    <rc><c>Ru</c><c>   2</c></rc>
    <rc><c>Ru</c><c>   2</c></rc>
    <rc><c>Ru</c><c>   2</c></rc>
    <rc><c>Ru</c><c>   2</c></rc>
    <rc><c>Ru</c><c>   2</c></rc>
    <rc><c>Ru</c><c>   2</c></rc>
    <rc><c>Ru</c><c>   2</c></rc>
    <rc><c>Ru</c><c>   2</c></rc>
    <rc><c>Ru</c><c>   2</c></rc>
    <rc><c>Ru</c><c>   2</c></rc>
    <rc><c>Ru</c><c>   2</c></rc>
    <rc><c>Ru</c><c>   2</c></rc>
    <rc><c>Ru</c><c>   2</c></rc>
    <rc><c>Ru</c><c>   2</c></rc>
    <rc><c>Ru</c><c>   2</c></rc>
   </set>
  </array>
  <array name="atomtypes" >
   <dimension dim="1">type</dimension>
   <field type="int">atomspertype</field>
   <field type="string">element</field>
   <field>mass</field>
   <field>valence</field>
   <field type="string">pseudopotential</field>
   <set>
    <rc><c>  54</c><c>Ir</c><c>    192.22000000</c><c>      9.00000000</c><c> PAW_PBE Ir 06Sep2000                   </c></rc>
    <rc><c> 162</c><c>Ru</c><c>    101.07000000</c><c>      8.00000000</c><c> PAW_PBE Ru 06Sep2000                   </c></rc>
   </set>
  </array>
 </atominfo>
 <structure name="initialpos" >
  <crystal>
   <varray name="basis" >
    <v>      -8.19811000      -4.73312000      12.97158000 </v>
    <v>      -0.00004000       9.46633000      12.97158000 </v>
    <v>      -8.19815000       4.73321000     -12.97158000 </v>
   </varray>
   <i name="volume">   3020.02524953 </i>
   <varray name="rec_basis" >
    <v>      -0.06098971      -0.03521278       0.02569720 </v>
    <v>       0.00000039       0.07042504       0.02569720 </v>
    <v>      -0.06098933       0.03521226      -0.02569720 </v>
   </varray>
  </crystal>
  <varray name="positions" >
   <v>       0.02777889       0.36111222       0.97222444 </v>
   <v>       0.97222111       0.30555444       0.69444222 </v>
   <v>       0.13889000       0.47222333       0.86111333 </v>
   <v>       0.08333222       0.41666556       0.58333111 </v>
   <v>       0.58333444       0.25000111       0.75000222 </v>
   <v>       0.52777667       0.19444333       0.47222000 </v>
   <v>       0.25000111       0.25000111       0.41666889 </v>
   <v>       0.19444333       0.19444333       0.13888667 </v>
   <v>       0.91666778       0.25000111       0.08333556 </v>
   <v>       0.86111000       0.19444333       0.80555333 </v>
   <v>       0.25000111       0.58333444       0.75000222 </v>
   <v>       0.19444333       0.52777667       0.47222000 </v>
   <v>       0.91666778       0.58333444       0.41666889 </v>
   <v>       0.86111000       0.52777667       0.13888667 </v>
   <v>       0.91666778       0.91666778       0.75000222 </v>
   <v>       0.86111000       0.86111000       0.47222000 </v>
   <v>       0.69444556       0.36111222       0.63889111 </v>
   <v>       0.63888778       0.30555444       0.36110889 </v>
   <v>       0.36111222       0.36111222       0.30555778 </v>
   <v>       0.30555444       0.30555444       0.02777556 </v>
   <v>       0.69444556       0.69444556       0.97222444 </v>
   <v>       0.63888778       0.63888778       0.69444222 </v>
   <v>       0.36111222       0.69444556       0.63889111 </v>
   <v>       0.30555444       0.63888778       0.36110889 </v>
   <v>       0.02777889       0.69444556       0.30555778 </v>
   <v>       0.97222111       0.63888778       0.02777556 </v>
   <v>       0.36111222       0.02777889       0.97222444 </v>
   <v>       0.30555444       0.97222111       0.69444222 </v>
   <v>       0.02777889       0.02777889       0.63889111 </v>
   <v>       0.97222111       0.97222111       0.36110889 </v>
   <v>       0.80555667       0.47222333       0.52778000 </v>
   <v>       0.74999889       0.41666556       0.24999778 </v>
   <v>       0.47222333       0.47222333       0.19444667 </v>
   <v>       0.41666556       0.41666556       0.91666444 </v>
   <v>       0.80555667       0.80555667       0.86111333 </v>
   <v>       0.74999889       0.74999889       0.58333111 </v>
   <v>       0.47222333       0.80555667       0.52778000 </v>
   <v>       0.41666556       0.74999889       0.24999778 </v>
   <v>       0.13889000       0.80555667       0.19444667 </v>
   <v>       0.08333222       0.74999889       0.91666444 </v>
   <v>       0.47222333       0.13889000       0.86111333 </v>
   <v>       0.41666556       0.08333222       0.58333111 </v>
   <v>       0.13889000       0.13889000       0.52778000 </v>
   <v>       0.08333222       0.08333222       0.24999778 </v>
   <v>       0.58333444       0.58333444       0.08333556 </v>
   <v>       0.52777667       0.52777667       0.80555333 </v>
   <v>       0.58333444       0.91666778       0.41666889 </v>
   <v>       0.52777667       0.86111000       0.13888667 </v>
   <v>       0.25000111       0.91666778       0.08333556 </v>
   <v>       0.19444333       0.86111000       0.80555333 </v>
   <v>       0.69444556       0.02777889       0.30555778 </v>
   <v>       0.63888778       0.97222111       0.02777556 </v>
   <v>       0.80555667       0.13889000       0.19444667 </v>
   <v>       0.74999889       0.08333222       0.91666444 </v>
   <v>       0.86084889       0.36163556       0.80581778 </v>
   <v>       0.86085222       0.19418556       0.63837111 </v>
   <v>       0.02830222       0.19418222       0.80581778 </v>
   <v>       0.13915111       0.30503111       0.86084889 </v>
   <v>       0.97169778       0.47248111       0.86084556 </v>
   <v>       0.13914778       0.47248111       0.02829556 </v>
   <v>       0.97196000       0.47274667       0.69470667 </v>
   <v>       0.97196333       0.30529667       0.52726000 </v>
   <v>       0.13941333       0.30529333       0.69470667 </v>
   <v>       0.25026222       0.41614222       0.74973778 </v>
   <v>       0.08280889       0.58359222       0.74973444 </v>
   <v>       0.25025889       0.58359222       0.91718444 </v>
   <v>       0.41640778       0.25052444       0.58359889 </v>
   <v>       0.41640778       0.08307444       0.41614889 </v>
   <v>       0.58385778       0.08307444       0.58359889 </v>
   <v>       0.69470667       0.19392000       0.63862667 </v>
   <v>       0.52725333       0.36137333       0.63862667 </v>
   <v>       0.69470333       0.36137000       0.80607333 </v>
   <v>       0.08307111       0.25052444       0.25026222 </v>
   <v>       0.08307444       0.08307444       0.08281556 </v>
   <v>       0.25052444       0.08307111       0.25026222 </v>
   <v>       0.36137000       0.19392000       0.30529000 </v>
   <v>       0.19392000       0.36137000       0.30529000 </v>
   <v>       0.36137000       0.36137000       0.47274000 </v>
   <v>       0.74692444       0.25155778       0.91692889 </v>
   <v>       0.74974111       0.08307444       0.74948222 </v>
   <v>       0.91719111       0.08307111       0.91692889 </v>
   <v>       0.02804000       0.19392000       0.97196000 </v>
   <v>       0.86058667       0.36137000       0.97195667 </v>
   <v>       0.02803667       0.36137000       0.13940667 </v>
   <v>       0.08307111       0.58385778       0.58359556 </v>
   <v>       0.08307444       0.41640778       0.41614889 </v>
   <v>       0.25052444       0.41640444       0.58359556 </v>
   <v>       0.36137333       0.52725333       0.63862667 </v>
   <v>       0.19392000       0.69470333       0.63862333 </v>
   <v>       0.36137000       0.69470333       0.80607333 </v>
   <v>       0.74974111       0.58385778       0.25026556 </v>
   <v>       0.74974111       0.41640778       0.08281556 </v>
   <v>       0.91719111       0.41640444       0.25026222 </v>
   <v>       0.02804000       0.52725333       0.30529333 </v>
   <v>       0.86058667       0.69470333       0.30529000 </v>
   <v>       0.02803667       0.69470333       0.47274000 </v>
   <v>       0.74973778       0.91719111       0.58359556 </v>
   <v>       0.74974111       0.74974111       0.41614889 </v>
   <v>       0.91719111       0.74973778       0.58359556 </v>
   <v>       0.02803667       0.86058667       0.63862333 </v>
   <v>       0.86058667       0.02803667       0.63862333 </v>
   <v>       0.02803667       0.02803667       0.80607333 </v>
   <v>       0.52751556       0.36163556       0.47248444 </v>
   <v>       0.52751889       0.19418556       0.30503778 </v>
   <v>       0.69496889       0.19418556       0.47248778 </v>
   <v>       0.80581778       0.30503111       0.52751556 </v>
   <v>       0.63836444       0.47248111       0.52751222 </v>
   <v>       0.80581444       0.47248111       0.69496222 </v>
   <v>       0.19418222       0.36163556       0.13915111 </v>
   <v>       0.19418556       0.19418556       0.97170444 </v>
   <v>       0.36163556       0.19418556       0.13915444 </v>
   <v>       0.47248111       0.30503111       0.19417889 </v>
   <v>       0.30503111       0.47248444       0.19418222 </v>
   <v>       0.47248111       0.47248111       0.36162889 </v>
   <v>       0.52751556       0.69496889       0.80581778 </v>
   <v>       0.52751889       0.52751889       0.63837111 </v>
   <v>       0.69496889       0.52751889       0.80582111 </v>
   <v>       0.80581444       0.63836444       0.86084556 </v>
   <v>       0.63836444       0.80581778       0.86084889 </v>
   <v>       0.80581444       0.80581444       0.02829556 </v>
   <v>       0.19418222       0.69496889       0.47248444 </v>
   <v>       0.19418556       0.52751889       0.30503778 </v>
   <v>       0.36163556       0.52751556       0.47248444 </v>
   <v>       0.47248444       0.63836444       0.52751556 </v>
   <v>       0.30503111       0.80581444       0.52751222 </v>
   <v>       0.47248111       0.80581444       0.69496222 </v>
   <v>       0.86085222       0.69496889       0.13915444 </v>
   <v>       0.86085222       0.52751889       0.97170444 </v>
   <v>       0.02830222       0.52751889       0.13915444 </v>
   <v>       0.13914778       0.63836444       0.19417889 </v>
   <v>       0.97169778       0.80581444       0.19417889 </v>
   <v>       0.13914778       0.80581444       0.36162889 </v>
   <v>       0.19418222       0.02830222       0.80581778 </v>
   <v>       0.19418556       0.86085222       0.63837111 </v>
   <v>       0.36163556       0.86085222       0.80582111 </v>
   <v>       0.47248444       0.97169778       0.86084889 </v>
   <v>       0.30503111       0.13914778       0.86084556 </v>
   <v>       0.47248111       0.13914778       0.02829556 </v>
   <v>       0.86084889       0.02830222       0.47248444 </v>
   <v>       0.86085222       0.86085222       0.30503778 </v>
   <v>       0.02830222       0.86084889       0.47248444 </v>
   <v>       0.13914778       0.97169778       0.52751222 </v>
   <v>       0.97169778       0.13914778       0.52751222 </v>
   <v>       0.13914778       0.13914778       0.69496222 </v>
   <v>       0.63862667       0.47274667       0.36137333 </v>
   <v>       0.63863000       0.30529667       0.19392667 </v>
   <v>       0.80608000       0.30529667       0.36137667 </v>
   <v>       0.91692889       0.41614222       0.41640444 </v>
   <v>       0.74947556       0.58359556       0.41640444 </v>
   <v>       0.91692556       0.58359222       0.58385111 </v>
   <v>       0.30529333       0.47274667       0.02804000 </v>
   <v>       0.30529667       0.30529667       0.86059333 </v>
   <v>       0.47274667       0.30529333       0.02804000 </v>
   <v>       0.58359222       0.41614222       0.08306778 </v>
   <v>       0.41614222       0.58359222       0.08306778 </v>
   <v>       0.58359222       0.58359222       0.25051778 </v>
   <v>       0.63863000       0.80608000       0.69471000 </v>
   <v>       0.63863000       0.63863000       0.52726000 </v>
   <v>       0.80608000       0.63863000       0.69471000 </v>
   <v>       0.91692556       0.74947556       0.74973444 </v>
   <v>       0.74947556       0.91692889       0.74973778 </v>
   <v>       0.91692556       0.91692556       0.91718444 </v>
   <v>       0.30529333       0.80608000       0.36137333 </v>
   <v>       0.30529667       0.63863000       0.19392667 </v>
   <v>       0.47274667       0.63862667       0.36137333 </v>
   <v>       0.58359556       0.74947556       0.41640444 </v>
   <v>       0.41614222       0.91692556       0.41640111 </v>
   <v>       0.58359222       0.91692556       0.58385111 </v>
   <v>       0.97196000       0.80608000       0.02804000 </v>
   <v>       0.97196333       0.63863000       0.86059333 </v>
   <v>       0.13941333       0.63863000       0.02804333 </v>
   <v>       0.25025889       0.74947556       0.08306778 </v>
   <v>       0.08280889       0.91692556       0.08306778 </v>
   <v>       0.25025889       0.91692556       0.25051778 </v>
   <v>       0.30529667       0.13941333       0.69471000 </v>
   <v>       0.30529667       0.97196333       0.52726000 </v>
   <v>       0.47274667       0.97196333       0.69471000 </v>
   <v>       0.58359222       0.08280889       0.74973444 </v>
   <v>       0.41614222       0.25025889       0.74973444 </v>
   <v>       0.58359222       0.25025889       0.91718444 </v>
   <v>       0.97196000       0.13941333       0.36137333 </v>
   <v>       0.97196333       0.97196333       0.19392667 </v>
   <v>       0.13941333       0.97196000       0.36137333 </v>
   <v>       0.25025889       0.08280889       0.41640111 </v>
   <v>       0.08280889       0.25025889       0.41640111 </v>
   <v>       0.25025889       0.25025889       0.58385111 </v>
   <v>       0.41640778       0.58385778       0.91693222 </v>
   <v>       0.41640778       0.41640778       0.74948222 </v>
   <v>       0.58385778       0.41640444       0.91692889 </v>
   <v>       0.69470667       0.52725333       0.97196000 </v>
   <v>       0.52725333       0.69470333       0.97195667 </v>
   <v>       0.69470333       0.69470333       0.13940667 </v>
   <v>       0.41640444       0.91719111       0.25026222 </v>
   <v>       0.41640778       0.74974111       0.08281556 </v>
   <v>       0.58385778       0.74973778       0.25026222 </v>
   <v>       0.69470667       0.86058667       0.30529333 </v>
   <v>       0.52725333       0.02803667       0.30529000 </v>
   <v>       0.69470333       0.02803667       0.47274000 </v>
   <v>       0.08307444       0.91719111       0.91693222 </v>
   <v>       0.08307444       0.74974111       0.74948222 </v>
   <v>       0.25052444       0.74973778       0.91692889 </v>
   <v>       0.36137333       0.86058667       0.97196000 </v>
   <v>       0.19392000       0.02803667       0.97195667 </v>
   <v>       0.36137000       0.02803667       0.13940667 </v>
   <v>       0.52751556       0.02830222       0.13915111 </v>
   <v>       0.52751889       0.86085222       0.97170444 </v>
   <v>       0.69496889       0.86084889       0.13915111 </v>
   <v>       0.80581778       0.97169778       0.19418222 </v>
   <v>       0.63836444       0.13914778       0.19417889 </v>
   <v>       0.80581444       0.13914778       0.36162889 </v>
   <v>       0.63862667       0.13941333       0.02804000 </v>
   <v>       0.63863000       0.97196333       0.86059333 </v>
   <v>       0.80608000       0.97196000       0.02804000 </v>
   <v>       0.91692556       0.08280889       0.08306778 </v>
   <v>       0.74947556       0.25025889       0.08306778 </v>
   <v>       0.91692556       0.25025889       0.25051778 </v>
  </varray>
 </structure>
 <calculation>
  <scstep>
   <time name="diag">   55.93   56.09</time>
   <time name="diis">  100.60  101.75</time>
   <time name="orth">   28.10   28.22</time>
   <time name="total">  184.74  186.17</time>
   <energy>
    <i name="alphaZ">  14146.51071896 </i>
    <i name="ewald">-127058.02705416 </i>
    <i name="hartreedc">  -8578.89628825 </i>
    <i name="XCdc">  -6127.38861347 </i>
    <i name="pawpsdc">  86524.61338861 </i>
    <i name="pawaedc"> -76346.65661974 </i>
    <i name="eentropy">      0.00249223 </i>
    <i name="bandstr">  24331.19500345 </i>
    <i name="atom"> 103951.18894314 </i>
    <i name="e_fr_energy">  10842.54197077 </i>
    <i name="e_wo_entrp">  10842.53947854 </i>
    <i name="e_0_energy">  10842.54114003 </i>
   </energy>
  </scstep>
  <scstep>
   <time name="diag">   62.19   62.94</time>
   <time name="diis">  100.52  101.63</time>
   <time name="orth">   28.25   28.49</time>
   <time name="total">  190.96  193.07</time>
   <energy>
    <i name="e_fr_energy">    878.22636304 </i>
    <i name="e_wo_entrp">    878.23624059 </i>
    <i name="e_0_energy">    878.22965556 </i>
   </energy>
  </scstep>
  <scstep>
   <time name="diag">   57.28   57.58</time>
   <time name="diis">  100.96  101.16</time>
   <time name="orth">   26.61   26.63</time>
   <time name="total">  184.86  185.38</time>
   <energy>
    <i name="e_fr_energy">   -948.86905260 </i>
    <i name="e_wo_entrp">   -948.87632095 </i>
    <i name="e_0_energy">   -948.87147538 </i>
   </energy>
  </scstep>
  <scstep>
   <time name="diag">   53.52   53.56</time>
   <time name="diis">  100.45  101.03</time>
   <time name="orth">   26.59   26.63</time>
   <time name="total">  180.57  181.23</time>
   <energy>
    <i name="e_fr_energy">  -1594.67502272 </i>
    <i name="e_wo_entrp">  -1594.68252229 </i>
    <i name="e_0_energy">  -1594.67752258 </i>
   </energy>
  </scstep>
  <scstep>
   <time name="diag">   53.93   53.96</time>
   <time name="diis">  100.88  101.28</time>
   <time name="orth">   25.93   26.11</time>
   <time name="total">  180.75  181.35</time>
   <energy>
    <i name="e_fr_energy">  -1821.73602926 </i>
    <i name="e_wo_entrp">  -1821.73511649 </i>
    <i name="e_0_energy">  -1821.73572501 </i>
   </energy>
  </scstep>
  <scstep>
   <time name="diag">   59.09   59.29</time>
   <time name="diis">  100.80  101.59</time>
   <time name="orth">   28.90   29.28</time>
   <time name="total">  188.79  190.16</time>
   <energy>
    <i name="e_fr_energy">  -1939.38277886 </i>
    <i name="e_wo_entrp">  -1939.38169699 </i>
    <i name="e_0_energy">  -1939.38241824 </i>
   </energy>
  </scstep>
  <scstep>
   <time name="diag">   60.97   61.29</time>
   <time name="diis">  100.72  101.34</time>
   <time name="orth">   26.89   26.90</time>
   <time name="total">  188.58  189.54</time>
   <energy>
    <i name="e_fr_energy">  -2003.52125352 </i>
    <i name="e_wo_entrp">  -2003.52313353 </i>
    <i name="e_0_energy">  -2003.52188019 </i>
   </energy>
  </scstep>
  <scstep>
   <time name="diag">   58.00   58.16</time>
   <time name="diis">  100.97  101.20</time>
   <time name="orth">   26.14   26.16</time>
   <time name="total">  185.11  185.53</time>
   <energy>
    <i name="e_fr_energy">  -2043.38966764 </i>
    <i name="e_wo_entrp">  -2043.39942303 </i>
    <i name="e_0_energy">  -2043.39291943 </i>
   </energy>
  </scstep>
  <scstep>
   <time name="diag">   52.92   53.04</time>
   <time name="diis">  299.67  300.35</time>
   <time name="orth">   28.39   28.59</time>
   <time name="total">  380.99  382.00</time>
   <energy>
    <i name="e_fr_energy">  -2111.17548663 </i>
    <i name="e_wo_entrp">  -2111.20604259 </i>
    <i name="e_0_energy">  -2111.18567195 </i>
   </energy>
  </scstep>
  <scstep>
   <time name="diag">   59.54   60.02</time>
   <time name="diis">  311.10  313.94</time>
   <time name="orth">   26.53   26.55</time>
   <time name="total">  397.17  400.52</time>
   <energy>
    <i name="e_fr_energy">  -2117.33613746 </i>
    <i name="e_wo_entrp">  -2117.37778788 </i>
    <i name="e_0_energy">  -2117.35002094 </i>
   </energy>
  </scstep>
  <scstep>
   <time name="diag">   52.64   53.05</time>
   <time name="diis">  301.64  302.84</time>
   <time name="orth">   25.15   25.59</time>
   <time name="total">  379.44  381.50</time>
   <energy>
    <i name="e_fr_energy">  -2118.68157408 </i>
    <i name="e_wo_entrp">  -2118.72516443 </i>
    <i name="e_0_energy">  -2118.69610420 </i>
   </energy>
  </scstep>
  <scstep>
   <time name="diag">   54.71   54.85</time>
   <time name="diis">  305.09  308.82</time>
   <time name="orth">   29.28   29.62</time>
   <time name="total">  395.82  400.11</time>
   <energy>
    <i name="e_fr_energy">  -2118.84286071 </i>
    <i name="e_wo_entrp">  -2118.88717282 </i>
    <i name="e_0_energy">  -2118.85763142 </i>
   </energy>
  </scstep>
  <scstep>
   <time name="diag">   56.53   56.95</time>
   <time name="diis">  214.73  215.30</time>
   <time name="orth">   25.85   25.95</time>
   <time name="total">  303.88  304.98</time>
   <energy>
    <i name="e_fr_energy">  -2000.20773287 </i>
    <i name="e_wo_entrp">  -2000.20355031 </i>
    <i name="e_0_energy">  -2000.20633868 </i>
   </energy>
  </scstep>
  <scstep>
   <time name="diag">   52.76   53.05</time>
   <time name="diis">  204.78  205.65</time>
   <time name="orth">   27.56   27.95</time>
   <time name="total">  291.94  293.56</time>
   <energy>
    <i name="e_fr_energy">  -1993.61379194 </i>
    <i name="e_wo_entrp">  -1993.63065734 </i>
    <i name="e_0_energy">  -1993.61941374 </i>
   </energy>
  </scstep>
  <scstep>
   <time name="diag">   57.64   58.23</time>
   <time name="diis">  216.51  219.70</time>
   <time name="orth">   28.96   29.11</time>
   <time name="total">  309.70  313.80</time>
   <energy>
    <i name="e_fr_energy">  -1981.53559340 </i>
    <i name="e_wo_entrp">  -1981.54512687 </i>
    <i name="e_0_energy">  -1981.53877122 </i>
   </energy>
  </scstep>
  <scstep>
   <time name="diag">   57.72   57.83</time>
   <time name="diis">  251.09  251.61</time>
   <time name="orth">   25.91   26.02</time>
   <time name="total">  341.57  342.33</time>
   <energy>
    <i name="e_fr_energy">  -1981.34259474 </i>
    <i name="e_wo_entrp">  -1981.35687886 </i>
    <i name="e_0_energy">  -1981.34735612 </i>
   </energy>
  </scstep>
  <scstep>
   <time name="diag">   53.26   53.54</time>
   <time name="diis">  219.31  220.02</time>
   <time name="orth">   27.60   27.80</time>
   <time name="total">  307.11  308.38</time>
   <energy>
    <i name="e_fr_energy">  -1980.68340393 </i>
    <i name="e_wo_entrp">  -1980.70282454 </i>
    <i name="e_0_energy">  -1980.68987747 </i>
   </energy>
  </scstep>
  <scstep>
   <time name="diag">   60.51   60.65</time>
   <time name="diis">  261.14  262.98</time>
   <time name="orth">   26.08   26.11</time>
   <time name="total">  354.81  356.83</time>
   <energy>
    <i name="e_fr_energy">  -1980.64045237 </i>
    <i name="e_wo_entrp">  -1980.66026605 </i>
    <i name="e_0_energy">  -1980.64705693 </i>
   </energy>
  </scstep>
  <scstep>
   <time name="diag">   51.94   52.27</time>
   <time name="diis">  227.37  227.80</time>
   <time name="orth">   25.91   25.92</time>
   <time name="total">  312.15  312.93</time>
   <energy>
    <i name="e_fr_energy">  -1980.58810495 </i>
    <i name="e_wo_entrp">  -1980.60782635 </i>
    <i name="e_0_energy">  -1980.59467875 </i>
   </energy>
  </scstep>
  <scstep>
   <time name="diag">   52.46   52.67</time>
   <time name="diis">  259.28  261.68</time>
   <time name="orth">   27.34   27.48</time>
   <time name="total">  346.28  349.05</time>
   <energy>
    <i name="e_fr_energy">  -1980.58778511 </i>
    <i name="e_wo_entrp">  -1980.60732386 </i>
    <i name="e_0_energy">  -1980.59429803 </i>
   </energy>
  </scstep>
  <scstep>
   <time name="diag">   63.00   63.81</time>
   <time name="diis">  236.29  237.13</time>
   <time name="orth">   25.77   25.86</time>
   <time name="total">  331.88  333.62</time>
   <energy>
    <i name="e_fr_energy">  -1980.58510278 </i>
    <i name="e_wo_entrp">  -1980.60437590 </i>
    <i name="e_0_energy">  -1980.59152716 </i>
   </energy>
  </scstep>
  <scstep>
   <time name="diag">   52.43   52.52</time>
   <time name="diis">  221.33  221.93</time>
   <time name="orth">   26.55   26.56</time>
   <time name="total">  307.39  308.10</time>
   <energy>
    <i name="e_fr_energy">  -1980.58294564 </i>
    <i name="e_wo_entrp">  -1980.60194994 </i>
    <i name="e_0_energy">  -1980.58928041 </i>
   </energy>
  </scstep>
  <scstep>
   <time name="diag">   54.52   54.65</time>
   <time name="diis">  237.02  239.57</time>
   <time name="orth">   30.17   30.63</time>
   <time name="total">  328.73  331.94</time>
   <energy>
    <i name="e_fr_energy">  -1980.58269807 </i>
    <i name="e_wo_entrp">  -1980.60169408 </i>
    <i name="e_0_energy">  -1980.58903008 </i>
   </energy>
  </scstep>
  <scstep>
   <time name="diag">   59.54   60.70</time>
   <time name="diis">  239.63  240.88</time>
   <time name="orth">   25.24   25.25</time>
   <time name="total">  331.40  333.84</time>
   <energy>
    <i name="e_fr_energy">  -1980.58243041 </i>
    <i name="e_wo_entrp">  -1980.60152622 </i>
    <i name="e_0_energy">  -1980.58879568 </i>
   </energy>
  </scstep>
  <scstep>
   <time name="diag">   52.21   52.24</time>
   <time name="diis">  233.38  234.84</time>
   <time name="orth">   26.45   27.08</time>
   <time name="total">  318.97  321.10</time>
   <energy>
    <i name="e_fr_energy">  -1980.58227528 </i>
    <i name="e_wo_entrp">  -1980.60145611 </i>
    <i name="e_0_energy">  -1980.58866889 </i>
   </energy>
  </scstep>
  <scstep>
   <time name="diag">   59.28   59.85</time>
   <time name="diis">  250.78  252.58</time>
   <time name="orth">   27.56   27.57</time>
   <time name="total">  337.75  340.15</time>
   <energy>
    <i name="alphaZ">  14146.51071896 </i>
    <i name="ewald">-127058.02705416 </i>
    <i name="hartreedc">  -6573.18671051 </i>
    <i name="XCdc">  -6140.18641843 </i>
    <i name="pawpsdc">  98795.80743132 </i>
    <i name="pawaedc"> -89165.60512426 </i>
    <i name="eentropy">      0.01920191 </i>
    <i name="bandstr">  10062.89677401 </i>
    <i name="atom"> 103951.18894314 </i>
    <i name="e_fr_energy">  -1980.58223802 </i>
    <i name="e_wo_entrp">  -1980.60143993 </i>
    <i name="e_0_energy">  -1980.58863866 </i>
   </energy>
  </scstep>
  <structure>
   <crystal>
    <varray name="basis" >
     <v>      -8.19811000      -4.73312000      12.97158000 </v>
     <v>      -0.00004000       9.46633000      12.97158000 </v>
     <v>      -8.19815000       4.73321000     -12.97158000 </v>
    </varray>
    <i name="volume">   3020.02524953 </i>
    <varray name="rec_basis" >
     <v>      -0.06098971      -0.03521278       0.02569720 </v>
     <v>       0.00000039       0.07042504       0.02569720 </v>
     <v>      -0.06098933       0.03521226      -0.02569720 </v>
    </varray>
   </crystal>
   <varray name="positions" >
    <v>       0.02777889       0.36111222       0.97222444 </v>
    <v>       0.97222111       0.30555444       0.69444222 </v>
    <v>       0.13889000       0.47222333       0.86111333 </v>
    <v>       0.08333222       0.41666556       0.58333111 </v>
    <v>       0.58333444       0.25000111       0.75000222 </v>
    <v>       0.52777667       0.19444333       0.47222000 </v>
    <v>       0.25000111       0.25000111       0.41666889 </v>
    <v>       0.19444333       0.19444333       0.13888667 </v>
    <v>       0.91666778       0.25000111       0.08333556 </v>
    <v>       0.86111000       0.19444333       0.80555333 </v>
    <v>       0.25000111       0.58333444       0.75000222 </v>
    <v>       0.19444333       0.52777667       0.47222000 </v>
    <v>       0.91666778       0.58333444       0.41666889 </v>
    <v>       0.86111000       0.52777667       0.13888667 </v>
    <v>       0.91666778       0.91666778       0.75000222 </v>
    <v>       0.86111000       0.86111000       0.47222000 </v>
    <v>       0.69444556       0.36111222       0.63889111 </v>
    <v>       0.63888778       0.30555444       0.36110889 </v>
    <v>       0.36111222       0.36111222       0.30555778 </v>
    <v>       0.30555444       0.30555444       0.02777556 </v>
    <v>       0.69444556       0.69444556       0.97222444 </v>
    <v>       0.63888778       0.63888778       0.69444222 </v>
    <v>       0.36111222       0.69444556       0.63889111 </v>
    <v>       0.30555444       0.63888778       0.36110889 </v>
    <v>       0.02777889       0.69444556       0.30555778 </v>
    <v>       0.97222111       0.63888778       0.02777556 </v>
    <v>       0.36111222       0.02777889       0.97222444 </v>
    <v>       0.30555444       0.97222111       0.69444222 </v>
    <v>       0.02777889       0.02777889       0.63889111 </v>
    <v>       0.97222111       0.97222111       0.36110889 </v>
    <v>       0.80555667       0.47222333       0.52778000 </v>
    <v>       0.74999889       0.41666556       0.24999778 </v>
    <v>       0.47222333       0.47222333       0.19444667 </v>
    <v>       0.41666556       0.41666556       0.91666444 </v>
    <v>       0.80555667       0.80555667       0.86111333 </v>
    <v>       0.74999889       0.74999889       0.58333111 </v>
    <v>       0.47222333       0.80555667       0.52778000 </v>
    <v>       0.41666556       0.74999889       0.24999778 </v>
    <v>       0.13889000       0.80555667       0.19444667 </v>
    <v>       0.08333222       0.74999889       0.91666444 </v>
    <v>       0.47222333       0.13889000       0.86111333 </v>
    <v>       0.41666556       0.08333222       0.58333111 </v>
    <v>       0.13889000       0.13889000       0.52778000 </v>
    <v>       0.08333222       0.08333222       0.24999778 </v>
    <v>       0.58333444       0.58333444       0.08333556 </v>
    <v>       0.52777667       0.52777667       0.80555333 </v>
    <v>       0.58333444       0.91666778       0.41666889 </v>
    <v>       0.52777667       0.86111000       0.13888667 </v>
    <v>       0.25000111       0.91666778       0.08333556 </v>
    <v>       0.19444333       0.86111000       0.80555333 </v>
    <v>       0.69444556       0.02777889       0.30555778 </v>
    <v>       0.63888778       0.97222111       0.02777556 </v>
    <v>       0.80555667       0.13889000       0.19444667 </v>
    <v>       0.74999889       0.08333222       0.91666444 </v>
    <v>       0.86084889       0.36163556       0.80581778 </v>
    <v>       0.86085222       0.19418556       0.63837111 </v>
    <v>       0.02830222       0.19418222       0.80581778 </v>
    <v>       0.13915111       0.30503111       0.86084889 </v>
    <v>       0.97169778       0.47248111       0.86084556 </v>
    <v>       0.13914778       0.47248111       0.02829556 </v>
    <v>       0.97196000       0.47274667       0.69470667 </v>
    <v>       0.97196333       0.30529667       0.52726000 </v>
    <v>       0.13941333       0.30529333       0.69470667 </v>
    <v>       0.25026222       0.41614222       0.74973778 </v>
    <v>       0.08280889       0.58359222       0.74973444 </v>
    <v>       0.25025889       0.58359222       0.91718444 </v>
    <v>       0.41640778       0.25052444       0.58359889 </v>
    <v>       0.41640778       0.08307444       0.41614889 </v>
    <v>       0.58385778       0.08307444       0.58359889 </v>
    <v>       0.69470667       0.19392000       0.63862667 </v>
    <v>       0.52725333       0.36137333       0.63862667 </v>
    <v>       0.69470333       0.36137000       0.80607333 </v>
    <v>       0.08307111       0.25052444       0.25026222 </v>
    <v>       0.08307444       0.08307444       0.08281556 </v>
    <v>       0.25052444       0.08307111       0.25026222 </v>
    <v>       0.36137000       0.19392000       0.30529000 </v>
    <v>       0.19392000       0.36137000       0.30529000 </v>
    <v>       0.36137000       0.36137000       0.47274000 </v>
    <v>       0.74692444       0.25155778       0.91692889 </v>
    <v>       0.74974111       0.08307444       0.74948222 </v>
    <v>       0.91719111       0.08307111       0.91692889 </v>
    <v>       0.02804000       0.19392000       0.97196000 </v>
    <v>       0.86058667       0.36137000       0.97195667 </v>
    <v>       0.02803667       0.36137000       0.13940667 </v>
    <v>       0.08307111       0.58385778       0.58359556 </v>
    <v>       0.08307444       0.41640778       0.41614889 </v>
    <v>       0.25052444       0.41640444       0.58359556 </v>
    <v>       0.36137333       0.52725333       0.63862667 </v>
    <v>       0.19392000       0.69470333       0.63862333 </v>
    <v>       0.36137000       0.69470333       0.80607333 </v>
    <v>       0.74974111       0.58385778       0.25026556 </v>
    <v>       0.74974111       0.41640778       0.08281556 </v>
    <v>       0.91719111       0.41640444       0.25026222 </v>
    <v>       0.02804000       0.52725333       0.30529333 </v>
    <v>       0.86058667       0.69470333       0.30529000 </v>
    <v>       0.02803667       0.69470333       0.47274000 </v>
    <v>       0.74973778       0.91719111       0.58359556 </v>
    <v>       0.74974111       0.74974111       0.41614889 </v>
    <v>       0.91719111       0.74973778       0.58359556 </v>
    <v>       0.02803667       0.86058667       0.63862333 </v>
    <v>       0.86058667       0.02803667       0.63862333 </v>
    <v>       0.02803667       0.02803667       0.80607333 </v>
    <v>       0.52751556       0.36163556       0.47248444 </v>
    <v>       0.52751889       0.19418556       0.30503778 </v>
    <v>       0.69496889       0.19418556       0.47248778 </v>
    <v>       0.80581778       0.30503111       0.52751556 </v>
    <v>       0.63836444       0.47248111       0.52751222 </v>
    <v>       0.80581444       0.47248111       0.69496222 </v>
    <v>       0.19418222       0.36163556       0.13915111 </v>
    <v>       0.19418556       0.19418556       0.97170444 </v>
    <v>       0.36163556       0.19418556       0.13915444 </v>
    <v>       0.47248111       0.30503111       0.19417889 </v>
    <v>       0.30503111       0.47248444       0.19418222 </v>
    <v>       0.47248111       0.47248111       0.36162889 </v>
    <v>       0.52751556       0.69496889       0.80581778 </v>
    <v>       0.52751889       0.52751889       0.63837111 </v>
    <v>       0.69496889       0.52751889       0.80582111 </v>
    <v>       0.80581444       0.63836444       0.86084556 </v>
    <v>       0.63836444       0.80581778       0.86084889 </v>
    <v>       0.80581444       0.80581444       0.02829556 </v>
    <v>       0.19418222       0.69496889       0.47248444 </v>
    <v>       0.19418556       0.52751889       0.30503778 </v>
    <v>       0.36163556       0.52751556       0.47248444 </v>
    <v>       0.47248444       0.63836444       0.52751556 </v>
    <v>       0.30503111       0.80581444       0.52751222 </v>
    <v>       0.47248111       0.80581444       0.69496222 </v>
    <v>       0.86085222       0.69496889       0.13915444 </v>
    <v>       0.86085222       0.52751889       0.97170444 </v>
    <v>       0.02830222       0.52751889       0.13915444 </v>
    <v>       0.13914778       0.63836444       0.19417889 </v>
    <v>       0.97169778       0.80581444       0.19417889 </v>
    <v>       0.13914778       0.80581444       0.36162889 </v>
    <v>       0.19418222       0.02830222       0.80581778 </v>
    <v>       0.19418556       0.86085222       0.63837111 </v>
    <v>       0.36163556       0.86085222       0.80582111 </v>
    <v>       0.47248444       0.97169778       0.86084889 </v>
    <v>       0.30503111       0.13914778       0.86084556 </v>
    <v>       0.47248111       0.13914778       0.02829556 </v>
    <v>       0.86084889       0.02830222       0.47248444 </v>
    <v>       0.86085222       0.86085222       0.30503778 </v>
    <v>       0.02830222       0.86084889       0.47248444 </v>
    <v>       0.13914778       0.97169778       0.52751222 </v>
    <v>       0.97169778       0.13914778       0.52751222 </v>
    <v>       0.13914778       0.13914778       0.69496222 </v>
    <v>       0.63862667       0.47274667       0.36137333 </v>
    <v>       0.63863000       0.30529667       0.19392667 </v>
    <v>       0.80608000       0.30529667       0.36137667 </v>
    <v>       0.91692889       0.41614222       0.41640444 </v>
    <v>       0.74947556       0.58359556       0.41640444 </v>
    <v>       0.91692556       0.58359222       0.58385111 </v>
    <v>       0.30529333       0.47274667       0.02804000 </v>
    <v>       0.30529667       0.30529667       0.86059333 </v>
    <v>       0.47274667       0.30529333       0.02804000 </v>
    <v>       0.58359222       0.41614222       0.08306778 </v>
    <v>       0.41614222       0.58359222       0.08306778 </v>
    <v>       0.58359222       0.58359222       0.25051778 </v>
    <v>       0.63863000       0.80608000       0.69471000 </v>
    <v>       0.63863000       0.63863000       0.52726000 </v>
    <v>       0.80608000       0.63863000       0.69471000 </v>
    <v>       0.91692556       0.74947556       0.74973444 </v>
    <v>       0.74947556       0.91692889       0.74973778 </v>
    <v>       0.91692556       0.91692556       0.91718444 </v>
    <v>       0.30529333       0.80608000       0.36137333 </v>
    <v>       0.30529667       0.63863000       0.19392667 </v>
    <v>       0.47274667       0.63862667       0.36137333 </v>
    <v>       0.58359556       0.74947556       0.41640444 </v>
    <v>       0.41614222       0.91692556       0.41640111 </v>
    <v>       0.58359222       0.91692556       0.58385111 </v>
    <v>       0.97196000       0.80608000       0.02804000 </v>
    <v>       0.97196333       0.63863000       0.86059333 </v>
    <v>       0.13941333       0.63863000       0.02804333 </v>
    <v>       0.25025889       0.74947556       0.08306778 </v>
    <v>       0.08280889       0.91692556       0.08306778 </v>
    <v>       0.25025889       0.91692556       0.25051778 </v>
    <v>       0.30529667       0.13941333       0.69471000 </v>
    <v>       0.30529667       0.97196333       0.52726000 </v>
    <v>       0.47274667       0.97196333       0.69471000 </v>
    <v>       0.58359222       0.08280889       0.74973444 </v>
    <v>       0.41614222       0.25025889       0.74973444 </v>
    <v>       0.58359222       0.25025889       0.91718444 </v>
    <v>       0.97196000       0.13941333       0.36137333 </v>
    <v>       0.97196333       0.97196333       0.19392667 </v>
    <v>       0.13941333       0.97196000       0.36137333 </v>
    <v>       0.25025889       0.08280889       0.41640111 </v>
    <v>       0.08280889       0.25025889       0.41640111 </v>
    <v>       0.25025889       0.25025889       0.58385111 </v>
    <v>       0.41640778       0.58385778       0.91693222 </v>
    <v>       0.41640778       0.41640778       0.74948222 </v>
    <v>       0.58385778       0.41640444       0.91692889 </v>
    <v>       0.69470667       0.52725333       0.97196000 </v>
    <v>       0.52725333       0.69470333       0.97195667 </v>
    <v>       0.69470333       0.69470333       0.13940667 </v>
    <v>       0.41640444       0.91719111       0.25026222 </v>
    <v>       0.41640778       0.74974111       0.08281556 </v>
    <v>       0.58385778       0.74973778       0.25026222 </v>
    <v>       0.69470667       0.86058667       0.30529333 </v>
    <v>       0.52725333       0.02803667       0.30529000 </v>
    <v>       0.69470333       0.02803667       0.47274000 </v>
    <v>       0.08307444       0.91719111       0.91693222 </v>
    <v>       0.08307444       0.74974111       0.74948222 </v>
    <v>       0.25052444       0.74973778       0.91692889 </v>
    <v>       0.36137333       0.86058667       0.97196000 </v>
    <v>       0.19392000       0.02803667       0.97195667 </v>
    <v>       0.36137000       0.02803667       0.13940667 </v>
    <v>       0.52751556       0.02830222       0.13915111 </v>
    <v>       0.52751889       0.86085222       0.97170444 </v>
    <v>       0.69496889       0.86084889       0.13915111 </v>
    <v>       0.80581778       0.97169778       0.19418222 </v>
    <v>       0.63836444       0.13914778       0.19417889 </v>
    <v>       0.80581444       0.13914778       0.36162889 </v>
    <v>       0.63862667       0.13941333       0.02804000 </v>
    <v>       0.63863000       0.97196333       0.86059333 </v>
    <v>       0.80608000       0.97196000       0.02804000 </v>
    <v>       0.91692556       0.08280889       0.08306778 </v>
    <v>       0.74947556       0.25025889       0.08306778 </v>
    <v>       0.91692556       0.25025889       0.25051778 </v>
   </varray>
  </structure>
  <varray name="forces" >
   <v>       0.00399816      -0.00351504      -0.00781795 </v>
   <v>      -0.00112850       0.00082652       0.00335978 </v>
   <v>       0.00032210      -0.00025739      -0.00372388 </v>
   <v>      -0.00057440       0.00057685       0.00250603 </v>
   <v>       0.03070281       0.01421199      -0.00517350 </v>
   <v>       0.00183419       0.00007591       0.00151994 </v>
   <v>       0.00826791      -0.00133191      -0.00252382 </v>
   <v>      -0.00233618      -0.00053535       0.00465539 </v>
   <v>       0.04776732      -0.01166497      -0.00607961 </v>
   <v>       0.00115880       0.08544645      -0.07896288 </v>
   <v>      -0.00166615      -0.00313546      -0.00243866 </v>
   <v>       0.00013216       0.00061607       0.00203184 </v>
   <v>       0.00020730      -0.00064146      -0.00295743 </v>
   <v>       0.00178184       0.00186856      -0.00008734 </v>
   <v>       0.00534032       0.00617162      -0.00228794 </v>
   <v>       0.00000676      -0.00152340       0.00311618 </v>
   <v>       0.00130332      -0.00506764      -0.00423098 </v>
   <v>       0.00134768      -0.00040441       0.00399914 </v>
   <v>       0.00205612      -0.00049687      -0.00389008 </v>
   <v>      -0.00112062      -0.00217985       0.00567262 </v>
   <v>      -0.00015381      -0.00091180      -0.00521439 </v>
   <v>      -0.00153350      -0.00107514       0.00360873 </v>
   <v>       0.00085331      -0.00033207      -0.00231697 </v>
   <v>      -0.00133643       0.00066980       0.00333429 </v>
   <v>       0.00115569      -0.00034566      -0.00278723 </v>
   <v>       0.00050553       0.00165942       0.00463025 </v>
   <v>       0.00145762       0.00000385      -0.00279135 </v>
   <v>      -0.00039009       0.00164343       0.00233281 </v>
   <v>       0.00077705      -0.00205116      -0.00379742 </v>
   <v>      -0.00012463      -0.00017305       0.00180013 </v>
   <v>       0.00007389      -0.00116671      -0.00342581 </v>
   <v>      -0.00292848       0.00227903       0.00473880 </v>
   <v>       0.00181498      -0.00080224      -0.00149421 </v>
   <v>       0.00515582       0.00454133       0.00044602 </v>
   <v>       0.00050598       0.00052610      -0.00358086 </v>
   <v>       0.00071354      -0.00148881       0.00327420 </v>
   <v>       0.00104261       0.00008738      -0.00200066 </v>
   <v>      -0.00089102      -0.00032909       0.00213363 </v>
   <v>       0.00028176      -0.00079858      -0.00305071 </v>
   <v>      -0.00024550      -0.00018131       0.00380958 </v>
   <v>       0.00536538       0.00026672      -0.00430238 </v>
   <v>      -0.00097140       0.00016916       0.00467788 </v>
   <v>       0.00183520      -0.00004431      -0.00381729 </v>
   <v>       0.00085700      -0.00170750       0.00196099 </v>
   <v>       0.00682249       0.00708437      -0.00282812 </v>
   <v>      -0.00083240       0.00448198       0.00393433 </v>
   <v>       0.00039537      -0.00006527      -0.00285214 </v>
   <v>      -0.00057241      -0.00031874       0.00338305 </v>
   <v>      -0.00063211      -0.00237115      -0.00281219 </v>
   <v>      -0.00025147      -0.00071611       0.00330400 </v>
   <v>       0.00013609      -0.00060609      -0.00362342 </v>
   <v>      -0.00037321       0.00095536       0.00395970 </v>
   <v>       0.00005765       0.00167736      -0.00195070 </v>
   <v>       0.00133698       0.00092849       0.00435548 </v>
   <v>       0.00280652      -0.00485813      -0.01930667 </v>
   <v>      -0.00467578       0.00524864       0.00045375 </v>
   <v>       0.00638751       0.00676070      -0.00458576 </v>
   <v>       0.00260461       0.00812483      -0.00516767 </v>
   <v>      -0.00577335      -0.00410517       0.00293909 </v>
   <v>       0.00253079      -0.00224547       0.00365480 </v>
   <v>       0.00077946      -0.00630533      -0.00274140 </v>
   <v>      -0.00448899       0.00296706      -0.00164746 </v>
   <v>       0.00577963       0.00288297      -0.00322049 </v>
   <v>       0.00120470       0.00739204       0.00345655 </v>
   <v>      -0.00600148      -0.00357406       0.00190411 </v>
   <v>       0.00447429      -0.00368564       0.00148884 </v>
   <v>       0.01302286      -0.00842950      -0.00283050 </v>
   <v>      -0.00529787       0.00268594      -0.00237779 </v>
   <v>       0.01311566       0.00739993      -0.00148268 </v>
   <v>      -0.01097889       0.00460010       0.00321353 </v>
   <v>      -0.00312123      -0.00523322       0.00476979 </v>
   <v>       0.01394668       0.00780411       0.01909008 </v>
   <v>       0.01113868      -0.00624908      -0.00303101 </v>
   <v>       0.00286964       0.00890096      -0.00129675 </v>
   <v>       0.00344876       0.00198364      -0.00174766 </v>
   <v>       0.00008473       0.00686075       0.00286726 </v>
   <v>      -0.00624528      -0.00183028       0.00260579 </v>
   <v>       0.00526068      -0.00400070       0.00154595 </v>
   <v>      -0.34873393      -0.35041951       0.33967180 </v>
   <v>       0.00374599       0.00013375      -0.00494047 </v>
   <v>       0.00936848       0.04191950      -0.00508265 </v>
   <v>       0.01911669       0.01521653      -0.01731866 </v>
   <v>       0.04243192      -0.02267519      -0.04091399 </v>
   <v>       0.00868698      -0.00565604       0.00338360 </v>
   <v>       0.00068944      -0.00628283      -0.00001904 </v>
   <v>      -0.00608308       0.00267825      -0.00202630 </v>
   <v>       0.00437081       0.00285297      -0.00117875 </v>
   <v>       0.00104270       0.00731785       0.00167775 </v>
   <v>      -0.00569262      -0.00257335       0.00179943 </v>
   <v>       0.00444725      -0.00258630       0.00179083 </v>
   <v>      -0.00151951      -0.00446926      -0.00389834 </v>
   <v>      -0.01911127       0.02646838      -0.00374241 </v>
   <v>       0.01173015       0.00915013      -0.00151993 </v>
   <v>      -0.00067369       0.00637348       0.00179223 </v>
   <v>      -0.00695438      -0.00125095       0.00221641 </v>
   <v>       0.00420739      -0.00349540       0.00163858 </v>
   <v>      -0.00522718      -0.00097017      -0.00290157 </v>
   <v>      -0.00637363       0.00272871      -0.00196052 </v>
   <v>       0.00663555       0.00204516      -0.00202341 </v>
   <v>      -0.00081829       0.00705605       0.00199790 </v>
   <v>      -0.00495510       0.00118456      -0.00185215 </v>
   <v>       0.00471997       0.00278971       0.00082634 </v>
   <v>      -0.00226089      -0.00689200      -0.00182086 </v>
   <v>      -0.00411337       0.00287206      -0.00145413 </v>
   <v>       0.00569680       0.00314106      -0.00312339 </v>
   <v>      -0.00246896       0.00477780      -0.00302208 </v>
   <v>      -0.00778811      -0.00254225       0.00285944 </v>
   <v>       0.00551347      -0.00138901       0.00290278 </v>
   <v>      -0.00146457      -0.00646870      -0.00201010 </v>
   <v>      -0.00578664       0.00244624      -0.00044065 </v>
   <v>       0.00670293       0.00265644      -0.00212592 </v>
   <v>      -0.00345916       0.00741908      -0.00557449 </v>
   <v>      -0.00505373      -0.00348185       0.00141859 </v>
   <v>       0.00594997      -0.00392528       0.00149381 </v>
   <v>       0.00041019      -0.00879551      -0.00130925 </v>
   <v>      -0.00471280       0.00381287      -0.00311553 </v>
   <v>       0.00537532       0.00377834      -0.00099502 </v>
   <v>      -0.00227977       0.00612500      -0.00275948 </v>
   <v>      -0.00544375      -0.00258522       0.00232565 </v>
   <v>       0.00423303      -0.00355338       0.00143793 </v>
   <v>      -0.00017794      -0.00626439      -0.00236311 </v>
   <v>      -0.00431893       0.00230462      -0.00174187 </v>
   <v>       0.00645975       0.00416361      -0.00099056 </v>
   <v>       0.00143091       0.00829059       0.00240215 </v>
   <v>      -0.00615506      -0.00409633       0.00222617 </v>
   <v>       0.00410005      -0.00210490       0.00127870 </v>
   <v>      -0.00004697      -0.00714737      -0.00154559 </v>
   <v>      -0.00524381       0.00142341      -0.00210623 </v>
   <v>       0.00492388       0.00423350      -0.00298520 </v>
   <v>      -0.00083861       0.00655736       0.00273977 </v>
   <v>      -0.00635475      -0.00242834       0.00047421 </v>
   <v>       0.00514162      -0.00327418       0.00276511 </v>
   <v>      -0.00084672      -0.00843070      -0.00176214 </v>
   <v>      -0.00455416       0.00293825      -0.00223158 </v>
   <v>       0.00685001       0.00406427      -0.00270324 </v>
   <v>      -0.00050565       0.00403963      -0.00503151 </v>
   <v>      -0.00865518      -0.00255179       0.00441919 </v>
   <v>       0.00639531      -0.00188256       0.00253185 </v>
   <v>       0.00018921      -0.00820198      -0.00163526 </v>
   <v>      -0.00470208       0.00308218      -0.00259313 </v>
   <v>       0.00612559       0.00345410      -0.00188577 </v>
   <v>      -0.00095133       0.00748953       0.00282640 </v>
   <v>      -0.00526844      -0.00311528       0.00364046 </v>
   <v>       0.00401952      -0.00540759       0.00486890 </v>
   <v>      -0.00044779      -0.00728886      -0.00095051 </v>
   <v>      -0.00689937       0.00274572      -0.00397490 </v>
   <v>       0.00713531       0.00211380      -0.00266767 </v>
   <v>       0.00069406       0.00621856       0.00295349 </v>
   <v>      -0.00634655      -0.00231592       0.00182428 </v>
   <v>       0.00364699      -0.00314444       0.00272789 </v>
   <v>      -0.00123446      -0.00894899      -0.00206106 </v>
   <v>      -0.00690061       0.00159470      -0.00322640 </v>
   <v>       0.00728905       0.00757136      -0.00488930 </v>
   <v>      -0.00751147       0.02452503      -0.01228684 </v>
   <v>      -0.00560859      -0.00342073       0.00426749 </v>
   <v>       0.00619831      -0.00594863       0.00181256 </v>
   <v>       0.00144897      -0.00779043      -0.00093125 </v>
   <v>      -0.00533671       0.00327478      -0.00286558 </v>
   <v>       0.00608673       0.00209170      -0.00156520 </v>
   <v>      -0.00050346       0.00713148       0.00301559 </v>
   <v>      -0.00757231      -0.00258366       0.00427902 </v>
   <v>       0.00889521      -0.00028161       0.00178593 </v>
   <v>       0.00007992      -0.00637026      -0.00267673 </v>
   <v>      -0.00451763       0.00315650      -0.00214265 </v>
   <v>       0.00598619       0.00428792      -0.00154224 </v>
   <v>      -0.00027399       0.00753724       0.00286755 </v>
   <v>      -0.00611585      -0.00270349       0.00125837 </v>
   <v>       0.00352671       0.00017433       0.00119733 </v>
   <v>      -0.00133492      -0.00790356      -0.00156645 </v>
   <v>      -0.00474013       0.00304891      -0.00171111 </v>
   <v>       0.00697412       0.00407338      -0.00253280 </v>
   <v>       0.00027312       0.00707151       0.00238880 </v>
   <v>      -0.00727182      -0.00023630      -0.00016094 </v>
   <v>       0.00497997      -0.00212878       0.00072632 </v>
   <v>      -0.00112477      -0.00628425      -0.00295297 </v>
   <v>      -0.00454001       0.00212850      -0.00172364 </v>
   <v>       0.00639278       0.00256455      -0.00215052 </v>
   <v>       0.00826972      -0.00652607      -0.00714667 </v>
   <v>      -0.00131784      -0.00001885      -0.00147508 </v>
   <v>       0.09292985       0.04912294      -0.10049995 </v>
   <v>      -0.00133756      -0.00711588      -0.00239122 </v>
   <v>      -0.00424354       0.00215695      -0.00410498 </v>
   <v>       0.00588729       0.00305898      -0.00163635 </v>
   <v>      -0.00016621       0.00726127       0.00237291 </v>
   <v>      -0.00713019      -0.00140816       0.00219653 </v>
   <v>       0.00539054      -0.00377704       0.00294937 </v>
   <v>       0.00954524       0.01418578      -0.00364333 </v>
   <v>       0.00298586       0.01077864      -0.00107007 </v>
   <v>       0.04665344       0.03820807      -0.00389194 </v>
   <v>      -0.00599499       0.00403516       0.00917587 </v>
   <v>      -0.00358781      -0.00129038       0.00006663 </v>
   <v>       0.00336301      -0.00278511       0.00250205 </v>
   <v>       0.00016147      -0.00680243       0.00037997 </v>
   <v>      -0.00668698       0.00102757      -0.00202625 </v>
   <v>       0.00652268       0.00273450      -0.00247426 </v>
[...]
       <r>     8.3504   173.6637  1646.4558 </r>
       <r>     8.3993   185.6279  1655.5245 </r>
       <r>     8.4482   203.2950  1665.4563 </r>
       <r>     8.4970   197.0120  1675.0812 </r>
       <r>     8.5459   169.6398  1683.3688 </r>
       <r>     8.5947   135.3566  1689.9815 </r>
       <r>     8.6436   117.7275  1695.7330 </r>
       <r>     8.6924   131.9280  1702.1782 </r>
       <r>     8.7413   166.6701  1710.3208 </r>
       <r>     8.7901   202.9235  1720.2344 </r>
       <r>     8.8390   228.0971  1731.3779 </r>
       <r>     8.8878   232.9788  1742.7599 </r>
       <r>     8.9367   208.5644  1752.9491 </r>
       <r>     8.9856   165.6630  1761.0424 </r>
       <r>     9.0344   137.7934  1767.7742 </r>
       <r>     9.0833   137.9150  1774.5119 </r>
       <r>     9.1321   150.5773  1781.8683 </r>
       <r>     9.1810   166.8000  1790.0171 </r>
       <r>     9.2298   185.0049  1799.0554 </r>
       <r>     9.2787   196.9876  1808.6791 </r>
       <r>     9.3275   204.4842  1818.6690 </r>
       <r>     9.3764   225.2357  1829.6727 </r>
       <r>     9.4252   250.3977  1841.9056 </r>
       <r>     9.4741   247.8455  1854.0139 </r>
       <r>     9.5229   222.3489  1864.8766 </r>
       <r>     9.5718   206.6665  1874.9731 </r>
       <r>     9.6207   221.4638  1885.7925 </r>
       <r>     9.6695   257.1051  1898.3532 </r>
       <r>     9.7184   285.7734  1912.3144 </r>
       <r>     9.7672   299.4700  1926.9447 </r>
       <r>     9.8161   307.3526  1941.9602 </r>
       <r>     9.8649   308.6690  1957.0399 </r>
       <r>     9.9138   293.2853  1971.3681 </r>
       <r>     9.9626   279.5187  1985.0238 </r>
       <r>    10.0115   308.3384  2000.0874 </r>
       <r>    10.0603   373.0269  2018.3113 </r>
       <r>    10.1092   415.2004  2038.5956 </r>
       <r>    10.1581   411.7127  2058.7095 </r>
       <r>    10.2069   397.1216  2078.1105 </r>
       <r>    10.2558   393.4781  2097.3335 </r>
       <r>    10.3046   382.4873  2116.0196 </r>
       <r>    10.3535   347.8417  2133.0131 </r>
       <r>    10.4023   298.3203  2147.5873 </r>
       <r>    10.4512   241.6081  2159.3909 </r>
       <r>    10.5000   173.8035  2167.8819 </r>
       <r>    10.5489    99.6754  2172.7514 </r>
       <r>    10.5977    39.0373  2174.6586 </r>
       <r>    10.6466     6.8967  2174.9955 </r>
       <r>    10.6954    -1.8974  2174.9028 </r>
       <r>    10.7443    -1.6445  2174.8225 </r>
       <r>    10.7932    -0.5827  2174.7940 </r>
       <r>    10.8420    -0.1811  2174.7852 </r>
       <r>    10.8909    -0.0607  2174.7822 </r>
       <r>    10.9397    -0.0162  2174.7814 </r>
       <r>    10.9886    -0.0028  2174.7813 </r>
       <r>    11.0374    -0.0003  2174.7813 </r>
       <r>    11.0863    -0.0000  2174.7813 </r>
       <r>    11.1351    -0.0000  2174.7813 </r>
       <r>    11.1840    -0.0000  2174.7813 </r>
       <r>    11.2328    -0.0000  2174.7812 </r>
       <r>    11.2817    -0.0000  2174.7812 </r>
       <r>    11.3306    -0.0000  2174.7812 </r>
       <r>    11.3794    -0.0000  2174.7812 </r>
       <r>    11.4283    -0.0000  2174.7812 </r>
       <r>    11.4771    -0.0000  2174.7812 </r>
       <r>    11.5260    -0.0000  2174.7812 </r>
       <r>    11.5748    -0.0000  2174.7812 </r>
       <r>    11.6237    -0.0000  2174.7812 </r>
       <r>    11.6725    -0.0000  2174.7812 </r>
       <r>    11.7214    -0.0000  2174.7812 </r>
       <r>    11.7702    -0.0000  2174.7812 </r>
       <r>    11.8191    -0.0000  2174.7812 </r>
       <r>    11.8679    -0.0001  2174.7812 </r>
       <r>    11.9168    -0.0008  2174.7812 </r>
       <r>    11.9657    -0.0058  2174.7809 </r>
       <r>    12.0145    -0.0210  2174.7799 </r>
       <r>    12.0634    -0.0191  2174.7790 </r>
       <r>    12.1122     0.1008  2174.7839 </r>
       <r>    12.1611     0.3423  2174.8006 </r>
       <r>    12.2099     0.4532  2174.8228 </r>
       <r>    12.2588     0.4371  2174.8441 </r>
       <r>    12.3076     0.7926  2174.8828 </r>
       <r>    12.3565     1.7206  2174.9669 </r>
       <r>    12.4053     2.7240  2175.1000 </r>
       <r>    12.4542     3.0120  2175.2471 </r>
       <r>    12.5031     2.3543  2175.3621 </r>
       <r>    12.5519     1.5143  2175.4361 </r>
       <r>    12.6008     1.2453  2175.4969 </r>
       <r>    12.6496     1.3043  2175.5607 </r>
       <r>    12.6985     1.1708  2175.6179 </r>
       <r>    12.7473     1.0351  2175.6684 </r>
       <r>    12.7962     1.0773  2175.7211 </r>
       <r>    12.8450     1.0569  2175.7727 </r>
       <r>    12.8939     1.1242  2175.8276 </r>
       <r>    12.9427     1.4374  2175.8978 </r>
       <r>    12.9916     1.3908  2175.9658 </r>
       <r>    13.0404     0.7177  2176.0008 </r>
       <r>    13.0893     0.1015  2176.0058 </r>
       <r>    13.1382    -0.0706  2176.0024 </r>
       <r>    13.1870    -0.0387  2176.0005 </r>
       <r>    13.2359    -0.0085  2176.0001 </r>
       <r>    13.2847    -0.0010  2176.0000 </r>
       <r>    13.3336    -0.0001  2176.0000 </r>
       <r>    13.3824    -0.0000  2176.0000 </r>
       <r>    13.4313    -0.0000  2176.0000 </r>
       <r>    13.4801    -0.0000  2176.0000 </r>
       <r>    13.5290    -0.0000  2176.0000 </r>
       <r>    13.5778    -0.0000  2176.0000 </r>
       <r>    13.6267    -0.0000  2176.0000 </r>
       <r>    13.6756     0.0000  2176.0000 </r>
       <r>    13.7244     0.0000  2176.0000 </r>
       <r>    13.7733     0.0000  2176.0000 </r>
       <r>    13.8221     0.0000  2176.0000 </r>
       <r>    13.8710     0.0000  2176.0000 </r>
       <r>    13.9198     0.0000  2176.0000 </r>
       <r>    13.9687     0.0000  2176.0000 </r>
      </set>
     </set>
    </array>
   </total>
  </dos>
 </calculation>
 <structure name="finalpos" >
  <crystal>
   <varray name="basis" >
    <v>      -8.19811000      -4.73312000      12.97158000 </v>
    <v>      -0.00004000       9.46633000      12.97158000 </v>
    <v>      -8.19815000       4.73321000     -12.97158000 </v>
   </varray>
   <i name="volume">   3020.02524953 </i>
   <varray name="rec_basis" >
    <v>      -0.06098971      -0.03521278       0.02569720 </v>
    <v>       0.00000039       0.07042504       0.02569720 </v>
    <v>      -0.06098933       0.03521226      -0.02569720 </v>
   </varray>
  </crystal>
  <varray name="positions" >
   <v>       0.02777889       0.36111222       0.97222444 </v>
   <v>       0.97222111       0.30555444       0.69444222 </v>
   <v>       0.13889000       0.47222333       0.86111333 </v>
   <v>       0.08333222       0.41666556       0.58333111 </v>
   <v>       0.58333444       0.25000111       0.75000222 </v>
   <v>       0.52777667       0.19444333       0.47222000 </v>
   <v>       0.25000111       0.25000111       0.41666889 </v>
   <v>       0.19444333       0.19444333       0.13888667 </v>
   <v>       0.91666778       0.25000111       0.08333556 </v>
   <v>       0.86111000       0.19444333       0.80555333 </v>
   <v>       0.25000111       0.58333444       0.75000222 </v>
   <v>       0.19444333       0.52777667       0.47222000 </v>
   <v>       0.91666778       0.58333444       0.41666889 </v>
   <v>       0.86111000       0.52777667       0.13888667 </v>
   <v>       0.91666778       0.91666778       0.75000222 </v>
   <v>       0.86111000       0.86111000       0.47222000 </v>
   <v>       0.69444556       0.36111222       0.63889111 </v>
   <v>       0.63888778       0.30555444       0.36110889 </v>
   <v>       0.36111222       0.36111222       0.30555778 </v>
   <v>       0.30555444       0.30555444       0.02777556 </v>
   <v>       0.69444556       0.69444556       0.97222444 </v>
   <v>       0.63888778       0.63888778       0.69444222 </v>
   <v>       0.36111222       0.69444556       0.63889111 </v>
   <v>       0.30555444       0.63888778       0.36110889 </v>
   <v>       0.02777889       0.69444556       0.30555778 </v>
   <v>       0.97222111       0.63888778       0.02777556 </v>
   <v>       0.36111222       0.02777889       0.97222444 </v>
   <v>       0.30555444       0.97222111       0.69444222 </v>
   <v>       0.02777889       0.02777889       0.63889111 </v>
   <v>       0.97222111       0.97222111       0.36110889 </v>
   <v>       0.80555667       0.47222333       0.52778000 </v>
   <v>       0.74999889       0.41666556       0.24999778 </v>
   <v>       0.47222333       0.47222333       0.19444667 </v>
   <v>       0.41666556       0.41666556       0.91666444 </v>
   <v>       0.80555667       0.80555667       0.86111333 </v>
   <v>       0.74999889       0.74999889       0.58333111 </v>
   <v>       0.47222333       0.80555667       0.52778000 </v>
   <v>       0.41666556       0.74999889       0.24999778 </v>
   <v>       0.13889000       0.80555667       0.19444667 </v>
   <v>       0.08333222       0.74999889       0.91666444 </v>
   <v>       0.47222333       0.13889000       0.86111333 </v>
   <v>       0.41666556       0.08333222       0.58333111 </v>
   <v>       0.13889000       0.13889000       0.52778000 </v>
   <v>       0.08333222       0.08333222       0.24999778 </v>
   <v>       0.58333444       0.58333444       0.08333556 </v>
   <v>       0.52777667       0.52777667       0.80555333 </v>
   <v>       0.58333444       0.91666778       0.41666889 </v>
   <v>       0.52777667       0.86111000       0.13888667 </v>
   <v>       0.25000111       0.91666778       0.08333556 </v>
   <v>       0.19444333       0.86111000       0.80555333 </v>
   <v>       0.69444556       0.02777889       0.30555778 </v>
   <v>       0.63888778       0.97222111       0.02777556 </v>
   <v>       0.80555667       0.13889000       0.19444667 </v>
   <v>       0.74999889       0.08333222       0.91666444 </v>
   <v>       0.86084889       0.36163556       0.80581778 </v>
   <v>       0.86085222       0.19418556       0.63837111 </v>
   <v>       0.02830222       0.19418222       0.80581778 </v>
   <v>       0.13915111       0.30503111       0.86084889 </v>
   <v>       0.97169778       0.47248111       0.86084556 </v>
   <v>       0.13914778       0.47248111       0.02829556 </v>
   <v>       0.97196000       0.47274667       0.69470667 </v>
   <v>       0.97196333       0.30529667       0.52726000 </v>
   <v>       0.13941333       0.30529333       0.69470667 </v>
   <v>       0.25026222       0.41614222       0.74973778 </v>
   <v>       0.08280889       0.58359222       0.74973444 </v>
   <v>       0.25025889       0.58359222       0.91718444 </v>
   <v>       0.41640778       0.25052444       0.58359889 </v>
   <v>       0.41640778       0.08307444       0.41614889 </v>
   <v>       0.58385778       0.08307444       0.58359889 </v>
   <v>       0.69470667       0.19392000       0.63862667 </v>
   <v>       0.52725333       0.36137333       0.63862667 </v>
   <v>       0.69470333       0.36137000       0.80607333 </v>
   <v>       0.08307111       0.25052444       0.25026222 </v>
   <v>       0.08307444       0.08307444       0.08281556 </v>
   <v>       0.25052444       0.08307111       0.25026222 </v>
   <v>       0.36137000       0.19392000       0.30529000 </v>
   <v>       0.19392000       0.36137000       0.30529000 </v>
   <v>       0.36137000       0.36137000       0.47274000 </v>
   <v>       0.74692444       0.25155778       0.91692889 </v>
   <v>       0.74974111       0.08307444       0.74948222 </v>
   <v>       0.91719111       0.08307111       0.91692889 </v>
   <v>       0.02804000       0.19392000       0.97196000 </v>
   <v>       0.86058667       0.36137000       0.97195667 </v>
   <v>       0.02803667       0.36137000       0.13940667 </v>
   <v>       0.08307111       0.58385778       0.58359556 </v>
   <v>       0.08307444       0.41640778       0.41614889 </v>
   <v>       0.25052444       0.41640444       0.58359556 </v>
   <v>       0.36137333       0.52725333       0.63862667 </v>
   <v>       0.19392000       0.69470333       0.63862333 </v>
   <v>       0.36137000       0.69470333       0.80607333 </v>
   <v>       0.74974111       0.58385778       0.25026556 </v>
   <v>       0.74974111       0.41640778       0.08281556 </v>
   <v>       0.91719111       0.41640444       0.25026222 </v>
   <v>       0.02804000       0.52725333       0.30529333 </v>
   <v>       0.86058667       0.69470333       0.30529000 </v>
   <v>       0.02803667       0.69470333       0.47274000 </v>
   <v>       0.74973778       0.91719111       0.58359556 </v>
   <v>       0.74974111       0.74974111       0.41614889 </v>
   <v>       0.91719111       0.74973778       0.58359556 </v>
   <v>       0.02803667       0.86058667       0.63862333 </v>
   <v>       0.86058667       0.02803667       0.63862333 </v>
   <v>       0.02803667       0.02803667       0.80607333 </v>
   <v>       0.52751556       0.36163556       0.47248444 </v>
   <v>       0.52751889       0.19418556       0.30503778 </v>
   <v>       0.69496889       0.19418556       0.47248778 </v>
   <v>       0.80581778       0.30503111       0.52751556 </v>
   <v>       0.63836444       0.47248111       0.52751222 </v>
   <v>       0.80581444       0.47248111       0.69496222 </v>
   <v>       0.19418222       0.36163556       0.13915111 </v>
   <v>       0.19418556       0.19418556       0.97170444 </v>
   <v>       0.36163556       0.19418556       0.13915444 </v>
   <v>       0.47248111       0.30503111       0.19417889 </v>
   <v>       0.30503111       0.47248444       0.19418222 </v>
   <v>       0.47248111       0.47248111       0.36162889 </v>
   <v>       0.52751556       0.69496889       0.80581778 </v>
   <v>       0.52751889       0.52751889       0.63837111 </v>
   <v>       0.69496889       0.52751889       0.80582111 </v>
   <v>       0.80581444       0.63836444       0.86084556 </v>
   <v>       0.63836444       0.80581778       0.86084889 </v>
   <v>       0.80581444       0.80581444       0.02829556 </v>
   <v>       0.19418222       0.69496889       0.47248444 </v>
   <v>       0.19418556       0.52751889       0.30503778 </v>
   <v>       0.36163556       0.52751556       0.47248444 </v>
   <v>       0.47248444       0.63836444       0.52751556 </v>
   <v>       0.30503111       0.80581444       0.52751222 </v>
   <v>       0.47248111       0.80581444       0.69496222 </v>
   <v>       0.86085222       0.69496889       0.13915444 </v>
   <v>       0.86085222       0.52751889       0.97170444 </v>
   <v>       0.02830222       0.52751889       0.13915444 </v>
   <v>       0.13914778       0.63836444       0.19417889 </v>
   <v>       0.97169778       0.80581444       0.19417889 </v>
   <v>       0.13914778       0.80581444       0.36162889 </v>
   <v>       0.19418222       0.02830222       0.80581778 </v>
   <v>       0.19418556       0.86085222       0.63837111 </v>
   <v>       0.36163556       0.86085222       0.80582111 </v>
   <v>       0.47248444       0.97169778       0.86084889 </v>
   <v>       0.30503111       0.13914778       0.86084556 </v>
   <v>       0.47248111       0.13914778       0.02829556 </v>
   <v>       0.86084889       0.02830222       0.47248444 </v>
   <v>       0.86085222       0.86085222       0.30503778 </v>
   <v>       0.02830222       0.86084889       0.47248444 </v>
   <v>       0.13914778       0.97169778       0.52751222 </v>
   <v>       0.97169778       0.13914778       0.52751222 </v>
   <v>       0.13914778       0.13914778       0.69496222 </v>
   <v>       0.63862667       0.47274667       0.36137333 </v>
   <v>       0.63863000       0.30529667       0.19392667 </v>
   <v>       0.80608000       0.30529667       0.36137667 </v>
   <v>       0.91692889       0.41614222       0.41640444 </v>
   <v>       0.74947556       0.58359556       0.41640444 </v>
   <v>       0.91692556       0.58359222       0.58385111 </v>
   <v>       0.30529333       0.47274667       0.02804000 </v>
   <v>       0.30529667       0.30529667       0.86059333 </v>
   <v>       0.47274667       0.30529333       0.02804000 </v>
   <v>       0.58359222       0.41614222       0.08306778 </v>
   <v>       0.41614222       0.58359222       0.08306778 </v>
   <v>       0.58359222       0.58359222       0.25051778 </v>
   <v>       0.63863000       0.80608000       0.69471000 </v>
   <v>       0.63863000       0.63863000       0.52726000 </v>
   <v>       0.80608000       0.63863000       0.69471000 </v>
   <v>       0.91692556       0.74947556       0.74973444 </v>
   <v>       0.74947556       0.91692889       0.74973778 </v>
   <v>       0.91692556       0.91692556       0.91718444 </v>
   <v>       0.30529333       0.80608000       0.36137333 </v>
   <v>       0.30529667       0.63863000       0.19392667 </v>
   <v>       0.47274667       0.63862667       0.36137333 </v>
   <v>       0.58359556       0.74947556       0.41640444 </v>
   <v>       0.41614222       0.91692556       0.41640111 </v>
   <v>       0.58359222       0.91692556       0.58385111 </v>
   <v>       0.97196000       0.80608000       0.02804000 </v>
   <v>       0.97196333       0.63863000       0.86059333 </v>
   <v>       0.13941333       0.63863000       0.02804333 </v>
   <v>       0.25025889       0.74947556       0.08306778 </v>
   <v>       0.08280889       0.91692556       0.08306778 </v>
   <v>       0.25025889       0.91692556       0.25051778 </v>
   <v>       0.30529667       0.13941333       0.69471000 </v>
   <v>       0.30529667       0.97196333       0.52726000 </v>
   <v>       0.47274667       0.97196333       0.69471000 </v>
   <v>       0.58359222       0.08280889       0.74973444 </v>
   <v>       0.41614222       0.25025889       0.74973444 </v>
   <v>       0.58359222       0.25025889       0.91718444 </v>
   <v>       0.97196000       0.13941333       0.36137333 </v>
   <v>       0.97196333       0.97196333       0.19392667 </v>
   <v>       0.13941333       0.97196000       0.36137333 </v>
   <v>       0.25025889       0.08280889       0.41640111 </v>
   <v>       0.08280889       0.25025889       0.41640111 </v>
   <v>       0.25025889       0.25025889       0.58385111 </v>
   <v>       0.41640778       0.58385778       0.91693222 </v>
   <v>       0.41640778       0.41640778       0.74948222 </v>
   <v>       0.58385778       0.41640444       0.91692889 </v>
   <v>       0.69470667       0.52725333       0.97196000 </v>
   <v>       0.52725333       0.69470333       0.97195667 </v>
   <v>       0.69470333       0.69470333       0.13940667 </v>
   <v>       0.41640444       0.91719111       0.25026222 </v>
   <v>       0.41640778       0.74974111       0.08281556 </v>
   <v>       0.58385778       0.74973778       0.25026222 </v>
   <v>       0.69470667       0.86058667       0.30529333 </v>
   <v>       0.52725333       0.02803667       0.30529000 </v>
   <v>       0.69470333       0.02803667       0.47274000 </v>
   <v>       0.08307444       0.91719111       0.91693222 </v>
   <v>       0.08307444       0.74974111       0.74948222 </v>
   <v>       0.25052444       0.74973778       0.91692889 </v>
   <v>       0.36137333       0.86058667       0.97196000 </v>
   <v>       0.19392000       0.02803667       0.97195667 </v>
   <v>       0.36137000       0.02803667       0.13940667 </v>
   <v>       0.52751556       0.02830222       0.13915111 </v>
   <v>       0.52751889       0.86085222       0.97170444 </v>
   <v>       0.69496889       0.86084889       0.13915111 </v>
   <v>       0.80581778       0.97169778       0.19418222 </v>
   <v>       0.63836444       0.13914778       0.19417889 </v>
   <v>       0.80581444       0.13914778       0.36162889 </v>
   <v>       0.63862667       0.13941333       0.02804000 </v>
   <v>       0.63863000       0.97196333       0.86059333 </v>
   <v>       0.80608000       0.97196000       0.02804000 </v>
   <v>       0.91692556       0.08280889       0.08306778 </v>
   <v>       0.74947556       0.25025889       0.08306778 </v>
   <v>       0.91692556       0.25025889       0.25051778 </v>
  </varray>
 </structure>
</modeling>
