<?xml version="1.0" encoding="ISO-8859-1"?>
<modeling>
 <generator>
  <i name="program" type="string">vasp </i>
  <i name="version" type="string">5.4.1  </i>
  <i name="subversion" type="string">24Jun15 (build Feb 03 2017 16:24:58) complex                          parallel </i>
  <i name="platform" type="string">IFC91_ompi </i>
  <i name="date" type="string">2018 07 01 </i>
  <i name="time" type="string">07:00:49 </i>
 </generator>
 <incar>
  <i type="string" name="SYSTEM"> Ir_Ru</i>
  <i type="int" name="ISTART">     0</i>
  <i type="string" name="PREC">accurate</i>
  <i type="string" name="ALGO"> Fast</i>
  <i type="int" name="ICHARG">     2</i>
  <i type="int" name="NELMIN">     5</i>
  <i type="int" name="IBRION">    -1</i>
  <i name="EDIFFG">      0.00001000</i>
  <i type="int" name="ISIF">     2</i>
  <i type="string" name="LREAL"> AUTO</i>
  <i type="int" name="ISMEAR">     1</i>
  <i name="SIGMA">      0.10000000</i>
  <v type="int" name="KPOINT_BSE">    -1     0     0     0</v>
 </incar>
 <kpoints>
  <generation param="Gamma">
   <v type="int" name="divisions">       4        4        4 </v>
   <v name="usershift">      0.00000000       0.00000000       0.00000000 </v>
   <v name="genvec1">      0.25000000       0.00000000      -0.00000000 </v>
   <v name="genvec2">      0.00000000       0.25000000       0.00000000 </v>
   <v name="genvec3">     -0.00000000      -0.00000000       0.25000000 </v>
   <v name="shift">      0.00000000       0.00000000       0.00000000 </v>
  </generation>
  <varray name="kpointlist" >
   <v>       0.00000000       0.00000000       0.00000000 </v>
   <v>       0.25000000      -0.00000000      -0.00000000 </v>
   <v>       0.50000000      -0.00000000      -0.00000000 </v>
   <v>      -0.00000000       0.25000000       0.00000000 </v>
   <v>       0.25000000       0.25000000      -0.00000000 </v>
   <v>       0.50000000       0.25000000      -0.00000000 </v>
   <v>      -0.25000000       0.25000000       0.00000000 </v>
   <v>      -0.00000000       0.50000000       0.00000000 </v>
   <v>       0.25000000       0.50000000      -0.00000000 </v>
   <v>       0.50000000       0.50000000      -0.00000000 </v>
   <v>      -0.00000000      -0.00000000       0.25000000 </v>
   <v>       0.25000000      -0.00000000       0.25000000 </v>
   <v>       0.50000000      -0.00000000       0.25000000 </v>
   <v>      -0.25000000       0.00000000       0.25000000 </v>
   <v>      -0.00000000       0.25000000       0.25000000 </v>
   <v>       0.25000000       0.25000000       0.25000000 </v>
   <v>       0.50000000       0.25000000       0.25000000 </v>
   <v>      -0.25000000       0.25000000       0.25000000 </v>
   <v>      -0.00000000       0.50000000       0.25000000 </v>
   <v>       0.25000000       0.50000000       0.25000000 </v>
   <v>       0.50000000       0.50000000       0.25000000 </v>
   <v>      -0.25000000       0.50000000       0.25000000 </v>
   <v>       0.00000000      -0.25000000       0.25000000 </v>
   <v>       0.25000000      -0.25000000       0.25000000 </v>
   <v>       0.50000000      -0.25000000       0.25000000 </v>
   <v>      -0.25000000      -0.25000000       0.25000000 </v>
   <v>      -0.00000000      -0.00000000       0.50000000 </v>
   <v>       0.25000000      -0.00000000       0.50000000 </v>
   <v>       0.50000000      -0.00000000       0.50000000 </v>
   <v>      -0.00000000       0.25000000       0.50000000 </v>
   <v>       0.25000000       0.25000000       0.50000000 </v>
   <v>       0.50000000       0.25000000       0.50000000 </v>
   <v>      -0.25000000       0.25000000       0.50000000 </v>
   <v>      -0.00000000       0.50000000       0.50000000 </v>
   <v>       0.25000000       0.50000000       0.50000000 </v>
   <v>       0.50000000       0.50000000       0.50000000 </v>
  </varray>
  <varray name="weights" >
   <v>       0.01562500 </v>
   <v>       0.03125000 </v>
   <v>       0.01562500 </v>
   <v>       0.03125000 </v>
   <v>       0.03125000 </v>
   <v>       0.03125000 </v>
   <v>       0.03125000 </v>
   <v>       0.01562500 </v>
   <v>       0.03125000 </v>
   <v>       0.01562500 </v>
   <v>       0.03125000 </v>
   <v>       0.03125000 </v>
   <v>       0.03125000 </v>
   <v>       0.03125000 </v>
   <v>       0.03125000 </v>
   <v>       0.03125000 </v>
   <v>       0.03125000 </v>
   <v>       0.03125000 </v>
   <v>       0.03125000 </v>
   <v>       0.03125000 </v>
   <v>       0.03125000 </v>
   <v>       0.03125000 </v>
   <v>       0.03125000 </v>
   <v>       0.03125000 </v>
   <v>       0.03125000 </v>
   <v>       0.03125000 </v>
   <v>       0.01562500 </v>
   <v>       0.03125000 </v>
   <v>       0.01562500 </v>
   <v>       0.03125000 </v>
   <v>       0.03125000 </v>
   <v>       0.03125000 </v>
   <v>       0.03125000 </v>
   <v>       0.01562500 </v>
   <v>       0.03125000 </v>
   <v>       0.01562500 </v>
  </varray>
 </kpoints>
 <parameters>
  <separator name="general" >
   <i type="string" name="SYSTEM">Ir_Ru</i>
   <i type="logical" name="LCOMPAT"> F  </i>
  </separator>
  <separator name="electronic" >
   <i type="string" name="PREC">accura</i>
   <i name="ENMAX">    213.27600000</i>
   <i name="ENAUG">    333.49400000</i>
   <i name="EDIFF">      0.00010000</i>
   <i type="int" name="IALGO">    68</i>
   <i type="int" name="IWAVPR">    10</i>
   <i type="int" name="NBANDS">  1320</i>
   <i name="NELECT">   2176.00000000</i>
   <i type="int" name="TURBO">     0</i>
   <i type="int" name="IRESTART">     0</i>
   <i type="int" name="NREBOOT">     0</i>
   <i type="int" name="NMIN">     0</i>
   <i name="EREF">      0.00000000</i>
   <separator name="electronic smearing" >
    <i type="int" name="ISMEAR">     1</i>
    <i name="SIGMA">      0.10000000</i>
    <i name="KSPACING">      0.50000000</i>
    <i type="logical" name="KGAMMA"> T  </i>
   </separator>
   <separator name="electronic projectors" >
    <i type="logical" name="LREAL"> T  </i>
    <v name="ROPT">     -0.00025000     -0.00025000</v>
    <i type="int" name="LMAXPAW">  -100</i>
    <i type="int" name="LMAXMIX">     2</i>
    <i type="logical" name="NLSPLINE"> F  </i>
   </separator>
   <separator name="electronic startup" >
    <i type="int" name="ISTART">     0</i>
    <i type="int" name="ICHARG">     2</i>
    <i type="int" name="INIWAV">     1</i>
   </separator>
   <separator name="electronic spin" >
    <i type="int" name="ISPIN">     1</i>
    <i type="logical" name="LNONCOLLINEAR"> F  </i>
    <v name="MAGMOM">      1.00000000      1.00000000      1.00000000      1.00000000      1.00000000      1.00000000      1.00000000      1.00000000      1.00000000      1.00000000      1.00000000      1.00000000      1.00000000      1.00000000      1.00000000      1.00000000      1.00000000      1.00000000      1.00000000      1.00000000
      1.00000000      1.00000000      1.00000000      1.00000000      1.00000000      1.00000000      1.00000000      1.00000000      1.00000000      1.00000000      1.00000000      1.00000000      1.00000000      1.00000000      1.00000000      1.00000000      1.00000000      1.00000000      1.00000000      1.00000000
      1.00000000      1.00000000      1.00000000      1.00000000      1.00000000      1.00000000      1.00000000      1.00000000      1.00000000      1.00000000      1.00000000      1.00000000      1.00000000      1.00000000      1.00000000      1.00000000      1.00000000      1.00000000      1.00000000      1.00000000
      1.00000000      1.00000000      1.00000000      1.00000000      1.00000000      1.00000000      1.00000000      1.00000000      1.00000000      1.00000000      1.00000000      1.00000000      1.00000000      1.00000000      1.00000000      1.00000000      1.00000000      1.00000000      1.00000000      1.00000000
      1.00000000      1.00000000      1.00000000      1.00000000      1.00000000      1.00000000      1.00000000      1.00000000      1.00000000      1.00000000      1.00000000      1.00000000      1.00000000      1.00000000      1.00000000      1.00000000      1.00000000      1.00000000      1.00000000      1.00000000
      1.00000000      1.00000000      1.00000000      1.00000000      1.00000000      1.00000000      1.00000000      1.00000000      1.00000000      1.00000000      1.00000000      1.00000000      1.00000000      1.00000000      1.00000000      1.00000000      1.00000000      1.00000000      1.00000000      1.00000000
      1.00000000      1.00000000      1.00000000      1.00000000      1.00000000      1.00000000      1.00000000      1.00000000      1.00000000      1.00000000      1.00000000      1.00000000      1.00000000      1.00000000      1.00000000      1.00000000      1.00000000      1.00000000      1.00000000      1.00000000
      1.00000000      1.00000000      1.00000000      1.00000000      1.00000000      1.00000000      1.00000000      1.00000000      1.00000000      1.00000000      1.00000000      1.00000000      1.00000000      1.00000000      1.00000000      1.00000000      1.00000000      1.00000000      1.00000000      1.00000000
      1.00000000      1.00000000      1.00000000      1.00000000      1.00000000      1.00000000      1.00000000      1.00000000      1.00000000      1.00000000      1.00000000      1.00000000      1.00000000      1.00000000      1.00000000      1.00000000      1.00000000      1.00000000      1.00000000      1.00000000
      1.00000000      1.00000000      1.00000000      1.00000000      1.00000000      1.00000000      1.00000000      1.00000000      1.00000000      1.00000000      1.00000000      1.00000000      1.00000000      1.00000000      1.00000000      1.00000000      1.00000000      1.00000000      1.00000000      1.00000000
      1.00000000      1.00000000      1.00000000      1.00000000      1.00000000      1.00000000      1.00000000      1.00000000      1.00000000      1.00000000      1.00000000      1.00000000      1.00000000      1.00000000      1.00000000      1.00000000      1.00000000      1.00000000      1.00000000      1.00000000
      1.00000000      1.00000000      1.00000000      1.00000000      1.00000000      1.00000000      1.00000000      1.00000000      1.00000000      1.00000000      1.00000000      1.00000000      1.00000000      1.00000000      1.00000000      1.00000000      1.00000000      1.00000000      1.00000000      1.00000000
      1.00000000      1.00000000      1.00000000      1.00000000      1.00000000      1.00000000      1.00000000      1.00000000      1.00000000      1.00000000      1.00000000      1.00000000      1.00000000      1.00000000      1.00000000      1.00000000</v>
    <i name="NUPDOWN">     -1.00000000</i>
    <i type="logical" name="LSORBIT"> F  </i>
    <v name="SAXIS">      0.00000000      0.00000000      1.00000000</v>
    <i type="logical" name="LSPIRAL"> F  </i>
    <v name="QSPIRAL">      0.00000000      0.00000000      0.00000000</v>
    <i type="logical" name="LZEROZ"> F  </i>
   </separator>
   <separator name="electronic exchange-correlation" >
    <i type="logical" name="LASPH"> F  </i>
    <i type="logical" name="LMETAGGA"> F  </i>
   </separator>
   <separator name="electronic convergence" >
    <i type="int" name="NELM">    60</i>
    <i type="int" name="NELMDL">    -5</i>
    <i type="int" name="NELMIN">     5</i>
    <i name="ENINI">    213.27600000</i>
    <separator name="electronic convergence detail" >
     <i type="logical" name="LDIAG"> T  </i>
     <i type="logical" name="LSUBROT"> F  </i>
     <i name="WEIMIN">      0.00000000</i>
     <i name="EBREAK">      0.00000000</i>
     <i name="DEPER">      0.30000000</i>
     <i type="int" name="NRMM">     4</i>
     <i name="TIME">      0.40000000</i>
    </separator>
   </separator>
   <separator name="electronic mixer" >
    <i name="AMIX">      0.40000000</i>
    <i name="BMIX">      1.00000000</i>
    <i name="AMIN">      0.10000000</i>
    <i name="AMIX_MAG">      1.60000000</i>
    <i name="BMIX_MAG">      1.00000000</i>
    <separator name="electronic mixer details" >
     <i type="int" name="IMIX">     4</i>
     <i type="logical" name="MIXFIRST"> F  </i>
     <i type="int" name="MAXMIX">   -45</i>
     <i name="WC">    100.00000000</i>
     <i type="int" name="INIMIX">     1</i>
     <i type="int" name="MIXPRE">     1</i>
     <i type="int" name="MREMOVE">     5</i>
    </separator>
   </separator>
   <separator name="electronic dipolcorrection" >
    <i type="logical" name="LDIPOL"> F  </i>
    <i type="logical" name="LMONO"> F  </i>
    <i type="int" name="IDIPOL">     0</i>
    <i name="EPSILON">      1.00000000</i>
    <v name="DIPOL">   -100.00000000   -100.00000000   -100.00000000</v>
    <i name="EFIELD">      0.00000000</i>
   </separator>
  </separator>
  <separator name="grids" >
   <i type="int" name="NGX">    80</i>
   <i type="int" name="NGY">    80</i>
   <i type="int" name="NGZ">    80</i>
   <i type="int" name="NGXF">   160</i>
   <i type="int" name="NGYF">   160</i>
   <i type="int" name="NGZF">   160</i>
   <i type="logical" name="ADDGRID"> F  </i>
  </separator>
  <separator name="ionic" >
   <i type="int" name="NSW">     0</i>
   <i type="int" name="IBRION">    -1</i>
   <i type="int" name="ISIF">     2</i>
   <i name="PSTRESS">      0.00000000</i>
   <i name="EDIFFG">      0.00001000</i>
   <i type="int" name="NFREE">     0</i>
   <i name="POTIM">      0.50000000</i>
   <i name="SMASS">     -3.00000000</i>
   <i name="SCALEE">      1.00000000</i>
  </separator>
  <separator name="ionic md" >
   <i name="TEBEG">      0.00010000</i>
   <i name="TEEND">      0.00010000</i>
   <i type="int" name="NBLOCK">     1</i>
   <i type="int" name="KBLOCK">     1</i>
   <i type="int" name="NPACO">   256</i>
   <i name="APACO">     16.00000000</i>
  </separator>
  <separator name="symmetry" >
   <i type="int" name="ISYM">     2</i>
   <i name="SYMPREC">      0.00001000</i>
  </separator>
  <separator name="dos" >
   <i type="logical" name="LORBIT"> F  </i>
   <v name="RWIGS">     -1.00000000     -1.00000000</v>
   <i type="int" name="NEDOS">   301</i>
   <i name="EMIN">     10.00000000</i>
   <i name="EMAX">    -10.00000000</i>
   <i name="EFERMI">      0.00000000</i>
  </separator>
  <separator name="writing" >
   <i type="int" name="NWRITE">     2</i>
   <i type="logical" name="LWAVE"> T  </i>
   <i type="logical" name="LCHARG"> T  </i>
   <i type="logical" name="LPARD"> F  </i>
   <i type="logical" name="LVTOT"> F  </i>
   <i type="logical" name="LVHAR"> F  </i>
   <i type="logical" name="LELF"> F  </i>
   <i type="logical" name="LOPTICS"> F  </i>
   <v name="STM">      0.00000000      0.00000000      0.00000000      0.00000000      0.00000000      0.00000000      0.00000000</v>
  </separator>
  <separator name="performance" >
   <i type="int" name="NPAR">    20</i>
   <i type="int" name="NSIM">     4</i>
   <i type="int" name="NBLK">    -1</i>
   <i type="logical" name="LPLANE"> T  </i>
   <i type="logical" name="LSCALAPACK"> T  </i>
   <i type="logical" name="LSCAAWARE"> F  </i>
   <i type="logical" name="LSCALU"> F  </i>
   <i type="logical" name="LASYNC"> F  </i>
   <i type="logical" name="LORBITALREAL"> F  </i>
  </separator>
  <separator name="miscellaneous" >
   <i type="int" name="IDIOT">     3</i>
   <i type="logical" name="LMUSIC"> F  </i>
   <v name="POMASS">    192.22000000    101.07000000</v>
   <v name="DARWINR">      0.00000000      0.00000000</v>
   <v name="DARWINV">      1.00000000      1.00000000</v>
   <i type="logical" name="LCORR"> T  </i>
  </separator>
  <i type="logical" name="GGA_COMPAT"> T  </i>
  <i type="logical" name="LBERRY"> F  </i>
  <i type="int" name="ICORELEVEL">     0</i>
  <i type="logical" name="LDAU"> F  </i>
  <i type="int" name="I_CONSTRAINED_M">     0</i>
  <separator name="electronic exchange-correlation" >
   <i type="string" name="GGA">--</i>
   <i type="int" name="VOSKOWN">     0</i>
   <i type="logical" name="LHFCALC"> F  </i>
   <i type="string" name="PRECFOCK"></i>
   <i type="logical" name="LSYMGRAD"> F  </i>
   <i type="logical" name="LHFONE"> F  </i>
   <i type="logical" name="LRHFCALC"> F  </i>
   <i type="logical" name="LTHOMAS"> F  </i>
   <i type="logical" name="LMODELHF"> F  </i>
   <i name="ENCUT4O">     -1.00000000</i>
   <i type="int" name="EXXOEP">     0</i>
   <i type="int" name="FOURORBIT">     0</i>
   <i name="AEXX">      0.00000000</i>
   <i name="HFALPHA">      0.00000000</i>
   <i name="MCALPHA">      0.00000000</i>
   <i name="ALDAX">      1.00000000</i>
   <i name="AGGAX">      1.00000000</i>
   <i name="ALDAC">      1.00000000</i>
   <i name="AGGAC">      1.00000000</i>
   <i type="int" name="NKREDX">     1</i>
   <i type="int" name="NKREDY">     1</i>
   <i type="int" name="NKREDZ">     1</i>
   <i type="logical" name="SHIFTRED"> F  </i>
   <i type="logical" name="ODDONLY"> F  </i>
   <i type="logical" name="EVENONLY"> F  </i>
   <i type="int" name="LMAXFOCK">     0</i>
   <i type="int" name="NMAXFOCKAE">     0</i>
   <i type="logical" name="LFOCKAEDFT"> F  </i>
   <i name="HFSCREEN">      0.00000000</i>
   <i name="HFSCREENC">      0.00000000</i>
   <i type="int" name="NBANDSGWLOW">     0</i>
  </separator>
  <separator name="vdW DFT" >
   <i type="logical" name="LUSE_VDW"> F  </i>
   <i name="Zab_VDW">     -0.84910000</i>
   <i name="PARAM1">      0.12340000</i>
   <i name="PARAM2">      1.00000000</i>
   <i name="PARAM3">      0.00000000</i>
  </separator>
  <separator name="model GW" >
   <i type="int" name="MODEL_GW">     0</i>
   <i name="MODEL_EPS0">      8.51523704</i>
   <i name="MODEL_ALPHA">      1.00000000</i>
  </separator>
  <separator name="linear response parameters" >
   <i type="logical" name="LEPSILON"> F  </i>
   <i type="logical" name="LRPA"> F  </i>
   <i type="logical" name="LNABLA"> F  </i>
   <i type="logical" name="LVEL"> F  </i>
   <i type="int" name="KINTER">     0</i>
   <i name="CSHIFT">      0.10000000</i>
   <i name="OMEGAMAX">     -1.00000000</i>
   <i name="DEG_THRESHOLD">      0.00200000</i>
  </separator>
  <separator name="orbital magnetization" >
   <i type="logical" name="NUCIND"> F  </i>
   <v name="MAGPOS">      0.00000000      0.00000000      0.00000000</v>
   <i type="logical" name="LNICSALL"> T  </i>
   <i type="logical" name="ORBITALMAG"> F  </i>
   <i type="logical" name="LMAGBLOCH"> F  </i>
   <i type="logical" name="LCHIMAG"> F  </i>
   <i type="logical" name="LGAUGE"> T  </i>
   <i type="int" name="MAGATOM">     0</i>
   <v name="MAGDIPOL">      0.00000000      0.00000000      0.00000000</v>
   <v name="AVECCONST">      0.00000000      0.00000000      0.00000000</v>
  </separator>
  <separator name="response functions" >
   <i type="logical" name="LADDER"> F  </i>
   <i type="logical" name="LFXC"> F  </i>
   <i type="logical" name="LHARTREE"> T  </i>
   <i type="int" name="IBSE">     0</i>
   <v type="int" name="KPOINT">    -1     0     0     0</v>
   <i type="logical" name="LTCTE"> F  </i>
   <i type="logical" name="LTETE"> F  </i>
   <i type="logical" name="LTRIPLET"> F  </i>
   <i type="logical" name="LFXCEPS"> F  </i>
   <i type="logical" name="LFXHEG"> F  </i>
   <i type="int" name="NATURALO">     0</i>
   <i type="logical" name="L2ORDER"> F  </i>
   <i type="logical" name="LUSEW"> F  </i>
   <i name="ENCUTGW">     -2.00000000</i>
   <i name="ENCUTGWSOFT">     -2.00000000</i>
   <i name="ENCUTLF">     -1.00000000</i>
   <i type="int" name="LMAXMP2">    -1</i>
   <i name="SCISSOR">      0.00000000</i>
   <i type="int" name="NOMEGA">     0</i>
   <i type="int" name="NOMEGAR">     0</i>
   <i type="int" name="NBANDSGW">    -1</i>
   <i type="int" name="NBANDSO">    -1</i>
   <i type="int" name="NBANDSV">    -1</i>
   <i type="int" name="NELM">     1</i>
   <i type="int" name="NELMHF">     1</i>
   <i type="int" name="DIM">     3</i>
   <i type="int" name="ANTIRES">     0</i>
   <i name="OMEGAMAX">    -30.00000000</i>
   <i name="OMEGAMIN">    -30.00000000</i>
   <i name="OMEGATL">   -200.00000000</i>
   <i type="int" name="OMEGAGRID">     0</i>
   <i name="CSHIFT">     -0.10000000</i>
   <i type="logical" name="SELFENERGY"> F  </i>
   <i type="logical" name="LSPECTRAL"> F  </i>
   <i type="logical" name="LSPECTRALGW"> F  </i>
   <i type="logical" name="LSINGLES"> F  </i>
   <i type="logical" name="LFERMIGW"> F  </i>
   <i type="logical" name="ODDONLYGW"> F  </i>
   <i type="logical" name="EVENONLYGW"> F  </i>
   <i type="int" name="NKREDLFX">     1</i>
   <i type="int" name="NKREDLFY">     1</i>
   <i type="int" name="NKREDLFZ">     1</i>
   <i type="int" name="MAXMEM">  1800</i>
   <i type="int" name="TELESCOPE">     0</i>
   <i type="int" name="TAUPAR">     1</i>
   <i type="int" name="OMEGAPAR">    -1</i>
   <i name="LAMBDA">      1.00000000</i>
  </separator>
  <separator name="External order field" >
   <i name="OFIELD_KAPPA">      0.00000000</i>
   <v name="OFIELD_K">      0.00000000      0.00000000      0.00000000</v>
   <i name="OFIELD_Q6_NEAR">      0.00000000</i>
   <i name="OFIELD_Q6_FAR">      0.00000000</i>
   <i name="OFIELD_A">      0.00000000</i>
  </separator>
 </parameters>
 <atominfo>
  <atoms>     256 </atoms>
  <types>       2 </types>
  <array name="atoms" >
   <dimension dim="1">ion</dimension>
   <field type="string">element</field>
   <field type="int">atomtype</field>
   <set>
    <rc><c>Ir</c><c>   1</c></rc>
    <rc><c>Ir</c><c>   1</c></rc>
    <rc><c>Ir</c><c>   1</c></rc>
    <rc><c>Ir</c><c>   1</c></rc>
    <rc><c>Ir</c><c>   1</c></rc>
    <rc><c>Ir</c><c>   1</c></rc>
    <rc><c>Ir</c><c>   1</c></rc>
    <rc><c>Ir</c><c>   1</c></rc>
    <rc><c>Ir</c><c>   1</c></rc>
    <rc><c>Ir</c><c>   1</c></rc>
    <rc><c>Ir</c><c>   1</c></rc>
    <rc><c>Ir</c><c>   1</c></rc>
    <rc><c>Ir</c><c>   1</c></rc>
    <rc><c>Ir</c><c>   1</c></rc>
    <rc><c>Ir</c><c>   1</c></rc>
    <rc><c>Ir</c><c>   1</c></rc>
    <rc><c>Ir</c><c>   1</c></rc>
    <rc><c>Ir</c><c>   1</c></rc>
    <rc><c>Ir</c><c>   1</c></rc>
    <rc><c>Ir</c><c>   1</c></rc>
    <rc><c>Ir</c><c>   1</c></rc>
    <rc><c>Ir</c><c>   1</c></rc>
    <rc><c>Ir</c><c>   1</c></rc>
    <rc><c>Ir</c><c>   1</c></rc>
    <rc><c>Ir</c><c>   1</c></rc>
    <rc><c>Ir</c><c>   1</c></rc>
    <rc><c>Ir</c><c>   1</c></rc>
    <rc><c>Ir</c><c>   1</c></rc>
    <rc><c>Ir</c><c>   1</c></rc>
    <rc><c>Ir</c><c>   1</c></rc>
    <rc><c>Ir</c><c>   1</c></rc>
    <rc><c>Ir</c><c>   1</c></rc>
    <rc><c>Ir</c><c>   1</c></rc>
    <rc><c>Ir</c><c>   1</c></rc>
    <rc><c>Ir</c><c>   1</c></rc>
    <rc><c>Ir</c><c>   1</c></rc>
    <rc><c>Ir</c><c>   1</c></rc>
    <rc><c>Ir</c><c>   1</c></rc>
    <rc><c>Ir</c><c>   1</c></rc>
    <rc><c>Ir</c><c>   1</c></rc>
    <rc><c>Ir</c><c>   1</c></rc>
    <rc><c>Ir</c><c>   1</c></rc>
    <rc><c>Ir</c><c>   1</c></rc>
    <rc><c>Ir</c><c>   1</c></rc>
    <rc><c>Ir</c><c>   1</c></rc>
    <rc><c>Ir</c><c>   1</c></rc>
    <rc><c>Ir</c><c>   1</c></rc>
    <rc><c>Ir</c><c>   1</c></rc>
    <rc><c>Ir</c><c>   1</c></rc>
    <rc><c>Ir</c><c>   1</c></rc>
    <rc><c>Ir</c><c>   1</c></rc>
    <rc><c>Ir</c><c>   1</c></rc>
    <rc><c>Ir</c><c>   1</c></rc>
    <rc><c>Ir</c><c>   1</c></rc>
    <rc><c>Ir</c><c>   1</c></rc>
    <rc><c>Ir</c><c>   1</c></rc>
    <rc><c>Ir</c><c>   1</c></rc>
    <rc><c>Ir</c><c>   1</c></rc>
    <rc><c>Ir</c><c>   1</c></rc>
    <rc><c>Ir</c><c>   1</c></rc>
    <rc><c>Ir</c><c>   1</c></rc>
    <rc><c>Ir</c><c>   1</c></rc>
    <rc><c>Ir</c><c>   1</c></rc>
    <rc><c>Ir</c><c>   1</c></rc>
    <rc><c>Ir</c><c>   1</c></rc>
    <rc><c>Ir</c><c>   1</c></rc>
    <rc><c>Ir</c><c>   1</c></rc>
    <rc><c>Ir</c><c>   1</c></rc>
    <rc><c>Ir</c><c>   1</c></rc>
    <rc><c>Ir</c><c>   1</c></rc>
    <rc><c>Ir</c><c>   1</c></rc>
    <rc><c>Ir</c><c>   1</c></rc>
    <rc><c>Ir</c><c>   1</c></rc>
    <rc><c>Ir</c><c>   1</c></rc>
    <rc><c>Ir</c><c>   1</c></rc>
    <rc><c>Ir</c><c>   1</c></rc>
    <rc><c>Ir</c><c>   1</c></rc>
    <rc><c>Ir</c><c>   1</c></rc>
    <rc><c>Ir</c><c>   1</c></rc>
    <rc><c>Ir</c><c>   1</c></rc>
    <rc><c>Ir</c><c>   1</c></rc>
    <rc><c>Ir</c><c>   1</c></rc>
    <rc><c>Ir</c><c>   1</c></rc>
    <rc><c>Ir</c><c>   1</c></rc>
    <rc><c>Ir</c><c>   1</c></rc>
    <rc><c>Ir</c><c>   1</c></rc>
    <rc><c>Ir</c><c>   1</c></rc>
    <rc><c>Ir</c><c>   1</c></rc>
    <rc><c>Ir</c><c>   1</c></rc>
    <rc><c>Ir</c><c>   1</c></rc>
    <rc><c>Ir</c><c>   1</c></rc>
    <rc><c>Ir</c><c>   1</c></rc>
    <rc><c>Ir</c><c>   1</c></rc>
    <rc><c>Ir</c><c>   1</c></rc>
    <rc><c>Ir</c><c>   1</c></rc>
    <rc><c>Ir</c><c>   1</c></rc>
    <rc><c>Ir</c><c>   1</c></rc>
    <rc><c>Ir</c><c>   1</c></rc>
    <rc><c>Ir</c><c>   1</c></rc>
    <rc><c>Ir</c><c>   1</c></rc>
    <rc><c>Ir</c><c>   1</c></rc>
    <rc><c>Ir</c><c>   1</c></rc>
    <rc><c>Ir</c><c>   1</c></rc>
    <rc><c>Ir</c><c>   1</c></rc>
    <rc><c>Ir</c><c>   1</c></rc>
    <rc><c>Ir</c><c>   1</c></rc>
    <rc><c>Ir</c><c>   1</c></rc>
    <rc><c>Ir</c><c>   1</c></rc>
    <rc><c>Ir</c><c>   1</c></rc>
    <rc><c>Ir</c><c>   1</c></rc>
    <rc><c>Ir</c><c>   1</c></rc>
    <rc><c>Ir</c><c>   1</c></rc>
    <rc><c>Ir</c><c>   1</c></rc>
    <rc><c>Ir</c><c>   1</c></rc>
    <rc><c>Ir</c><c>   1</c></rc>
    <rc><c>Ir</c><c>   1</c></rc>
    <rc><c>Ir</c><c>   1</c></rc>
    <rc><c>Ir</c><c>   1</c></rc>
    <rc><c>Ir</c><c>   1</c></rc>
    <rc><c>Ir</c><c>   1</c></rc>
    <rc><c>Ir</c><c>   1</c></rc>
    <rc><c>Ir</c><c>   1</c></rc>
    <rc><c>Ir</c><c>   1</c></rc>
    <rc><c>Ir</c><c>   1</c></rc>
    <rc><c>Ir</c><c>   1</c></rc>
    <rc><c>Ir</c><c>   1</c></rc>
    <rc><c>Ir</c><c>   1</c></rc>
    <rc><c>Ir</c><c>   1</c></rc>
    <rc><c>Ru</c><c>   2</c></rc>
    <rc><c>Ru</c><c>   2</c></rc>
    <rc><c>Ru</c><c>   2</c></rc>
    <rc><c>Ru</c><c>   2</c></rc>
    <rc><c>Ru</c><c>   2</c></rc>
    <rc><c>Ru</c><c>   2</c></rc>
    <rc><c>Ru</c><c>   2</c></rc>
    <rc><c>Ru</c><c>   2</c></rc>
    <rc><c>Ru</c><c>   2</c></rc>
    <rc><c>Ru</c><c>   2</c></rc>
    <rc><c>Ru</c><c>   2</c></rc>
    <rc><c>Ru</c><c>   2</c></rc>
    <rc><c>Ru</c><c>   2</c></rc>
    <rc><c>Ru</c><c>   2</c></rc>
    <rc><c>Ru</c><c>   2</c></rc>
    <rc><c>Ru</c><c>   2</c></rc>
    <rc><c>Ru</c><c>   2</c></rc>
    <rc><c>Ru</c><c>   2</c></rc>
    <rc><c>Ru</c><c>   2</c></rc>
    <rc><c>Ru</c><c>   2</c></rc>
    <rc><c>Ru</c><c>   2</c></rc>
    <rc><c>Ru</c><c>   2</c></rc>
    <rc><c>Ru</c><c>   2</c></rc>
    <rc><c>Ru</c><c>   2</c></rc>
    <rc><c>Ru</c><c>   2</c></rc>
    <rc><c>Ru</c><c>   2</c></rc>
    <rc><c>Ru</c><c>   2</c></rc>
    <rc><c>Ru</c><c>   2</c></rc>
    <rc><c>Ru</c><c>   2</c></rc>
    <rc><c>Ru</c><c>   2</c></rc>
    <rc><c>Ru</c><c>   2</c></rc>
    <rc><c>Ru</c><c>   2</c></rc>
    <rc><c>Ru</c><c>   2</c></rc>
    <rc><c>Ru</c><c>   2</c></rc>
    <rc><c>Ru</c><c>   2</c></rc>
    <rc><c>Ru</c><c>   2</c></rc>
    <rc><c>Ru</c><c>   2</c></rc>
    <rc><c>Ru</c><c>   2</c></rc>
    <rc><c>Ru</c><c>   2</c></rc>
    <rc><c>Ru</c><c>   2</c></rc>
    <rc><c>Ru</c><c>   2</c></rc>
    <rc><c>Ru</c><c>   2</c></rc>
    <rc><c>Ru</c><c>   2</c></rc>
    <rc><c>Ru</c><c>   2</c></rc>
    <rc><c>Ru</c><c>   2</c></rc>
    <rc><c>Ru</c><c>   2</c></rc>
    <rc><c>Ru</c><c>   2</c></rc>
    <rc><c>Ru</c><c>   2</c></rc>
    <rc><c>Ru</c><c>   2</c></rc>
    <rc><c>Ru</c><c>   2</c></rc>
    <rc><c>Ru</c><c>   2</c></rc>
    <rc><c>Ru</c><c>   2</c></rc>
    <rc><c>Ru</c><c>   2</c></rc>
    <rc><c>Ru</c><c>   2</c></rc>
    <rc><c>Ru</c><c>   2</c></rc>
    <rc><c>Ru</c><c>   2</c></rc>
    <rc><c>Ru</c><c>   2</c></rc>
    <rc><c>Ru</c><c>   2</c></rc>
    <rc><c>Ru</c><c>   2</c></rc>
    <rc><c>Ru</c><c>   2</c></rc>
    <rc><c>Ru</c><c>   2</c></rc>
    <rc><c>Ru</c><c>   2</c></rc>
    <rc><c>Ru</c><c>   2</c></rc>
    <rc><c>Ru</c><c>   2</c></rc>
    <rc><c>Ru</c><c>   2</c></rc>
    <rc><c>Ru</c><c>   2</c></rc>
    <rc><c>Ru</c><c>   2</c></rc>
    <rc><c>Ru</c><c>   2</c></rc>
    <rc><c>Ru</c><c>   2</c></rc>
    <rc><c>Ru</c><c>   2</c></rc>
    <rc><c>Ru</c><c>   2</c></rc>
    <rc><c>Ru</c><c>   2</c></rc>
    <rc><c>Ru</c><c>   2</c></rc>
    <rc><c>Ru</c><c>   2</c></rc>
    <rc><c>Ru</c><c>   2</c></rc>
    <rc><c>Ru</c><c>   2</c></rc>
    <rc><c>Ru</c><c>   2</c></rc>
    <rc><c>Ru</c><c>   2</c></rc>
    <rc><c>Ru</c><c>   2</c></rc>
    <rc><c>Ru</c><c>   2</c></rc>
    <rc><c>Ru</c><c>   2</c></rc>
    <rc><c>Ru</c><c>   2</c></rc>
    <rc><c>Ru</c><c>   2</c></rc>
    <rc><c>Ru</c><c>   2</c></rc>
    <rc><c>Ru</c><c>   2</c></rc>
    <rc><c>Ru</c><c>   2</c></rc>
    <rc><c>Ru</c><c>   2</c></rc>
    <rc><c>Ru</c><c>   2</c></rc>
    <rc><c>Ru</c><c>   2</c></rc>
    <rc><c>Ru</c><c>   2</c></rc>
    <rc><c>Ru</c><c>   2</c></rc>
    <rc><c>Ru</c><c>   2</c></rc>
    <rc><c>Ru</c><c>   2</c></rc>
    <rc><c>Ru</c><c>   2</c></rc>
    <rc><c>Ru</c><c>   2</c></rc>
    <rc><c>Ru</c><c>   2</c></rc>
    <rc><c>Ru</c><c>   2</c></rc>
    <rc><c>Ru</c><c>   2</c></rc>
    <rc><c>Ru</c><c>   2</c></rc>
    <rc><c>Ru</c><c>   2</c></rc>
    <rc><c>Ru</c><c>   2</c></rc>
    <rc><c>Ru</c><c>   2</c></rc>
    <rc><c>Ru</c><c>   2</c></rc>
    <rc><c>Ru</c><c>   2</c></rc>
    <rc><c>Ru</c><c>   2</c></rc>
    <rc><c>Ru</c><c>   2</c></rc>
    <rc><c>Ru</c><c>   2</c></rc>
    <rc><c>Ru</c><c>   2</c></rc>
    <rc><c>Ru</c><c>   2</c></rc>
    <rc><c>Ru</c><c>   2</c></rc>
    <rc><c>Ru</c><c>   2</c></rc>
    <rc><c>Ru</c><c>   2</c></rc>
    <rc><c>Ru</c><c>   2</c></rc>
    <rc><c>Ru</c><c>   2</c></rc>
    <rc><c>Ru</c><c>   2</c></rc>
    <rc><c>Ru</c><c>   2</c></rc>
    <rc><c>Ru</c><c>   2</c></rc>
    <rc><c>Ru</c><c>   2</c></rc>
    <rc><c>Ru</c><c>   2</c></rc>
    <rc><c>Ru</c><c>   2</c></rc>
    <rc><c>Ru</c><c>   2</c></rc>
    <rc><c>Ru</c><c>   2</c></rc>
    <rc><c>Ru</c><c>   2</c></rc>
    <rc><c>Ru</c><c>   2</c></rc>
    <rc><c>Ru</c><c>   2</c></rc>
    <rc><c>Ru</c><c>   2</c></rc>
    <rc><c>Ru</c><c>   2</c></rc>
    <rc><c>Ru</c><c>   2</c></rc>
   </set>
  </array>
  <array name="atomtypes" >
   <dimension dim="1">type</dimension>
   <field type="int">atomspertype</field>
   <field type="string">element</field>
   <field>mass</field>
   <field>valence</field>
   <field type="string">pseudopotential</field>
   <set>
    <rc><c> 128</c><c>Ir</c><c>    192.22000000</c><c>      9.00000000</c><c> PAW_PBE Ir 06Sep2000                   </c></rc>
    <rc><c> 128</c><c>Ru</c><c>    101.07000000</c><c>      8.00000000</c><c> PAW_PBE Ru 06Sep2000                   </c></rc>
   </set>
  </array>
 </atominfo>
 <structure name="initialpos" >
  <crystal>
   <varray name="basis" >
    <v>       0.00188000      15.37080000       0.00140000 </v>
    <v>       0.00152000      -0.00140000     -15.37218000 </v>
    <v>     -15.37636000      -0.00188000       0.00151000 </v>
   </varray>
   <i name="volume">   3633.16780401 </i>
   <varray name="rec_basis" >
    <v>      -0.00000795       0.06505842      -0.00000593 </v>
    <v>      -0.00000639       0.00000593      -0.06505258 </v>
    <v>      -0.06503490       0.00000795      -0.00000643 </v>
   </varray>
  </crystal>
  <varray name="positions" >
   <v>       0.12544250       0.12495750       0.00137500 </v>
   <v>       0.25023500       0.87425500       0.37476000 </v>
   <v>       0.50095250       0.12407750       0.62474500 </v>
   <v>       0.37553250       0.12507750       0.50016500 </v>
   <v>       0.24973750       0.12571750       0.37459500 </v>
   <v>       0.37600500       0.00007500       0.37466000 </v>
   <v>       0.25039000       0.00088000       0.24854000 </v>
   <v>       0.37534750       0.24987750       0.37305500 </v>
   <v>       0.49970000       0.00076500       0.24985000 </v>
   <v>       0.25027250       0.00022250       0.00012500 </v>
   <v>       0.62466750       0.24912250       0.37463500 </v>
   <v>       0.37446000       0.12498500       0.00162000 </v>
   <v>       0.49907250       0.37499750       0.12491500 </v>
   <v>       0.49965250       0.24988250       0.00137500 </v>
   <v>       0.37398000       0.25085000       0.87599000 </v>
   <v>       0.62457250       0.37420750       0.24977500 </v>
   <v>       0.37544250       0.37495750       0.50137500 </v>
   <v>       0.50023500       0.12425500       0.87476000 </v>
   <v>       0.75095250       0.37407750       0.12474500 </v>
   <v>       0.62553250       0.37507750       0.00016500 </v>
   <v>       0.49973750       0.37571750       0.87459500 </v>
   <v>       0.62600500       0.25007500       0.87466000 </v>
   <v>       0.50039000       0.25088000       0.74854000 </v>
   <v>       0.62534750       0.49987750       0.87305500 </v>
   <v>       0.74970000       0.25076500       0.74985000 </v>
   <v>       0.50027250       0.25022250       0.50012500 </v>
   <v>       0.87466750       0.49912250       0.87463500 </v>
   <v>       0.62446000       0.37498500       0.50162000 </v>
   <v>       0.74907250       0.62499750       0.62491500 </v>
   <v>       0.74965250       0.49988250       0.50137500 </v>
   <v>       0.62398000       0.50085000       0.37599000 </v>
   <v>       0.87457250       0.62420750       0.74977500 </v>
   <v>       0.62544250       0.12495750       0.00137500 </v>
   <v>       0.75023500       0.87425500       0.37476000 </v>
   <v>       0.00095250       0.12407750       0.62474500 </v>
   <v>       0.87553250       0.12507750       0.50016500 </v>
   <v>       0.74973750       0.12571750       0.37459500 </v>
   <v>       0.87600500       0.00007500       0.37466000 </v>
   <v>       0.75039000       0.00088000       0.24854000 </v>
   <v>       0.87534750       0.24987750       0.37305500 </v>
   <v>       0.99970000       0.00076500       0.24985000 </v>
   <v>       0.75027250       0.00022250       0.00012500 </v>
   <v>       0.12466750       0.24912250       0.37463500 </v>
   <v>       0.87445750       0.12498750       0.00161500 </v>
   <v>       0.99907250       0.37499750       0.12491500 </v>
   <v>       0.99965250       0.24988250       0.00137500 </v>
   <v>       0.87398000       0.25085000       0.87599000 </v>
   <v>       0.12457250       0.37420750       0.24977500 </v>
   <v>       0.12544250       0.62495750       0.00137500 </v>
   <v>       0.25023500       0.37425500       0.37476000 </v>
   <v>       0.50095250       0.62407750       0.62474500 </v>
   <v>       0.37553250       0.62507750       0.50016500 </v>
   <v>       0.24973750       0.62571750       0.37459500 </v>
   <v>       0.37600500       0.50007500       0.37466000 </v>
   <v>       0.25039000       0.50088000       0.24854000 </v>
   <v>       0.37534750       0.74987750       0.37305500 </v>
   <v>       0.49970000       0.50076500       0.24985000 </v>
   <v>       0.25027250       0.50022250       0.00012500 </v>
   <v>       0.62466750       0.74912250       0.37463500 </v>
   <v>       0.37446000       0.62498500       0.00162000 </v>
   <v>       0.49907250       0.87499750       0.12491500 </v>
   <v>       0.49965250       0.74988250       0.00137500 </v>
   <v>       0.37397750       0.75084750       0.87598500 </v>
   <v>       0.62457250       0.87420750       0.24977500 </v>
   <v>       0.87544250       0.37495750       0.50137500 </v>
   <v>       0.00023500       0.12425500       0.87476000 </v>
   <v>       0.25095250       0.37407750       0.12474500 </v>
   <v>       0.12553250       0.37507750       0.00016500 </v>
   <v>       0.99973750       0.37571750       0.87459500 </v>
   <v>       0.12600500       0.25007500       0.87466000 </v>
   <v>       0.00039000       0.25088000       0.74854000 </v>
   <v>       0.12534750       0.49987750       0.87305500 </v>
   <v>       0.24970000       0.25076500       0.74985000 </v>
   <v>       0.00027250       0.25022250       0.50012500 </v>
   <v>       0.37466750       0.49912250       0.87463500 </v>
   <v>       0.12446000       0.37498500       0.50162000 </v>
   <v>       0.24907250       0.62499750       0.62491500 </v>
   <v>       0.24965250       0.49988250       0.50137500 </v>
   <v>       0.12397750       0.50084750       0.37598500 </v>
   <v>       0.37457250       0.62420750       0.74977500 </v>
   <v>       0.37544250       0.87495750       0.50137500 </v>
   <v>       0.50023500       0.62425500       0.87476000 </v>
   <v>       0.75095250       0.87407750       0.12474500 </v>
   <v>       0.62553250       0.87507750       0.00016500 </v>
   <v>       0.49973750       0.87571750       0.87459500 </v>
   <v>       0.62600250       0.75007250       0.87465500 </v>
   <v>       0.50039000       0.75088000       0.74854000 </v>
   <v>       0.62534750       0.99987750       0.87305500 </v>
   <v>       0.74970000       0.75076500       0.74985000 </v>
   <v>       0.50027250       0.75022250       0.50012500 </v>
   <v>       0.87466750       0.99912250       0.87463500 </v>
   <v>       0.62446000       0.87498500       0.50162000 </v>
   <v>       0.74907250       0.12499750       0.62491500 </v>
   <v>       0.74965250       0.99988250       0.50137500 </v>
   <v>       0.62397750       0.00084750       0.37598500 </v>
   <v>       0.87457250       0.12420750       0.74977500 </v>
   <v>       0.62544250       0.62495750       0.00137500 </v>
   <v>       0.75023500       0.37425500       0.37476000 </v>
   <v>       0.00095250       0.62407750       0.62474500 </v>
   <v>       0.87553250       0.62507750       0.50016500 </v>
   <v>       0.74973750       0.62571750       0.37459500 </v>
   <v>       0.87600500       0.50007500       0.37466000 </v>
   <v>       0.75039000       0.50088000       0.24854000 </v>
   <v>       0.87534750       0.74987750       0.37305500 </v>
   <v>       0.99970000       0.50076500       0.24985000 </v>
   <v>       0.75027250       0.50022250       0.00012500 </v>
   <v>       0.12466750       0.74912250       0.37463500 </v>
   <v>       0.87445750       0.62498750       0.00161500 </v>
   <v>       0.99907250       0.87499750       0.12491500 </v>
   <v>       0.99965250       0.74988250       0.00137500 </v>
   <v>       0.87398000       0.75085000       0.87599000 </v>
   <v>       0.12457250       0.87420750       0.24977500 </v>
   <v>       0.87544250       0.87495750       0.50137500 </v>
   <v>       0.00023500       0.62425500       0.87476000 </v>
   <v>       0.25095000       0.87407500       0.12474000 </v>
   <v>       0.12553250       0.87507750       0.00016500 </v>
   <v>       0.99973750       0.87571750       0.87459500 </v>
   <v>       0.12600250       0.75007250       0.87465500 </v>
   <v>       0.00039000       0.75088000       0.74854000 </v>
   <v>       0.12534750       0.99987750       0.87305500 </v>
   <v>       0.24970000       0.75076500       0.74985000 </v>
   <v>       0.00027250       0.75022250       0.50012500 </v>
   <v>       0.37466750       0.99912250       0.87463500 </v>
   <v>       0.12446000       0.87498500       0.50162000 </v>
   <v>       0.24907250       0.12499750       0.62491500 </v>
   <v>       0.24965250       0.99988250       0.50137500 </v>
   <v>       0.12397750       0.00084750       0.37598500 </v>
   <v>       0.37457250       0.12420750       0.74977500 </v>
   <v>       0.25026250       0.24934750       0.24886500 </v>
   <v>       0.37540000       0.99901500       0.62581000 </v>
   <v>       0.25026250       0.24988250       0.99990500 </v>
   <v>       0.37536500       0.37434000       0.25012000 </v>
   <v>       0.12452500       0.00102500       0.12470000 </v>
   <v>       0.62450750       0.12506750       0.49982500 </v>
   <v>       0.50015250       0.12515750       0.37466500 </v>
   <v>       0.37555250       0.12560250       0.24861500 </v>
   <v>       0.24996250       0.12589750       0.12593500 </v>
   <v>       0.37545500       0.00032500       0.12460000 </v>
   <v>       0.49970750       0.24909250       0.24996500 </v>
   <v>       0.37461750       0.87555250       0.74886500 </v>
   <v>       0.37463500       0.24969000       0.12600000 </v>
   <v>       0.50001500       0.12515000       0.12596000 </v>
   <v>       0.49971750       0.00013750       0.00129500 </v>
   <v>       0.24985750       0.12477250       0.87470500 </v>
   <v>       0.50026250       0.49934750       0.74886500 </v>
   <v>       0.62540000       0.24901500       0.12581000 </v>
   <v>       0.50026250       0.49988250       0.49990500 </v>
   <v>       0.62536500       0.62434000       0.75012000 </v>
   <v>       0.37452500       0.25102500       0.62470000 </v>
   <v>       0.87450750       0.37506750       0.99982500 </v>
   <v>       0.75015250       0.37515750       0.87466500 </v>
   <v>       0.62555250       0.37560250       0.74861500 </v>
   <v>       0.49996250       0.37589750       0.62593500 </v>
   <v>       0.62545500       0.25032500       0.62460000 </v>
   <v>       0.74970750       0.49909250       0.74996500 </v>
   <v>       0.62461750       0.12555250       0.24886500 </v>
   <v>       0.62463250       0.49969250       0.62599500 </v>
   <v>       0.75001500       0.37515000       0.62596000 </v>
   <v>       0.74971750       0.25013750       0.50129500 </v>
   <v>       0.49985750       0.37477250       0.37470500 </v>
   <v>       0.75026250       0.24934750       0.24886500 </v>
   <v>       0.87540000       0.99901500       0.62581000 </v>
   <v>       0.75026250       0.24988250       0.99990500 </v>
   <v>       0.87536500       0.37434000       0.25012000 </v>
   <v>       0.62452500       0.00102500       0.12470000 </v>
   <v>       0.12450750       0.12506750       0.49982500 </v>
   <v>       0.00015250       0.12515750       0.37466500 </v>
   <v>       0.87555250       0.12560250       0.24861500 </v>
   <v>       0.74996250       0.12589750       0.12593500 </v>
   <v>       0.87545500       0.00032500       0.12460000 </v>
   <v>       0.99971000       0.24649000       0.24997000 </v>
   <v>       0.87461750       0.87555250       0.74886500 </v>
   <v>       0.87463250       0.24969250       0.12599500 </v>
   <v>       0.00001500       0.12515000       0.12596000 </v>
   <v>       0.99971750       0.00013750       0.00129500 </v>
   <v>       0.74985750       0.12477250       0.87470500 </v>
   <v>       0.25026250       0.74934750       0.24886500 </v>
   <v>       0.37540000       0.49901500       0.62581000 </v>
   <v>       0.25026250       0.74988250       0.99990500 </v>
   <v>       0.37536500       0.87434000       0.25012000 </v>
   <v>       0.12452500       0.50102500       0.12470000 </v>
   <v>       0.62450750       0.62506750       0.49982500 </v>
   <v>       0.50015250       0.62515750       0.37466500 </v>
   <v>       0.37555250       0.62560250       0.24861500 </v>
   <v>       0.24996250       0.62589750       0.12593500 </v>
   <v>       0.37545500       0.50032500       0.12460000 </v>
   <v>       0.49970750       0.74909250       0.24996500 </v>
   <v>       0.37461750       0.37555250       0.74886500 </v>
   <v>       0.37463500       0.74969000       0.12600000 </v>
   <v>       0.50001500       0.62515000       0.12596000 </v>
   <v>       0.49971750       0.50013750       0.00129500 </v>
   <v>       0.24985750       0.62477250       0.87470500 </v>
   <v>       0.00026250       0.49934750       0.74886500 </v>
   <v>       0.12540000       0.24901500       0.12581000 </v>
   <v>       0.00026250       0.49988250       0.49990500 </v>
   <v>       0.12536500       0.62434000       0.75012000 </v>
   <v>       0.87452500       0.25102500       0.62470000 </v>
   <v>       0.37450750       0.37506750       0.99982500 </v>
   <v>       0.25015250       0.37515750       0.87466500 </v>
   <v>       0.12555250       0.37560250       0.74861500 </v>
   <v>       0.99996250       0.37589750       0.62593500 </v>
   <v>       0.12545500       0.25032500       0.62460000 </v>
   <v>       0.24970750       0.49909250       0.74996500 </v>
   <v>       0.12461750       0.12555250       0.24886500 </v>
   <v>       0.12463250       0.49969250       0.62599500 </v>
   <v>       0.25001500       0.37515000       0.62596000 </v>
   <v>       0.24971750       0.25013750       0.50129500 </v>
   <v>       0.99985750       0.37477250       0.37470500 </v>
   <v>       0.50026250       0.99934750       0.74886500 </v>
   <v>       0.62540000       0.74901500       0.12581000 </v>
   <v>       0.50026250       0.99988250       0.49990500 </v>
   <v>       0.62536500       0.12434000       0.75012000 </v>
   <v>       0.37452500       0.75102500       0.62470000 </v>
   <v>       0.87450750       0.87506750       0.99982500 </v>
   <v>       0.75015250       0.87515750       0.87466500 </v>
   <v>       0.62555250       0.87560250       0.74861500 </v>
   <v>       0.49996250       0.87589750       0.62593500 </v>
   <v>       0.62545500       0.75032500       0.62460000 </v>
   <v>       0.74970750       0.99909250       0.74996500 </v>
   <v>       0.62461750       0.62555250       0.24886500 </v>
   <v>       0.62463250       0.99969250       0.62599500 </v>
   <v>       0.75001500       0.87515000       0.62596000 </v>
   <v>       0.74971750       0.75013750       0.50129500 </v>
   <v>       0.49985750       0.87477250       0.37470500 </v>
   <v>       0.75026250       0.74934750       0.24886500 </v>
   <v>       0.87540000       0.49901500       0.62581000 </v>
   <v>       0.75026250       0.74988250       0.99990500 </v>
   <v>       0.87536500       0.87434000       0.25012000 </v>
   <v>       0.62452500       0.50102500       0.12470000 </v>
   <v>       0.12450750       0.62506750       0.49982500 </v>
   <v>       0.00015250       0.62515750       0.37466500 </v>
   <v>       0.87555250       0.62560250       0.24861500 </v>
   <v>       0.74996250       0.62589750       0.12593500 </v>
   <v>       0.87545500       0.50032500       0.12460000 </v>
   <v>       0.99970750       0.74909250       0.24996500 </v>
   <v>       0.87461750       0.37555250       0.74886500 </v>
   <v>       0.87463250       0.74969250       0.12599500 </v>
   <v>       0.00001500       0.62515000       0.12596000 </v>
   <v>       0.99971750       0.50013750       0.00129500 </v>
   <v>       0.74985750       0.62477250       0.87470500 </v>
   <v>       0.00026250       0.99934750       0.74886500 </v>
   <v>       0.12540000       0.74901500       0.12581000 </v>
   <v>       0.00026250       0.99988250       0.49990500 </v>
   <v>       0.12536500       0.12434000       0.75012000 </v>
   <v>       0.87452500       0.75102500       0.62470000 </v>
   <v>       0.37450750       0.87506750       0.99982500 </v>
   <v>       0.25015250       0.87515750       0.87466500 </v>
   <v>       0.12555250       0.87560250       0.74861500 </v>
   <v>       0.99996250       0.87589750       0.62593500 </v>
   <v>       0.12545500       0.75032500       0.62460000 </v>
   <v>       0.24970750       0.99909250       0.74996500 </v>
   <v>       0.12461750       0.62555250       0.24886500 </v>
   <v>       0.12463500       0.99969000       0.62600000 </v>
   <v>       0.25001250       0.87514750       0.62596500 </v>
   <v>       0.24971750       0.75013750       0.50129500 </v>
   <v>       0.99985750       0.87477250       0.37470500 </v>
  </varray>
 </structure>
 <calculation>
  <scstep>
   <time name="dav"> 1461.82 1460.99</time>
   <time name="total"> 1462.06 1461.24</time>
   <energy>
    <i name="alphaZ">  17816.49363791 </i>
    <i name="ewald">-159091.25504784 </i>
    <i name="hartreedc"> -10357.23610941 </i>
    <i name="XCdc">  -6288.29206820 </i>
    <i name="pawpsdc"> 107387.23103886 </i>
    <i name="pawaedc"> -95870.62587529 </i>
    <i name="eentropy">      0.00216019 </i>
    <i name="bandstr">  27752.54570300 </i>
    <i name="atom"> 129934.13886476 </i>
    <i name="e_fr_energy">  11283.00230397 </i>
    <i name="e_wo_entrp">  11283.00014378 </i>
    <i name="e_0_energy">  11283.00158391 </i>
   </energy>
  </scstep>
  <scstep>
   <time name="dav"> 1467.94 1467.13</time>
   <time name="total"> 1467.96 1467.14</time>
   <energy>
    <i name="e_fr_energy">  -1439.41956927 </i>
    <i name="e_wo_entrp">  -1439.41934197 </i>
    <i name="e_0_energy">  -1439.41949350 </i>
   </energy>
  </scstep>
  <scstep>
   <time name="dav"> 1936.79 1935.89</time>
   <time name="total"> 1936.81 1935.91</time>
   <energy>
    <i name="e_fr_energy">  -2410.95326866 </i>
    <i name="e_wo_entrp">  -2410.94100111 </i>
    <i name="e_0_energy">  -2410.94917947 </i>
   </energy>
  </scstep>
  <scstep>
   <time name="dav"> 1900.15 1899.04</time>
   <time name="total"> 1900.16 1899.06</time>
   <energy>
    <i name="e_fr_energy">  -2482.27131620 </i>
    <i name="e_wo_entrp">  -2482.27100648 </i>
    <i name="e_0_energy">  -2482.27121296 </i>
   </energy>
  </scstep>
  <scstep>
   <time name="dav"> 1993.51 1992.33</time>
   <time name="total"> 2034.59 2033.40</time>
   <energy>
    <i name="e_fr_energy">  -2485.12237498 </i>
    <i name="e_wo_entrp">  -2485.12244838 </i>
    <i name="e_0_energy">  -2485.12239945 </i>
   </energy>
  </scstep>
  <scstep>
   <time name="diag">  171.30  171.20</time>
   <time name="diis">  678.84  678.44</time>
   <time name="orth">   64.83   64.78</time>
   <time name="total">  956.27  955.70</time>
   <energy>
    <i name="e_fr_energy">  -2416.49767796 </i>
    <i name="e_wo_entrp">  -2416.49652236 </i>
    <i name="e_0_energy">  -2416.49729276 </i>
   </energy>
  </scstep>
  <scstep>
   <time name="diag">  171.73  171.63</time>
   <time name="diis">  624.61  624.21</time>
   <time name="orth">   64.70   64.65</time>
   <time name="total">  902.24  901.66</time>
   <energy>
    <i name="e_fr_energy">  -2369.97237540 </i>
    <i name="e_wo_entrp">  -2369.95202067 </i>
    <i name="e_0_energy">  -2369.96559049 </i>
   </energy>
  </scstep>
  <scstep>
   <time name="diag">  171.23  171.13</time>
   <time name="diis">  626.06  625.67</time>
   <time name="orth">   64.75   64.70</time>
   <time name="total">  903.44  902.88</time>
   <energy>
    <i name="e_fr_energy">  -2339.87742592 </i>
    <i name="e_wo_entrp">  -2339.87329707 </i>
    <i name="e_0_energy">  -2339.87604964 </i>
   </energy>
  </scstep>
  <scstep>
   <time name="diag">  171.12  171.01</time>
   <time name="diis">  635.27  634.86</time>
   <time name="orth">   64.73   64.69</time>
   <time name="total">  912.46  911.88</time>
   <energy>
    <i name="e_fr_energy">  -2315.66060280 </i>
    <i name="e_wo_entrp">  -2315.69467346 </i>
    <i name="e_0_energy">  -2315.67195969 </i>
   </energy>
  </scstep>
  <scstep>
   <time name="diag">  171.19  171.09</time>
   <time name="diis">  870.23  869.70</time>
   <time name="orth">   64.78   64.73</time>
   <time name="total"> 1147.59 1146.88</time>
   <energy>
    <i name="e_fr_energy">  -2315.50000049 </i>
    <i name="e_wo_entrp">  -2315.52262841 </i>
    <i name="e_0_energy">  -2315.50754313 </i>
   </energy>
  </scstep>
  <scstep>
   <time name="diag">  170.89  170.78</time>
   <time name="diis">  791.05  790.53</time>
   <time name="orth">   64.82   64.77</time>
   <time name="total"> 1067.22 1066.51</time>
   <energy>
    <i name="e_fr_energy">  -2315.36603400 </i>
    <i name="e_wo_entrp">  -2315.38545674 </i>
    <i name="e_0_energy">  -2315.37250825 </i>
   </energy>
  </scstep>
  <scstep>
   <time name="diag">  170.81  170.70</time>
   <time name="diis">  716.73  716.26</time>
   <time name="orth">   64.81   64.76</time>
   <time name="total">  993.32  992.68</time>
   <energy>
    <i name="e_fr_energy">  -2314.89094196 </i>
    <i name="e_wo_entrp">  -2314.91091160 </i>
    <i name="e_0_energy">  -2314.89759850 </i>
   </energy>
  </scstep>
  <scstep>
   <time name="diag">  170.47  170.36</time>
   <time name="diis">  721.93  721.45</time>
   <time name="orth">   64.83   64.79</time>
   <time name="total">  997.91  997.25</time>
   <energy>
    <i name="e_fr_energy">  -2314.77815722 </i>
    <i name="e_wo_entrp">  -2314.79975202 </i>
    <i name="e_0_energy">  -2314.78535549 </i>
   </energy>
  </scstep>
  <scstep>
   <time name="diag">  170.89  170.78</time>
   <time name="diis">  724.50  724.03</time>
   <time name="orth">   64.95   64.91</time>
   <time name="total"> 1001.46 1000.81</time>
   <energy>
    <i name="e_fr_energy">  -2314.75180767 </i>
    <i name="e_wo_entrp">  -2314.77687242 </i>
    <i name="e_0_energy">  -2314.76016259 </i>
   </energy>
  </scstep>
  <scstep>
   <time name="diag">  170.72  170.60</time>
   <time name="diis">  771.91  771.40</time>
   <time name="orth">   65.05   65.00</time>
   <time name="total"> 1048.25 1047.56</time>
   <energy>
    <i name="e_fr_energy">  -2314.73073688 </i>
    <i name="e_wo_entrp">  -2314.75569121 </i>
    <i name="e_0_energy">  -2314.73905499 </i>
   </energy>
  </scstep>
  <scstep>
   <time name="diag">  170.95  170.84</time>
   <time name="diis">  737.19  736.69</time>
   <time name="orth">   65.02   64.98</time>
   <time name="total"> 1014.54 1013.86</time>
   <energy>
    <i name="e_fr_energy">  -2314.71696083 </i>
    <i name="e_wo_entrp">  -2314.74131347 </i>
    <i name="e_0_energy">  -2314.72507838 </i>
   </energy>
  </scstep>
  <scstep>
   <time name="diag">  170.74  170.62</time>
   <time name="diis">  771.52  771.00</time>
   <time name="orth">   64.77   64.72</time>
   <time name="total"> 1048.47 1047.77</time>
   <energy>
    <i name="e_fr_energy">  -2314.71448725 </i>
    <i name="e_wo_entrp">  -2314.73781984 </i>
    <i name="e_0_energy">  -2314.72226478 </i>
   </energy>
  </scstep>
  <scstep>
   <time name="diag">  170.95  170.83</time>
   <time name="diis">  849.46  848.90</time>
   <time name="orth">   64.73   64.69</time>
   <time name="total"> 1126.52 1125.77</time>
   <energy>
    <i name="e_fr_energy">  -2314.71491045 </i>
    <i name="e_wo_entrp">  -2314.73763629 </i>
    <i name="e_0_energy">  -2314.72248573 </i>
   </energy>
  </scstep>
  <scstep>
   <time name="diag">  171.08  170.97</time>
   <time name="diis">  823.80  823.28</time>
   <time name="orth">   64.76   64.72</time>
   <time name="total"> 1100.90 1100.19</time>
   <energy>
    <i name="e_fr_energy">  -2314.71487392 </i>
    <i name="e_wo_entrp">  -2314.73730369 </i>
    <i name="e_0_energy">  -2314.72235051 </i>
   </energy>
  </scstep>
  <scstep>
   <time name="diag">  170.91  170.80</time>
   <time name="diis">  716.17  715.70</time>
   <time name="orth">   64.75   64.71</time>
   <time name="total">  993.27  992.61</time>
   <energy>
    <i name="e_fr_energy">  -2314.71422241 </i>
    <i name="e_wo_entrp">  -2314.73686986 </i>
    <i name="e_0_energy">  -2314.72177156 </i>
   </energy>
  </scstep>
  <scstep>
   <time name="diag">  170.46  170.35</time>
   <time name="diis">  764.23  763.73</time>
   <time name="orth">   64.75   64.70</time>
   <time name="total"> 1040.13 1039.46</time>
   <energy>
    <i name="e_fr_energy">  -2314.71387646 </i>
    <i name="e_wo_entrp">  -2314.73695734 </i>
    <i name="e_0_energy">  -2314.72157009 </i>
   </energy>
  </scstep>
  <scstep>
   <time name="diag">  170.62  170.52</time>
   <time name="diis">  870.84  870.27</time>
   <time name="orth">   64.89   64.84</time>
   <time name="total"> 1106.58 1105.86</time>
   <energy>
    <i name="alphaZ">  17816.49363791 </i>
    <i name="ewald">-159091.25504784 </i>
    <i name="hartreedc">  -7946.83671350 </i>
    <i name="XCdc">  -6308.14396140 </i>
    <i name="pawpsdc"> 121857.46038907 </i>
    <i name="pawaedc">-111029.71080542 </i>
    <i name="eentropy">      0.02314168 </i>
    <i name="bandstr">  12453.11664504 </i>
    <i name="atom"> 129934.13886476 </i>
    <i name="e_fr_energy">  -2314.71384970 </i>
    <i name="e_wo_entrp">  -2314.73699138 </i>
    <i name="e_0_energy">  -2314.72156359 </i>
   </energy>
  </scstep>
  <structure>
   <crystal>
    <varray name="basis" >
     <v>       0.00188000      15.37080000       0.00140000 </v>
     <v>       0.00152000      -0.00140000     -15.37218000 </v>
     <v>     -15.37636000      -0.00188000       0.00151000 </v>
    </varray>
    <i name="volume">   3633.16780401 </i>
    <varray name="rec_basis" >
     <v>      -0.00000795       0.06505842      -0.00000593 </v>
     <v>      -0.00000639       0.00000593      -0.06505258 </v>
     <v>      -0.06503490       0.00000795      -0.00000643 </v>
    </varray>
   </crystal>
   <varray name="positions" >
    <v>       0.12544250       0.12495750       0.00137500 </v>
    <v>       0.25023500       0.87425500       0.37476000 </v>
    <v>       0.50095250       0.12407750       0.62474500 </v>
    <v>       0.37553250       0.12507750       0.50016500 </v>
    <v>       0.24973750       0.12571750       0.37459500 </v>
    <v>       0.37600500       0.00007500       0.37466000 </v>
    <v>       0.25039000       0.00088000       0.24854000 </v>
    <v>       0.37534750       0.24987750       0.37305500 </v>
    <v>       0.49970000       0.00076500       0.24985000 </v>
    <v>       0.25027250       0.00022250       0.00012500 </v>
    <v>       0.62466750       0.24912250       0.37463500 </v>
    <v>       0.37446000       0.12498500       0.00162000 </v>
    <v>       0.49907250       0.37499750       0.12491500 </v>
    <v>       0.49965250       0.24988250       0.00137500 </v>
    <v>       0.37398000       0.25085000       0.87599000 </v>
    <v>       0.62457250       0.37420750       0.24977500 </v>
    <v>       0.37544250       0.37495750       0.50137500 </v>
    <v>       0.50023500       0.12425500       0.87476000 </v>
    <v>       0.75095250       0.37407750       0.12474500 </v>
    <v>       0.62553250       0.37507750       0.00016500 </v>
    <v>       0.49973750       0.37571750       0.87459500 </v>
    <v>       0.62600500       0.25007500       0.87466000 </v>
    <v>       0.50039000       0.25088000       0.74854000 </v>
    <v>       0.62534750       0.49987750       0.87305500 </v>
    <v>       0.74970000       0.25076500       0.74985000 </v>
    <v>       0.50027250       0.25022250       0.50012500 </v>
    <v>       0.87466750       0.49912250       0.87463500 </v>
    <v>       0.62446000       0.37498500       0.50162000 </v>
    <v>       0.74907250       0.62499750       0.62491500 </v>
    <v>       0.74965250       0.49988250       0.50137500 </v>
    <v>       0.62398000       0.50085000       0.37599000 </v>
    <v>       0.87457250       0.62420750       0.74977500 </v>
    <v>       0.62544250       0.12495750       0.00137500 </v>
    <v>       0.75023500       0.87425500       0.37476000 </v>
    <v>       0.00095250       0.12407750       0.62474500 </v>
    <v>       0.87553250       0.12507750       0.50016500 </v>
    <v>       0.74973750       0.12571750       0.37459500 </v>
    <v>       0.87600500       0.00007500       0.37466000 </v>
    <v>       0.75039000       0.00088000       0.24854000 </v>
    <v>       0.87534750       0.24987750       0.37305500 </v>
    <v>       0.99970000       0.00076500       0.24985000 </v>
    <v>       0.75027250       0.00022250       0.00012500 </v>
    <v>       0.12466750       0.24912250       0.37463500 </v>
    <v>       0.87445750       0.12498750       0.00161500 </v>
    <v>       0.99907250       0.37499750       0.12491500 </v>
    <v>       0.99965250       0.24988250       0.00137500 </v>
    <v>       0.87398000       0.25085000       0.87599000 </v>
    <v>       0.12457250       0.37420750       0.24977500 </v>
    <v>       0.12544250       0.62495750       0.00137500 </v>
    <v>       0.25023500       0.37425500       0.37476000 </v>
    <v>       0.50095250       0.62407750       0.62474500 </v>
    <v>       0.37553250       0.62507750       0.50016500 </v>
    <v>       0.24973750       0.62571750       0.37459500 </v>
    <v>       0.37600500       0.50007500       0.37466000 </v>
    <v>       0.25039000       0.50088000       0.24854000 </v>
    <v>       0.37534750       0.74987750       0.37305500 </v>
    <v>       0.49970000       0.50076500       0.24985000 </v>
    <v>       0.25027250       0.50022250       0.00012500 </v>
    <v>       0.62466750       0.74912250       0.37463500 </v>
    <v>       0.37446000       0.62498500       0.00162000 </v>
    <v>       0.49907250       0.87499750       0.12491500 </v>
    <v>       0.49965250       0.74988250       0.00137500 </v>
    <v>       0.37397750       0.75084750       0.87598500 </v>
    <v>       0.62457250       0.87420750       0.24977500 </v>
    <v>       0.87544250       0.37495750       0.50137500 </v>
    <v>       0.00023500       0.12425500       0.87476000 </v>
    <v>       0.25095250       0.37407750       0.12474500 </v>
    <v>       0.12553250       0.37507750       0.00016500 </v>
    <v>       0.99973750       0.37571750       0.87459500 </v>
    <v>       0.12600500       0.25007500       0.87466000 </v>
    <v>       0.00039000       0.25088000       0.74854000 </v>
    <v>       0.12534750       0.49987750       0.87305500 </v>
    <v>       0.24970000       0.25076500       0.74985000 </v>
    <v>       0.00027250       0.25022250       0.50012500 </v>
    <v>       0.37466750       0.49912250       0.87463500 </v>
    <v>       0.12446000       0.37498500       0.50162000 </v>
    <v>       0.24907250       0.62499750       0.62491500 </v>
    <v>       0.24965250       0.49988250       0.50137500 </v>
    <v>       0.12397750       0.50084750       0.37598500 </v>
    <v>       0.37457250       0.62420750       0.74977500 </v>
    <v>       0.37544250       0.87495750       0.50137500 </v>
    <v>       0.50023500       0.62425500       0.87476000 </v>
    <v>       0.75095250       0.87407750       0.12474500 </v>
    <v>       0.62553250       0.87507750       0.00016500 </v>
    <v>       0.49973750       0.87571750       0.87459500 </v>
    <v>       0.62600250       0.75007250       0.87465500 </v>
    <v>       0.50039000       0.75088000       0.74854000 </v>
    <v>       0.62534750       0.99987750       0.87305500 </v>
    <v>       0.74970000       0.75076500       0.74985000 </v>
    <v>       0.50027250       0.75022250       0.50012500 </v>
    <v>       0.87466750       0.99912250       0.87463500 </v>
    <v>       0.62446000       0.87498500       0.50162000 </v>
    <v>       0.74907250       0.12499750       0.62491500 </v>
    <v>       0.74965250       0.99988250       0.50137500 </v>
    <v>       0.62397750       0.00084750       0.37598500 </v>
    <v>       0.87457250       0.12420750       0.74977500 </v>
    <v>       0.62544250       0.62495750       0.00137500 </v>
    <v>       0.75023500       0.37425500       0.37476000 </v>
    <v>       0.00095250       0.62407750       0.62474500 </v>
    <v>       0.87553250       0.62507750       0.50016500 </v>
    <v>       0.74973750       0.62571750       0.37459500 </v>
    <v>       0.87600500       0.50007500       0.37466000 </v>
    <v>       0.75039000       0.50088000       0.24854000 </v>
    <v>       0.87534750       0.74987750       0.37305500 </v>
    <v>       0.99970000       0.50076500       0.24985000 </v>
    <v>       0.75027250       0.50022250       0.00012500 </v>
    <v>       0.12466750       0.74912250       0.37463500 </v>
    <v>       0.87445750       0.62498750       0.00161500 </v>
    <v>       0.99907250       0.87499750       0.12491500 </v>
    <v>       0.99965250       0.74988250       0.00137500 </v>
    <v>       0.87398000       0.75085000       0.87599000 </v>
    <v>       0.12457250       0.87420750       0.24977500 </v>
    <v>       0.87544250       0.87495750       0.50137500 </v>
    <v>       0.00023500       0.62425500       0.87476000 </v>
    <v>       0.25095000       0.87407500       0.12474000 </v>
    <v>       0.12553250       0.87507750       0.00016500 </v>
    <v>       0.99973750       0.87571750       0.87459500 </v>
    <v>       0.12600250       0.75007250       0.87465500 </v>
    <v>       0.00039000       0.75088000       0.74854000 </v>
    <v>       0.12534750       0.99987750       0.87305500 </v>
    <v>       0.24970000       0.75076500       0.74985000 </v>
    <v>       0.00027250       0.75022250       0.50012500 </v>
    <v>       0.37466750       0.99912250       0.87463500 </v>
    <v>       0.12446000       0.87498500       0.50162000 </v>
    <v>       0.24907250       0.12499750       0.62491500 </v>
    <v>       0.24965250       0.99988250       0.50137500 </v>
    <v>       0.12397750       0.00084750       0.37598500 </v>
    <v>       0.37457250       0.12420750       0.74977500 </v>
    <v>       0.25026250       0.24934750       0.24886500 </v>
    <v>       0.37540000       0.99901500       0.62581000 </v>
    <v>       0.25026250       0.24988250       0.99990500 </v>
    <v>       0.37536500       0.37434000       0.25012000 </v>
    <v>       0.12452500       0.00102500       0.12470000 </v>
    <v>       0.62450750       0.12506750       0.49982500 </v>
    <v>       0.50015250       0.12515750       0.37466500 </v>
    <v>       0.37555250       0.12560250       0.24861500 </v>
    <v>       0.24996250       0.12589750       0.12593500 </v>
    <v>       0.37545500       0.00032500       0.12460000 </v>
    <v>       0.49970750       0.24909250       0.24996500 </v>
    <v>       0.37461750       0.87555250       0.74886500 </v>
    <v>       0.37463500       0.24969000       0.12600000 </v>
    <v>       0.50001500       0.12515000       0.12596000 </v>
    <v>       0.49971750       0.00013750       0.00129500 </v>
    <v>       0.24985750       0.12477250       0.87470500 </v>
    <v>       0.50026250       0.49934750       0.74886500 </v>
    <v>       0.62540000       0.24901500       0.12581000 </v>
    <v>       0.50026250       0.49988250       0.49990500 </v>
    <v>       0.62536500       0.62434000       0.75012000 </v>
    <v>       0.37452500       0.25102500       0.62470000 </v>
    <v>       0.87450750       0.37506750       0.99982500 </v>
    <v>       0.75015250       0.37515750       0.87466500 </v>
    <v>       0.62555250       0.37560250       0.74861500 </v>
    <v>       0.49996250       0.37589750       0.62593500 </v>
    <v>       0.62545500       0.25032500       0.62460000 </v>
    <v>       0.74970750       0.49909250       0.74996500 </v>
    <v>       0.62461750       0.12555250       0.24886500 </v>
    <v>       0.62463250       0.49969250       0.62599500 </v>
    <v>       0.75001500       0.37515000       0.62596000 </v>
    <v>       0.74971750       0.25013750       0.50129500 </v>
    <v>       0.49985750       0.37477250       0.37470500 </v>
    <v>       0.75026250       0.24934750       0.24886500 </v>
    <v>       0.87540000       0.99901500       0.62581000 </v>
    <v>       0.75026250       0.24988250       0.99990500 </v>
    <v>       0.87536500       0.37434000       0.25012000 </v>
    <v>       0.62452500       0.00102500       0.12470000 </v>
    <v>       0.12450750       0.12506750       0.49982500 </v>
    <v>       0.00015250       0.12515750       0.37466500 </v>
    <v>       0.87555250       0.12560250       0.24861500 </v>
    <v>       0.74996250       0.12589750       0.12593500 </v>
    <v>       0.87545500       0.00032500       0.12460000 </v>
    <v>       0.99971000       0.24649000       0.24997000 </v>
    <v>       0.87461750       0.87555250       0.74886500 </v>
    <v>       0.87463250       0.24969250       0.12599500 </v>
    <v>       0.00001500       0.12515000       0.12596000 </v>
    <v>       0.99971750       0.00013750       0.00129500 </v>
    <v>       0.74985750       0.12477250       0.87470500 </v>
    <v>       0.25026250       0.74934750       0.24886500 </v>
    <v>       0.37540000       0.49901500       0.62581000 </v>
    <v>       0.25026250       0.74988250       0.99990500 </v>
    <v>       0.37536500       0.87434000       0.25012000 </v>
    <v>       0.12452500       0.50102500       0.12470000 </v>
    <v>       0.62450750       0.62506750       0.49982500 </v>
    <v>       0.50015250       0.62515750       0.37466500 </v>
    <v>       0.37555250       0.62560250       0.24861500 </v>
    <v>       0.24996250       0.62589750       0.12593500 </v>
    <v>       0.37545500       0.50032500       0.12460000 </v>
    <v>       0.49970750       0.74909250       0.24996500 </v>
    <v>       0.37461750       0.37555250       0.74886500 </v>
    <v>       0.37463500       0.74969000       0.12600000 </v>
    <v>       0.50001500       0.62515000       0.12596000 </v>
    <v>       0.49971750       0.50013750       0.00129500 </v>
    <v>       0.24985750       0.62477250       0.87470500 </v>
    <v>       0.00026250       0.49934750       0.74886500 </v>
    <v>       0.12540000       0.24901500       0.12581000 </v>
    <v>       0.00026250       0.49988250       0.49990500 </v>
    <v>       0.12536500       0.62434000       0.75012000 </v>
    <v>       0.87452500       0.25102500       0.62470000 </v>
    <v>       0.37450750       0.37506750       0.99982500 </v>
    <v>       0.25015250       0.37515750       0.87466500 </v>
    <v>       0.12555250       0.37560250       0.74861500 </v>
    <v>       0.99996250       0.37589750       0.62593500 </v>
    <v>       0.12545500       0.25032500       0.62460000 </v>
    <v>       0.24970750       0.49909250       0.74996500 </v>
    <v>       0.12461750       0.12555250       0.24886500 </v>
    <v>       0.12463250       0.49969250       0.62599500 </v>
    <v>       0.25001500       0.37515000       0.62596000 </v>
    <v>       0.24971750       0.25013750       0.50129500 </v>
    <v>       0.99985750       0.37477250       0.37470500 </v>
    <v>       0.50026250       0.99934750       0.74886500 </v>
    <v>       0.62540000       0.74901500       0.12581000 </v>
    <v>       0.50026250       0.99988250       0.49990500 </v>
    <v>       0.62536500       0.12434000       0.75012000 </v>
    <v>       0.37452500       0.75102500       0.62470000 </v>
    <v>       0.87450750       0.87506750       0.99982500 </v>
    <v>       0.75015250       0.87515750       0.87466500 </v>
    <v>       0.62555250       0.87560250       0.74861500 </v>
    <v>       0.49996250       0.87589750       0.62593500 </v>
    <v>       0.62545500       0.75032500       0.62460000 </v>
    <v>       0.74970750       0.99909250       0.74996500 </v>
    <v>       0.62461750       0.62555250       0.24886500 </v>
    <v>       0.62463250       0.99969250       0.62599500 </v>
    <v>       0.75001500       0.87515000       0.62596000 </v>
    <v>       0.74971750       0.75013750       0.50129500 </v>
    <v>       0.49985750       0.87477250       0.37470500 </v>
    <v>       0.75026250       0.74934750       0.24886500 </v>
    <v>       0.87540000       0.49901500       0.62581000 </v>
    <v>       0.75026250       0.74988250       0.99990500 </v>
    <v>       0.87536500       0.87434000       0.25012000 </v>
    <v>       0.62452500       0.50102500       0.12470000 </v>
    <v>       0.12450750       0.62506750       0.49982500 </v>
    <v>       0.00015250       0.62515750       0.37466500 </v>
    <v>       0.87555250       0.62560250       0.24861500 </v>
    <v>       0.74996250       0.62589750       0.12593500 </v>
    <v>       0.87545500       0.50032500       0.12460000 </v>
    <v>       0.99970750       0.74909250       0.24996500 </v>
    <v>       0.87461750       0.37555250       0.74886500 </v>
    <v>       0.87463250       0.74969250       0.12599500 </v>
    <v>       0.00001500       0.62515000       0.12596000 </v>
    <v>       0.99971750       0.50013750       0.00129500 </v>
    <v>       0.74985750       0.62477250       0.87470500 </v>
    <v>       0.00026250       0.99934750       0.74886500 </v>
    <v>       0.12540000       0.74901500       0.12581000 </v>
    <v>       0.00026250       0.99988250       0.49990500 </v>
    <v>       0.12536500       0.12434000       0.75012000 </v>
    <v>       0.87452500       0.75102500       0.62470000 </v>
    <v>       0.37450750       0.87506750       0.99982500 </v>
    <v>       0.25015250       0.87515750       0.87466500 </v>
    <v>       0.12555250       0.87560250       0.74861500 </v>
    <v>       0.99996250       0.87589750       0.62593500 </v>
    <v>       0.12545500       0.75032500       0.62460000 </v>
    <v>       0.24970750       0.99909250       0.74996500 </v>
    <v>       0.12461750       0.62555250       0.24886500 </v>
    <v>       0.12463500       0.99969000       0.62600000 </v>
    <v>       0.25001250       0.87514750       0.62596500 </v>
    <v>       0.24971750       0.75013750       0.50129500 </v>
    <v>       0.99985750       0.87477250       0.37470500 </v>
   </varray>
  </structure>
  <varray name="forces" >
   <v>       0.01599408      -0.00035109       0.00669187 </v>
   <v>      -0.00466862      -0.00273107      -0.00100440 </v>
   <v>       0.00986485       0.00410727      -0.00039273 </v>
   <v>       0.00233850      -0.00013522      -0.00422024 </v>
   <v>       0.01105024       0.00750113       0.00309025 </v>
   <v>      -0.00091356      -0.00530504      -0.00111089 </v>
   <v>      -0.00486596       0.01660781       0.01486534 </v>
   <v>      -0.00494158       0.00569621      -0.00075831 </v>
   <v>      -0.00841041       0.00095972      -0.00799485 </v>
   <v>       0.00535238      -0.00094669      -0.00257006 </v>
   <v>      -0.00316395      -0.00210849       0.00340682 </v>
   <v>      -0.00581159      -0.00279345       0.00145632 </v>
   <v>      -0.00079121      -0.00536308       0.00925175 </v>
   <v>      -0.00564993       0.00060641      -0.00043102 </v>
   <v>       0.00508011       0.00052591      -0.00428593 </v>
   <v>       0.00227584      -0.00179418       0.00129761 </v>
   <v>       0.00997953       0.00385805       0.00031402 </v>
   <v>      -0.00458704      -0.00138361       0.00069719 </v>
   <v>       0.01366933       0.00885527       0.00399607 </v>
   <v>       0.00220119      -0.00067802      -0.00424560 </v>
   <v>       0.00733688       0.00244378      -0.00334819 </v>
   <v>      -0.00108412      -0.00318164       0.00020642 </v>
   <v>      -0.00466705      -0.00209304      -0.00503195 </v>
   <v>      -0.00514332       0.00607953       0.00036734 </v>
   <v>      -0.00873580       0.00035526      -0.00701879 </v>
   <v>       0.00540939      -0.00115954      -0.00188285 </v>
   <v>      -0.00165924      -0.00320404       0.00416896 </v>
   <v>      -0.00666743      -0.00384038       0.00138982 </v>
   <v>      -0.00125048      -0.00505773       0.00963452 </v>
   <v>      -0.00489540       0.00097544      -0.00126761 </v>
   <v>       0.00505740      -0.00070802      -0.00546400 </v>
   <v>       0.00251656      -0.00045771       0.00091716 </v>
   <v>       0.01109759       0.00225874       0.00060044 </v>
   <v>      -0.00456385      -0.00018550      -0.00063502 </v>
   <v>       0.01146415       0.00434625       0.00046024 </v>
   <v>      -0.00265488       0.00320641       0.00188073 </v>
   <v>       0.01112033      -0.00218489       0.00296171 </v>
   <v>      -0.00596915      -0.00839165       0.01054643 </v>
   <v>      -0.00483934      -0.02151099       0.01532385 </v>
   <v>      -0.00419037       0.00642838       0.00299503 </v>
   <v>      -0.00798350       0.00021176       0.02104839 </v>
   <v>       0.00519931      -0.00114639      -0.00255057 </v>
   <v>      -0.00064761      -0.00269815       0.00661876 </v>
   <v>      -0.00211518       0.00092813       0.00851253 </v>
   <v>      -0.03106064      -0.00415415       0.02836107 </v>
   <v>      -0.00652380       0.00041898      -0.00608171 </v>
   <v>       0.00500007       0.00110470      -0.00645161 </v>
   <v>       0.00400357      -0.03406097       0.02506068 </v>
   <v>       0.01152083       0.00328357      -0.00048212 </v>
   <v>      -0.00873734      -0.00561887       0.00680761 </v>
   <v>       0.00962717       0.00399884      -0.00091379 </v>
   <v>       0.00213147       0.00010549      -0.00330773 </v>
   <v>       0.00752064       0.00409340      -0.00498619 </v>
   <v>      -0.00144178      -0.00165458      -0.00134015 </v>
   <v>      -0.00408708      -0.01464082       0.00825383 </v>
   <v>      -0.00517510       0.00556466       0.00126819 </v>
   <v>      -0.00891805       0.00129897      -0.00796909 </v>
   <v>       0.00464539      -0.00189755      -0.00215046 </v>
   <v>      -0.00325584      -0.00220621       0.00543349 </v>
   <v>      -0.00610719      -0.00276856       0.00183583 </v>
   <v>      -0.00065051      -0.00563950       0.01019506 </v>
   <v>      -0.00555840       0.00028011      -0.00095697 </v>
   <v>       0.00415837       0.00137980      -0.00452392 </v>
   <v>       0.00300777      -0.00538803       0.00500282 </v>
   <v>       0.01431296      -0.00001163       0.00482193 </v>
   <v>      -0.00689239      -0.00134423       0.00154128 </v>
   <v>       0.01379832       0.00052527       0.00394483 </v>
   <v>      -0.00207111       0.00394682       0.00168647 </v>
   <v>       0.00924199       0.00262036      -0.00304677 </v>
   <v>      -0.00118389      -0.00366045      -0.00163740 </v>
   <v>      -0.00457179      -0.00195163      -0.00421983 </v>
   <v>      -0.00326247       0.00685835      -0.00005701 </v>
   <v>      -0.00874920       0.00098486      -0.00690678 </v>
   <v>       0.00391873      -0.00115425      -0.00787494 </v>
   <v>      -0.00321749      -0.00271893       0.00474250 </v>
   <v>      -0.00278682       0.00045977       0.00628348 </v>
   <v>      -0.00134631      -0.00579894       0.00959771 </v>
   <v>      -0.00437697      -0.00027924      -0.00107661 </v>
   <v>       0.00710897      -0.00185005       0.00212743 </v>
   <v>       0.00256152      -0.00104902       0.00041452 </v>
   <v>       0.01052070       0.00253205       0.00126016 </v>
   <v>      -0.00459788      -0.00133496       0.00061427 </v>
   <v>       0.00973624       0.00461843      -0.00098719 </v>
   <v>       0.00233700       0.00062089      -0.00369835 </v>
   <v>       0.00778544       0.00247295      -0.00319666 </v>
   <v>      -0.00186158      -0.00281156      -0.00017611 </v>
   <v>      -0.00476102      -0.00199357      -0.00404095 </v>
   <v>      -0.00484557       0.00583398       0.00041296 </v>
   <v>      -0.00870256       0.00077223      -0.00922227 </v>
   <v>       0.00519295      -0.00116403      -0.00311726 </v>
   <v>      -0.00443794      -0.00209464       0.00400474 </v>
   <v>      -0.00599651      -0.00286287       0.00220514 </v>
   <v>      -0.00059298      -0.00496410       0.00886775 </v>
   <v>      -0.00635439      -0.00027984      -0.00103245 </v>
   <v>       0.00428259       0.00320968      -0.00590675 </v>
   <v>       0.00264590      -0.00126952       0.00097107 </v>
   <v>       0.01057067       0.00246804       0.00097796 </v>
   <v>      -0.00857904       0.00300479       0.00668772 </v>
   <v>       0.01078482       0.00369087       0.00101088 </v>
   <v>       0.00056668       0.00016854      -0.00418998 </v>
   <v>       0.00802150       0.00112516      -0.00502549 </v>
   <v>       0.00231156      -0.00093719       0.00743492 </v>
   <v>      -0.00445297       0.01574053       0.01422650 </v>
   <v>      -0.00520792       0.00601670       0.00062149 </v>
   <v>      -0.00740920       0.00199604       0.02038032 </v>
   <v>       0.00502450      -0.00078250      -0.00251080 </v>
   <v>      -0.00329196      -0.00249448       0.00459402 </v>
   <v>      -0.00606651      -0.00297928       0.00145045 </v>
   <v>      -0.00193242      -0.00567864       0.00678488 </v>
   <v>      -0.00635643       0.00065001      -0.00212369 </v>
   <v>       0.00519941       0.00073861      -0.00462721 </v>
   <v>       0.00313503      -0.00223722      -0.00183517 </v>
   <v>       0.01223162       0.00252240       0.00022868 </v>
[...]
       <r>     9.7507   243.2825  2303.8790 </r>
       <r>     9.7973   223.8793  2314.3131 </r>
       <r>     9.8439   219.7355  2324.5540 </r>
       <r>     9.8905   237.2740  2335.6124 </r>
       <r>     9.9371   264.9446  2347.9604 </r>
       <r>     9.9837   295.9624  2361.7540 </r>
       <r>    10.0303   328.0755  2377.0442 </r>
       <r>    10.0769   349.4138  2393.3290 </r>
       <r>    10.1235   345.8926  2409.4496 </r>
       <r>    10.1701   323.2405  2424.5145 </r>
       <r>    10.2167   310.1870  2438.9711 </r>
       <r>    10.2634   330.2390  2454.3621 </r>
       <r>    10.3100   389.2458  2472.5033 </r>
       <r>    10.3566   468.4473  2494.3357 </r>
       <r>    10.4032   519.1362  2518.5305 </r>
       <r>    10.4498   507.9762  2542.2052 </r>
       <r>    10.4964   448.4209  2563.1042 </r>
       <r>    10.5430   371.7271  2580.4289 </r>
       <r>    10.5896   300.2075  2594.4204 </r>
       <r>    10.6362   246.8924  2605.9270 </r>
       <r>    10.6828   211.4483  2615.7817 </r>
       <r>    10.7294   179.8328  2624.1630 </r>
       <r>    10.7760   140.9129  2630.7304 </r>
       <r>    10.8226    96.2515  2635.2163 </r>
       <r>    10.8692    55.3626  2637.7965 </r>
       <r>    10.9158    26.2110  2639.0181 </r>
       <r>    10.9624     9.8652  2639.4779 </r>
       <r>    11.0090     3.0256  2639.6189 </r>
       <r>    11.0557     1.5776  2639.6924 </r>
       <r>    11.1023     1.8639  2639.7793 </r>
       <r>    11.1489     1.5903  2639.8534 </r>
       <r>    11.1955     0.6432  2639.8833 </r>
       <r>    11.2421    -0.0054  2639.8831 </r>
       <r>    11.2887    -0.1139  2639.8778 </r>
       <r>    11.3353    -0.0485  2639.8755 </r>
       <r>    11.3819    -0.0103  2639.8750 </r>
       <r>    11.4285    -0.0035  2639.8749 </r>
       <r>    11.4751    -0.0140  2639.8742 </r>
       <r>    11.5217    -0.0435  2639.8722 </r>
       <r>    11.5683    -0.0318  2639.8707 </r>
       <r>    11.6149     0.2171  2639.8808 </r>
       <r>    11.6615     0.7362  2639.9151 </r>
       <r>    11.7081     1.0241  2639.9629 </r>
       <r>    11.7547     0.7007  2639.9955 </r>
       <r>    11.8013     0.1893  2640.0044 </r>
       <r>    11.8480    -0.0375  2640.0026 </r>
       <r>    11.8946    -0.0414  2640.0007 </r>
       <r>    11.9412    -0.0125  2640.0001 </r>
       <r>    11.9878    -0.0020  2640.0000 </r>
       <r>    12.0344    -0.0002  2640.0000 </r>
       <r>    12.0810    -0.0000  2640.0000 </r>
       <r>    12.1276    -0.0000  2640.0000 </r>
       <r>    12.1742    -0.0000  2640.0000 </r>
       <r>    12.2208    -0.0000  2640.0000 </r>
       <r>    12.2674    -0.0000  2640.0000 </r>
       <r>    12.3140    -0.0000  2640.0000 </r>
       <r>    12.3606     0.0000  2640.0000 </r>
       <r>    12.4072     0.0000  2640.0000 </r>
       <r>    12.4538     0.0000  2640.0000 </r>
       <r>    12.5004     0.0000  2640.0000 </r>
       <r>    12.5470     0.0000  2640.0000 </r>
       <r>    12.5936     0.0000  2640.0000 </r>
       <r>    12.6403     0.0000  2640.0000 </r>
       <r>    12.6869     0.0000  2640.0000 </r>
      </set>
     </set>
    </array>
   </total>
  </dos>
 </calculation>
 <structure name="finalpos" >
  <crystal>
   <varray name="basis" >
    <v>       0.00188000      15.37080000       0.00140000 </v>
    <v>       0.00152000      -0.00140000     -15.37218000 </v>
    <v>     -15.37636000      -0.00188000       0.00151000 </v>
   </varray>
   <i name="volume">   3633.16780401 </i>
   <varray name="rec_basis" >
    <v>      -0.00000795       0.06505842      -0.00000593 </v>
    <v>      -0.00000639       0.00000593      -0.06505258 </v>
    <v>      -0.06503490       0.00000795      -0.00000643 </v>
   </varray>
  </crystal>
  <varray name="positions" >
   <v>       0.12544250       0.12495750       0.00137500 </v>
   <v>       0.25023500       0.87425500       0.37476000 </v>
   <v>       0.50095250       0.12407750       0.62474500 </v>
   <v>       0.37553250       0.12507750       0.50016500 </v>
   <v>       0.24973750       0.12571750       0.37459500 </v>
   <v>       0.37600500       0.00007500       0.37466000 </v>
   <v>       0.25039000       0.00088000       0.24854000 </v>
   <v>       0.37534750       0.24987750       0.37305500 </v>
   <v>       0.49970000       0.00076500       0.24985000 </v>
   <v>       0.25027250       0.00022250       0.00012500 </v>
   <v>       0.62466750       0.24912250       0.37463500 </v>
   <v>       0.37446000       0.12498500       0.00162000 </v>
   <v>       0.49907250       0.37499750       0.12491500 </v>
   <v>       0.49965250       0.24988250       0.00137500 </v>
   <v>       0.37398000       0.25085000       0.87599000 </v>
   <v>       0.62457250       0.37420750       0.24977500 </v>
   <v>       0.37544250       0.37495750       0.50137500 </v>
   <v>       0.50023500       0.12425500       0.87476000 </v>
   <v>       0.75095250       0.37407750       0.12474500 </v>
   <v>       0.62553250       0.37507750       0.00016500 </v>
   <v>       0.49973750       0.37571750       0.87459500 </v>
   <v>       0.62600500       0.25007500       0.87466000 </v>
   <v>       0.50039000       0.25088000       0.74854000 </v>
   <v>       0.62534750       0.49987750       0.87305500 </v>
   <v>       0.74970000       0.25076500       0.74985000 </v>
   <v>       0.50027250       0.25022250       0.50012500 </v>
   <v>       0.87466750       0.49912250       0.87463500 </v>
   <v>       0.62446000       0.37498500       0.50162000 </v>
   <v>       0.74907250       0.62499750       0.62491500 </v>
   <v>       0.74965250       0.49988250       0.50137500 </v>
   <v>       0.62398000       0.50085000       0.37599000 </v>
   <v>       0.87457250       0.62420750       0.74977500 </v>
   <v>       0.62544250       0.12495750       0.00137500 </v>
   <v>       0.75023500       0.87425500       0.37476000 </v>
   <v>       0.00095250       0.12407750       0.62474500 </v>
   <v>       0.87553250       0.12507750       0.50016500 </v>
   <v>       0.74973750       0.12571750       0.37459500 </v>
   <v>       0.87600500       0.00007500       0.37466000 </v>
   <v>       0.75039000       0.00088000       0.24854000 </v>
   <v>       0.87534750       0.24987750       0.37305500 </v>
   <v>       0.99970000       0.00076500       0.24985000 </v>
   <v>       0.75027250       0.00022250       0.00012500 </v>
   <v>       0.12466750       0.24912250       0.37463500 </v>
   <v>       0.87445750       0.12498750       0.00161500 </v>
   <v>       0.99907250       0.37499750       0.12491500 </v>
   <v>       0.99965250       0.24988250       0.00137500 </v>
   <v>       0.87398000       0.25085000       0.87599000 </v>
   <v>       0.12457250       0.37420750       0.24977500 </v>
   <v>       0.12544250       0.62495750       0.00137500 </v>
   <v>       0.25023500       0.37425500       0.37476000 </v>
   <v>       0.50095250       0.62407750       0.62474500 </v>
   <v>       0.37553250       0.62507750       0.50016500 </v>
   <v>       0.24973750       0.62571750       0.37459500 </v>
   <v>       0.37600500       0.50007500       0.37466000 </v>
   <v>       0.25039000       0.50088000       0.24854000 </v>
   <v>       0.37534750       0.74987750       0.37305500 </v>
   <v>       0.49970000       0.50076500       0.24985000 </v>
   <v>       0.25027250       0.50022250       0.00012500 </v>
   <v>       0.62466750       0.74912250       0.37463500 </v>
   <v>       0.37446000       0.62498500       0.00162000 </v>
   <v>       0.49907250       0.87499750       0.12491500 </v>
   <v>       0.49965250       0.74988250       0.00137500 </v>
   <v>       0.37397750       0.75084750       0.87598500 </v>
   <v>       0.62457250       0.87420750       0.24977500 </v>
   <v>       0.87544250       0.37495750       0.50137500 </v>
   <v>       0.00023500       0.12425500       0.87476000 </v>
   <v>       0.25095250       0.37407750       0.12474500 </v>
   <v>       0.12553250       0.37507750       0.00016500 </v>
   <v>       0.99973750       0.37571750       0.87459500 </v>
   <v>       0.12600500       0.25007500       0.87466000 </v>
   <v>       0.00039000       0.25088000       0.74854000 </v>
   <v>       0.12534750       0.49987750       0.87305500 </v>
   <v>       0.24970000       0.25076500       0.74985000 </v>
   <v>       0.00027250       0.25022250       0.50012500 </v>
   <v>       0.37466750       0.49912250       0.87463500 </v>
   <v>       0.12446000       0.37498500       0.50162000 </v>
   <v>       0.24907250       0.62499750       0.62491500 </v>
   <v>       0.24965250       0.49988250       0.50137500 </v>
   <v>       0.12397750       0.50084750       0.37598500 </v>
   <v>       0.37457250       0.62420750       0.74977500 </v>
   <v>       0.37544250       0.87495750       0.50137500 </v>
   <v>       0.50023500       0.62425500       0.87476000 </v>
   <v>       0.75095250       0.87407750       0.12474500 </v>
   <v>       0.62553250       0.87507750       0.00016500 </v>
   <v>       0.49973750       0.87571750       0.87459500 </v>
   <v>       0.62600250       0.75007250       0.87465500 </v>
   <v>       0.50039000       0.75088000       0.74854000 </v>
   <v>       0.62534750       0.99987750       0.87305500 </v>
   <v>       0.74970000       0.75076500       0.74985000 </v>
   <v>       0.50027250       0.75022250       0.50012500 </v>
   <v>       0.87466750       0.99912250       0.87463500 </v>
   <v>       0.62446000       0.87498500       0.50162000 </v>
   <v>       0.74907250       0.12499750       0.62491500 </v>
   <v>       0.74965250       0.99988250       0.50137500 </v>
   <v>       0.62397750       0.00084750       0.37598500 </v>
   <v>       0.87457250       0.12420750       0.74977500 </v>
   <v>       0.62544250       0.62495750       0.00137500 </v>
   <v>       0.75023500       0.37425500       0.37476000 </v>
   <v>       0.00095250       0.62407750       0.62474500 </v>
   <v>       0.87553250       0.62507750       0.50016500 </v>
   <v>       0.74973750       0.62571750       0.37459500 </v>
   <v>       0.87600500       0.50007500       0.37466000 </v>
   <v>       0.75039000       0.50088000       0.24854000 </v>
   <v>       0.87534750       0.74987750       0.37305500 </v>
   <v>       0.99970000       0.50076500       0.24985000 </v>
   <v>       0.75027250       0.50022250       0.00012500 </v>
   <v>       0.12466750       0.74912250       0.37463500 </v>
   <v>       0.87445750       0.62498750       0.00161500 </v>
   <v>       0.99907250       0.87499750       0.12491500 </v>
   <v>       0.99965250       0.74988250       0.00137500 </v>
   <v>       0.87398000       0.75085000       0.87599000 </v>
   <v>       0.12457250       0.87420750       0.24977500 </v>
   <v>       0.87544250       0.87495750       0.50137500 </v>
   <v>       0.00023500       0.62425500       0.87476000 </v>
   <v>       0.25095000       0.87407500       0.12474000 </v>
   <v>       0.12553250       0.87507750       0.00016500 </v>
   <v>       0.99973750       0.87571750       0.87459500 </v>
   <v>       0.12600250       0.75007250       0.87465500 </v>
   <v>       0.00039000       0.75088000       0.74854000 </v>
   <v>       0.12534750       0.99987750       0.87305500 </v>
   <v>       0.24970000       0.75076500       0.74985000 </v>
   <v>       0.00027250       0.75022250       0.50012500 </v>
   <v>       0.37466750       0.99912250       0.87463500 </v>
   <v>       0.12446000       0.87498500       0.50162000 </v>
   <v>       0.24907250       0.12499750       0.62491500 </v>
   <v>       0.24965250       0.99988250       0.50137500 </v>
   <v>       0.12397750       0.00084750       0.37598500 </v>
   <v>       0.37457250       0.12420750       0.74977500 </v>
   <v>       0.25026250       0.24934750       0.24886500 </v>
   <v>       0.37540000       0.99901500       0.62581000 </v>
   <v>       0.25026250       0.24988250       0.99990500 </v>
   <v>       0.37536500       0.37434000       0.25012000 </v>
   <v>       0.12452500       0.00102500       0.12470000 </v>
   <v>       0.62450750       0.12506750       0.49982500 </v>
   <v>       0.50015250       0.12515750       0.37466500 </v>
   <v>       0.37555250       0.12560250       0.24861500 </v>
   <v>       0.24996250       0.12589750       0.12593500 </v>
   <v>       0.37545500       0.00032500       0.12460000 </v>
   <v>       0.49970750       0.24909250       0.24996500 </v>
   <v>       0.37461750       0.87555250       0.74886500 </v>
   <v>       0.37463500       0.24969000       0.12600000 </v>
   <v>       0.50001500       0.12515000       0.12596000 </v>
   <v>       0.49971750       0.00013750       0.00129500 </v>
   <v>       0.24985750       0.12477250       0.87470500 </v>
   <v>       0.50026250       0.49934750       0.74886500 </v>
   <v>       0.62540000       0.24901500       0.12581000 </v>
   <v>       0.50026250       0.49988250       0.49990500 </v>
   <v>       0.62536500       0.62434000       0.75012000 </v>
   <v>       0.37452500       0.25102500       0.62470000 </v>
   <v>       0.87450750       0.37506750       0.99982500 </v>
   <v>       0.75015250       0.37515750       0.87466500 </v>
   <v>       0.62555250       0.37560250       0.74861500 </v>
   <v>       0.49996250       0.37589750       0.62593500 </v>
   <v>       0.62545500       0.25032500       0.62460000 </v>
   <v>       0.74970750       0.49909250       0.74996500 </v>
   <v>       0.62461750       0.12555250       0.24886500 </v>
   <v>       0.62463250       0.49969250       0.62599500 </v>
   <v>       0.75001500       0.37515000       0.62596000 </v>
   <v>       0.74971750       0.25013750       0.50129500 </v>
   <v>       0.49985750       0.37477250       0.37470500 </v>
   <v>       0.75026250       0.24934750       0.24886500 </v>
   <v>       0.87540000       0.99901500       0.62581000 </v>
   <v>       0.75026250       0.24988250       0.99990500 </v>
   <v>       0.87536500       0.37434000       0.25012000 </v>
   <v>       0.62452500       0.00102500       0.12470000 </v>
   <v>       0.12450750       0.12506750       0.49982500 </v>
   <v>       0.00015250       0.12515750       0.37466500 </v>
   <v>       0.87555250       0.12560250       0.24861500 </v>
   <v>       0.74996250       0.12589750       0.12593500 </v>
   <v>       0.87545500       0.00032500       0.12460000 </v>
   <v>       0.99971000       0.24649000       0.24997000 </v>
   <v>       0.87461750       0.87555250       0.74886500 </v>
   <v>       0.87463250       0.24969250       0.12599500 </v>
   <v>       0.00001500       0.12515000       0.12596000 </v>
   <v>       0.99971750       0.00013750       0.00129500 </v>
   <v>       0.74985750       0.12477250       0.87470500 </v>
   <v>       0.25026250       0.74934750       0.24886500 </v>
   <v>       0.37540000       0.49901500       0.62581000 </v>
   <v>       0.25026250       0.74988250       0.99990500 </v>
   <v>       0.37536500       0.87434000       0.25012000 </v>
   <v>       0.12452500       0.50102500       0.12470000 </v>
   <v>       0.62450750       0.62506750       0.49982500 </v>
   <v>       0.50015250       0.62515750       0.37466500 </v>
   <v>       0.37555250       0.62560250       0.24861500 </v>
   <v>       0.24996250       0.62589750       0.12593500 </v>
   <v>       0.37545500       0.50032500       0.12460000 </v>
   <v>       0.49970750       0.74909250       0.24996500 </v>
   <v>       0.37461750       0.37555250       0.74886500 </v>
   <v>       0.37463500       0.74969000       0.12600000 </v>
   <v>       0.50001500       0.62515000       0.12596000 </v>
   <v>       0.49971750       0.50013750       0.00129500 </v>
   <v>       0.24985750       0.62477250       0.87470500 </v>
   <v>       0.00026250       0.49934750       0.74886500 </v>
   <v>       0.12540000       0.24901500       0.12581000 </v>
   <v>       0.00026250       0.49988250       0.49990500 </v>
   <v>       0.12536500       0.62434000       0.75012000 </v>
   <v>       0.87452500       0.25102500       0.62470000 </v>
   <v>       0.37450750       0.37506750       0.99982500 </v>
   <v>       0.25015250       0.37515750       0.87466500 </v>
   <v>       0.12555250       0.37560250       0.74861500 </v>
   <v>       0.99996250       0.37589750       0.62593500 </v>
   <v>       0.12545500       0.25032500       0.62460000 </v>
   <v>       0.24970750       0.49909250       0.74996500 </v>
   <v>       0.12461750       0.12555250       0.24886500 </v>
   <v>       0.12463250       0.49969250       0.62599500 </v>
   <v>       0.25001500       0.37515000       0.62596000 </v>
   <v>       0.24971750       0.25013750       0.50129500 </v>
   <v>       0.99985750       0.37477250       0.37470500 </v>
   <v>       0.50026250       0.99934750       0.74886500 </v>
   <v>       0.62540000       0.74901500       0.12581000 </v>
   <v>       0.50026250       0.99988250       0.49990500 </v>
   <v>       0.62536500       0.12434000       0.75012000 </v>
   <v>       0.37452500       0.75102500       0.62470000 </v>
   <v>       0.87450750       0.87506750       0.99982500 </v>
   <v>       0.75015250       0.87515750       0.87466500 </v>
   <v>       0.62555250       0.87560250       0.74861500 </v>
   <v>       0.49996250       0.87589750       0.62593500 </v>
   <v>       0.62545500       0.75032500       0.62460000 </v>
   <v>       0.74970750       0.99909250       0.74996500 </v>
   <v>       0.62461750       0.62555250       0.24886500 </v>
   <v>       0.62463250       0.99969250       0.62599500 </v>
   <v>       0.75001500       0.87515000       0.62596000 </v>
   <v>       0.74971750       0.75013750       0.50129500 </v>
   <v>       0.49985750       0.87477250       0.37470500 </v>
   <v>       0.75026250       0.74934750       0.24886500 </v>
   <v>       0.87540000       0.49901500       0.62581000 </v>
   <v>       0.75026250       0.74988250       0.99990500 </v>
   <v>       0.87536500       0.87434000       0.25012000 </v>
   <v>       0.62452500       0.50102500       0.12470000 </v>
   <v>       0.12450750       0.62506750       0.49982500 </v>
   <v>       0.00015250       0.62515750       0.37466500 </v>
   <v>       0.87555250       0.62560250       0.24861500 </v>
   <v>       0.74996250       0.62589750       0.12593500 </v>
   <v>       0.87545500       0.50032500       0.12460000 </v>
   <v>       0.99970750       0.74909250       0.24996500 </v>
   <v>       0.87461750       0.37555250       0.74886500 </v>
   <v>       0.87463250       0.74969250       0.12599500 </v>
   <v>       0.00001500       0.62515000       0.12596000 </v>
   <v>       0.99971750       0.50013750       0.00129500 </v>
   <v>       0.74985750       0.62477250       0.87470500 </v>
   <v>       0.00026250       0.99934750       0.74886500 </v>
   <v>       0.12540000       0.74901500       0.12581000 </v>
   <v>       0.00026250       0.99988250       0.49990500 </v>
   <v>       0.12536500       0.12434000       0.75012000 </v>
   <v>       0.87452500       0.75102500       0.62470000 </v>
   <v>       0.37450750       0.87506750       0.99982500 </v>
   <v>       0.25015250       0.87515750       0.87466500 </v>
   <v>       0.12555250       0.87560250       0.74861500 </v>
   <v>       0.99996250       0.87589750       0.62593500 </v>
   <v>       0.12545500       0.75032500       0.62460000 </v>
   <v>       0.24970750       0.99909250       0.74996500 </v>
   <v>       0.12461750       0.62555250       0.24886500 </v>
   <v>       0.12463500       0.99969000       0.62600000 </v>
   <v>       0.25001250       0.87514750       0.62596500 </v>
   <v>       0.24971750       0.75013750       0.50129500 </v>
   <v>       0.99985750       0.87477250       0.37470500 </v>
  </varray>
 </structure>
</modeling>
