 256 256   0   0
  0.1418917E+02  0.1588033E-08  0.1692661E-08  0.1693229E-08  0.5000000E-15
  1.000000000000000E-004
  CAR 
 Ir_Ru                                   
     14.28157309     -1.29198420  301      9.45702391      1.00000000
     -1.292  0.0000E+00  0.0000E+00
     -1.240  0.0000E+00  0.0000E+00
     -1.188  0.0000E+00  0.0000E+00
     -1.136 -0.2822E-30 -0.1465E-31
     -1.084 -0.1296E-26 -0.6731E-28
     -1.032 -0.3459E-23 -0.1796E-24
     -0.981 -0.5358E-20 -0.2783E-21
     -0.929 -0.4813E-17 -0.2501E-18
     -0.877 -0.2446E-14 -0.1272E-15
     -0.825 -0.7287E-12 -0.3796E-13
     -0.773 -0.1258E-09 -0.6571E-11
     -0.721 -0.1250E-07 -0.6553E-09
     -0.669 -0.7106E-06 -0.3754E-07
     -0.617 -0.2301E-04 -0.1232E-05
     -0.565 -0.4213E-03 -0.2310E-04
     -0.513 -0.4318E-02 -0.2473E-03
     -0.461 -0.2452E-01 -0.1520E-02
     -0.409 -0.7558E-01 -0.5444E-02
     -0.358 -0.1016E+00 -0.1072E-01
     -0.306  0.2112E+00  0.2470E-03
     -0.254  0.1658E+01  0.8629E-01
     -0.202  0.4423E+01  0.3159E+00
     -0.150  0.6361E+01  0.6461E+00
     -0.098  0.6422E+01  0.9795E+00
     -0.046  0.6976E+01  0.1342E+01
      0.006  0.8882E+01  0.1803E+01
      0.058  0.1121E+02  0.2385E+01
      0.110  0.1363E+02  0.3092E+01
      0.162  0.1433E+02  0.3836E+01
      0.213  0.1166E+02  0.4442E+01
      0.265  0.1008E+02  0.4965E+01
      0.317  0.1436E+02  0.5710E+01
      0.369  0.2041E+02  0.6770E+01
      0.421  0.2253E+02  0.7939E+01
      0.473  0.2272E+02  0.9119E+01
      0.525  0.2352E+02  0.1034E+02
      0.577  0.2249E+02  0.1151E+02
      0.629  0.2044E+02  0.1257E+02
      0.681  0.2103E+02  0.1366E+02
      0.733  0.2031E+02  0.1471E+02
      0.784  0.1446E+02  0.1546E+02
      0.836  0.8789E+01  0.1592E+02
      0.888  0.8029E+01  0.1634E+02
      0.940  0.1178E+02  0.1695E+02
      0.992  0.1905E+02  0.1794E+02
      1.044  0.2798E+02  0.1939E+02
      1.096  0.3340E+02  0.2112E+02
      1.148  0.3305E+02  0.2284E+02
      1.200  0.2873E+02  0.2433E+02
      1.252  0.2273E+02  0.2551E+02
      1.304  0.1946E+02  0.2652E+02
      1.356  0.2176E+02  0.2765E+02
      1.407  0.2726E+02  0.2907E+02
      1.459  0.3036E+02  0.3064E+02
      1.511  0.2981E+02  0.3219E+02
      1.563  0.2934E+02  0.3371E+02
      1.615  0.3042E+02  0.3529E+02
      1.667  0.3111E+02  0.3691E+02
      1.719  0.3207E+02  0.3857E+02
      1.771  0.3508E+02  0.4039E+02
      1.823  0.3918E+02  0.4243E+02
      1.875  0.4565E+02  0.4480E+02
      1.927  0.5482E+02  0.4764E+02
      1.978  0.5933E+02  0.5072E+02
      2.030  0.5462E+02  0.5356E+02
      2.082  0.5058E+02  0.5618E+02
      2.134  0.6211E+02  0.5941E+02
      2.186  0.8754E+02  0.6395E+02
      2.238  0.1091E+03  0.6962E+02
      2.290  0.1199E+03  0.7584E+02
      2.342  0.1259E+03  0.8238E+02
      2.394  0.1316E+03  0.8921E+02
      2.446  0.1376E+03  0.9635E+02
      2.498  0.1474E+03  0.1040E+03
      2.549  0.1647E+03  0.1126E+03
      2.601  0.1832E+03  0.1221E+03
      2.653  0.1951E+03  0.1322E+03
      2.705  0.2073E+03  0.1430E+03
      2.757  0.2241E+03  0.1546E+03
      2.809  0.2307E+03  0.1666E+03
      2.861  0.2244E+03  0.1782E+03
      2.913  0.2280E+03  0.1901E+03
      2.965  0.2456E+03  0.2028E+03
      3.017  0.2580E+03  0.2162E+03
      3.069  0.2599E+03  0.2297E+03
      3.121  0.2604E+03  0.2432E+03
      3.172  0.2641E+03  0.2569E+03
      3.224  0.2733E+03  0.2711E+03
      3.276  0.2886E+03  0.2861E+03
      3.328  0.3080E+03  0.3021E+03
      3.380  0.3248E+03  0.3189E+03
      3.432  0.3308E+03  0.3361E+03
      3.484  0.3276E+03  0.3531E+03
      3.536  0.3213E+03  0.3698E+03
      3.588  0.3181E+03  0.3863E+03
      3.640  0.3163E+03  0.4027E+03
      3.692  0.3108E+03  0.4189E+03
      3.743  0.3050E+03  0.4347E+03
      3.795  0.3010E+03  0.4503E+03
      3.847  0.2967E+03  0.4657E+03
      3.899  0.2931E+03  0.4809E+03
      3.951  0.2882E+03  0.4959E+03
      4.003  0.2756E+03  0.5102E+03
      4.055  0.2664E+03  0.5240E+03
      4.107  0.2762E+03  0.5384E+03
      4.159  0.2947E+03  0.5537E+03
      4.211  0.3030E+03  0.5694E+03
      4.263  0.3055E+03  0.5852E+03
      4.314  0.3125E+03  0.6015E+03
      4.366  0.3188E+03  0.6180E+03
      4.418  0.3214E+03  0.6347E+03
      4.470  0.3237E+03  0.6515E+03
      4.522  0.3207E+03  0.6682E+03
      4.574  0.3091E+03  0.6842E+03
      4.626  0.2970E+03  0.6996E+03
      4.678  0.2936E+03  0.7149E+03
      4.730  0.2984E+03  0.7304E+03
      4.782  0.3062E+03  0.7462E+03
      4.834  0.3185E+03  0.7628E+03
      4.886  0.3319E+03  0.7800E+03
      4.937  0.3379E+03  0.7976E+03
      4.989  0.3456E+03  0.8155E+03
      5.041  0.3585E+03  0.8341E+03
      5.093  0.3654E+03  0.8531E+03
      5.145  0.3638E+03  0.8720E+03
      5.197  0.3543E+03  0.8904E+03
      5.249  0.3332E+03  0.9076E+03
      5.301  0.3005E+03  0.9232E+03
      5.353  0.2593E+03  0.9367E+03
      5.405  0.2164E+03  0.9479E+03
      5.457  0.1835E+03  0.9575E+03
      5.508  0.1730E+03  0.9664E+03
      5.560  0.1910E+03  0.9764E+03
      5.612  0.2299E+03  0.9883E+03
      5.664  0.2784E+03  0.1003E+04
      5.716  0.3281E+03  0.1020E+04
      5.768  0.3693E+03  0.1039E+04
      5.820  0.3961E+03  0.1060E+04
      5.872  0.4107E+03  0.1081E+04
      5.924  0.4193E+03  0.1103E+04
      5.976  0.4258E+03  0.1125E+04
      6.028  0.4279E+03  0.1147E+04
      6.079  0.4152E+03  0.1168E+04
      6.131  0.3907E+03  0.1189E+04
      6.183  0.3712E+03  0.1208E+04
      6.235  0.3610E+03  0.1227E+04
      6.287  0.3554E+03  0.1245E+04
      6.339  0.3569E+03  0.1264E+04
      6.391  0.3702E+03  0.1283E+04
      6.443  0.3824E+03  0.1303E+04
      6.495  0.3844E+03  0.1323E+04
      6.547  0.3924E+03  0.1343E+04
      6.599  0.4107E+03  0.1364E+04
      6.651  0.4242E+03  0.1386E+04
      6.702  0.4282E+03  0.1409E+04
      6.754  0.4252E+03  0.1431E+04
      6.806  0.4125E+03  0.1452E+04
      6.858  0.3907E+03  0.1472E+04
      6.910  0.3725E+03  0.1492E+04
      6.962  0.3662E+03  0.1511E+04
      7.014  0.3635E+03  0.1530E+04
      7.066  0.3690E+03  0.1549E+04
      7.118  0.3929E+03  0.1569E+04
      7.170  0.4156E+03  0.1591E+04
      7.222  0.4223E+03  0.1613E+04
      7.273  0.4221E+03  0.1635E+04
      7.325  0.4122E+03  0.1656E+04
      7.377  0.3860E+03  0.1676E+04
      7.429  0.3573E+03  0.1695E+04
      7.481  0.3395E+03  0.1712E+04
      7.533  0.3324E+03  0.1729E+04
      7.585  0.3284E+03  0.1747E+04
      7.637  0.3159E+03  0.1763E+04
      7.689  0.2943E+03  0.1778E+04
      7.741  0.2768E+03  0.1793E+04
      7.793  0.2685E+03  0.1807E+04
      7.845  0.2633E+03  0.1820E+04
      7.896  0.2569E+03  0.1834E+04
      7.948  0.2478E+03  0.1846E+04
      8.000  0.2428E+03  0.1859E+04
      8.052  0.2432E+03  0.1872E+04
      8.104  0.2388E+03  0.1884E+04
      8.156  0.2310E+03  0.1896E+04
      8.208  0.2291E+03  0.1908E+04
      8.260  0.2338E+03  0.1920E+04
      8.312  0.2378E+03  0.1932E+04
      8.364  0.2389E+03  0.1945E+04
      8.416  0.2365E+03  0.1957E+04
      8.467  0.2281E+03  0.1969E+04
      8.519  0.2180E+03  0.1980E+04
      8.571  0.2118E+03  0.1991E+04
      8.623  0.2066E+03  0.2002E+04
      8.675  0.1992E+03  0.2012E+04
      8.727  0.1909E+03  0.2022E+04
      8.779  0.1827E+03  0.2032E+04
      8.831  0.1794E+03  0.2041E+04
      8.883  0.1895E+03  0.2051E+04
      8.935  0.2152E+03  0.2062E+04
      8.987  0.2363E+03  0.2074E+04
      9.038  0.2357E+03  0.2087E+04
      9.090  0.2224E+03  0.2098E+04
      9.142  0.2051E+03  0.2109E+04
      9.194  0.1858E+03  0.2118E+04
      9.246  0.1792E+03  0.2128E+04
      9.298  0.1996E+03  0.2138E+04
      9.350  0.2303E+03  0.2150E+04
      9.402  0.2433E+03  0.2163E+04
      9.454  0.2428E+03  0.2175E+04
      9.506  0.2450E+03  0.2188E+04
      9.558  0.2442E+03  0.2201E+04
      9.610  0.2474E+03  0.2213E+04
      9.661  0.2777E+03  0.2228E+04
      9.713  0.3201E+03  0.2244E+04
      9.765  0.3355E+03  0.2262E+04
      9.817  0.3254E+03  0.2279E+04
      9.869  0.3163E+03  0.2295E+04
      9.921  0.3156E+03  0.2312E+04
      9.973  0.3228E+03  0.2328E+04
     10.025  0.3457E+03  0.2346E+04
     10.077  0.3831E+03  0.2366E+04
     10.129  0.4148E+03  0.2388E+04
     10.181  0.4290E+03  0.2410E+04
     10.232  0.4370E+03  0.2433E+04
     10.284  0.4502E+03  0.2456E+04
     10.336  0.4690E+03  0.2480E+04
     10.388  0.4875E+03  0.2506E+04
     10.440  0.4976E+03  0.2532E+04
     10.492  0.4879E+03  0.2557E+04
     10.544  0.4477E+03  0.2580E+04
     10.596  0.3858E+03  0.2600E+04
     10.648  0.3154E+03  0.2617E+04
     10.700  0.2296E+03  0.2628E+04
     10.752  0.1286E+03  0.2635E+04
     10.803  0.4373E+02  0.2637E+04
     10.855  0.2873E+01  0.2638E+04
     10.907 -0.3680E+01  0.2637E+04
     10.959 -0.1374E+01  0.2637E+04
     11.011 -0.3668E+00  0.2637E+04
     11.063 -0.1582E+00  0.2637E+04
     11.115 -0.4808E-01  0.2637E+04
     11.167 -0.7573E-02  0.2637E+04
     11.219 -0.6319E-03  0.2637E+04
     11.271 -0.2892E-04  0.2637E+04
     11.323 -0.7423E-06  0.2637E+04
     11.375 -0.1082E-07  0.2637E+04
     11.426 -0.9034E-10  0.2637E+04
     11.478 -0.2827E-10  0.2637E+04
     11.530 -0.3768E-08  0.2637E+04
     11.582 -0.2923E-06  0.2637E+04
     11.634 -0.1289E-04  0.2637E+04
     11.686 -0.3189E-03  0.2637E+04
     11.738 -0.4311E-02  0.2637E+04
     11.790 -0.2999E-01  0.2637E+04
     11.842 -0.8785E-01  0.2637E+04
     11.894  0.3392E-01  0.2637E+04
     11.946  0.7740E+00  0.2637E+04
     11.997  0.1669E+01  0.2637E+04
     12.049  0.1525E+01  0.2637E+04
     12.101  0.8836E+00  0.2637E+04
     12.153  0.8400E+00  0.2638E+04
     12.205  0.9869E+00  0.2638E+04
     12.257  0.1161E+01  0.2638E+04
     12.309  0.2087E+01  0.2638E+04
     12.361  0.3509E+01  0.2638E+04
     12.413  0.3736E+01  0.2638E+04
     12.465  0.2769E+01  0.2638E+04
     12.517  0.2290E+01  0.2638E+04
     12.568  0.2655E+01  0.2639E+04
     12.620  0.3007E+01  0.2639E+04
     12.672  0.3361E+01  0.2639E+04
     12.724  0.3847E+01  0.2639E+04
     12.776  0.3314E+01  0.2639E+04
     12.828  0.2296E+01  0.2639E+04
     12.880  0.2330E+01  0.2639E+04
     12.932  0.2375E+01  0.2640E+04
     12.984  0.1602E+01  0.2640E+04
     13.036  0.1026E+01  0.2640E+04
     13.088  0.8894E+00  0.2640E+04
     13.140  0.8545E+00  0.2640E+04
     13.191  0.9636E+00  0.2640E+04
     13.243  0.1072E+01  0.2640E+04
     13.295  0.1031E+01  0.2640E+04
     13.347  0.6619E+00  0.2640E+04
     13.399  0.1661E+00  0.2640E+04
     13.451 -0.4104E-01  0.2640E+04
     13.503 -0.3279E-01  0.2640E+04
     13.555 -0.7306E-02  0.2640E+04
     13.607 -0.7803E-03  0.2640E+04
     13.659 -0.4434E-04  0.2640E+04
     13.711 -0.1395E-05  0.2640E+04
     13.762 -0.2475E-07  0.2640E+04
     13.814 -0.2504E-09  0.2640E+04
     13.866 -0.1453E-11  0.2640E+04
     13.918 -0.5228E-14  0.2640E+04
     13.970  0.0000E+00  0.2640E+04
     14.022  0.0000E+00  0.2640E+04
     14.074  0.0000E+00  0.2640E+04
     14.126  0.0000E+00  0.2640E+04
     14.178  0.0000E+00  0.2640E+04
     14.230  0.0000E+00  0.2640E+04
     14.282  0.0000E+00  0.2640E+04
