 256 256   0   0
  0.1419206E+02  0.1537080E-08  0.1537218E-08  0.1537636E-08  0.5000000E-15
  1.000000000000000E-004
  CAR 
 Ir_Ru                                   
     12.68472561     -1.29450543  301      9.24207310      1.00000000
     -1.295  0.0000E+00  0.0000E+00
     -1.248  0.0000E+00  0.0000E+00
     -1.201  0.0000E+00  0.0000E+00
     -1.155  0.0000E+00  0.0000E+00
     -1.108 -0.2746E-28 -0.1279E-29
     -1.062 -0.4095E-25 -0.1910E-26
     -1.015 -0.3940E-22 -0.1838E-23
     -0.968 -0.2446E-19 -0.1142E-20
     -0.922 -0.9801E-17 -0.4578E-18
     -0.875 -0.2458E-14 -0.1150E-15
     -0.829 -0.4077E-12 -0.1911E-13
     -0.782 -0.4354E-10 -0.2048E-11
     -0.735 -0.2996E-08 -0.1417E-09
     -0.689 -0.1329E-06 -0.6336E-08
     -0.642 -0.3810E-05 -0.1839E-06
     -0.596 -0.7069E-04 -0.3478E-05
     -0.549 -0.8518E-03 -0.4317E-04
     -0.502 -0.6668E-02 -0.3539E-03
     -0.456 -0.3351E-01 -0.1915E-02
     -0.409 -0.1019E+00 -0.6665E-02
     -0.363 -0.1378E+00 -0.1308E-01
     -0.316  0.2230E+00 -0.2694E-02
     -0.269  0.1507E+01  0.6752E-01
     -0.223  0.3536E+01  0.2323E+00
     -0.176  0.5069E+01  0.4685E+00
     -0.130  0.5730E+01  0.7355E+00
     -0.083  0.7319E+01  0.1076E+01
     -0.036  0.1019E+02  0.1551E+01
      0.010  0.1102E+02  0.2065E+01
      0.057  0.9151E+01  0.2491E+01
      0.103  0.9366E+01  0.2928E+01
      0.150  0.1313E+02  0.3540E+01
      0.197  0.1591E+02  0.4281E+01
      0.243  0.1604E+02  0.5028E+01
      0.290  0.1671E+02  0.5807E+01
      0.336  0.1848E+02  0.6668E+01
      0.383  0.1835E+02  0.7523E+01
      0.430  0.1742E+02  0.8335E+01
      0.476  0.1976E+02  0.9255E+01
      0.523  0.2334E+02  0.1034E+02
      0.569  0.2405E+02  0.1146E+02
      0.616  0.2229E+02  0.1250E+02
      0.663  0.1876E+02  0.1338E+02
      0.709  0.1412E+02  0.1403E+02
      0.756  0.1116E+02  0.1455E+02
      0.802  0.1072E+02  0.1505E+02
      0.849  0.1117E+02  0.1557E+02
      0.896  0.1220E+02  0.1614E+02
      0.942  0.1467E+02  0.1683E+02
      0.989  0.1831E+02  0.1768E+02
      1.035  0.2284E+02  0.1874E+02
      1.082  0.2805E+02  0.2005E+02
      1.129  0.3124E+02  0.2151E+02
      1.175  0.2973E+02  0.2289E+02
      1.222  0.2588E+02  0.2410E+02
      1.268  0.2304E+02  0.2517E+02
      1.315  0.2096E+02  0.2615E+02
      1.362  0.2004E+02  0.2708E+02
      1.408  0.2165E+02  0.2809E+02
      1.455  0.2411E+02  0.2921E+02
      1.501  0.2570E+02  0.3041E+02
      1.548  0.2898E+02  0.3176E+02
      1.595  0.3508E+02  0.3340E+02
      1.641  0.3872E+02  0.3520E+02
      1.688  0.3785E+02  0.3697E+02
      1.734  0.3924E+02  0.3879E+02
      1.781  0.4548E+02  0.4091E+02
      1.828  0.4933E+02  0.4321E+02
      1.874  0.4782E+02  0.4544E+02
      1.921  0.4725E+02  0.4764E+02
      1.967  0.5085E+02  0.5001E+02
      2.014  0.5407E+02  0.5253E+02
      2.061  0.5541E+02  0.5511E+02
      2.107  0.6121E+02  0.5797E+02
      2.154  0.7435E+02  0.6143E+02
      2.200  0.8921E+02  0.6559E+02
      2.247  0.1030E+03  0.7038E+02
      2.293  0.1177E+03  0.7587E+02
      2.340  0.1309E+03  0.8197E+02
      2.387  0.1382E+03  0.8841E+02
      2.433  0.1432E+03  0.9508E+02
      2.480  0.1522E+03  0.1022E+03
      2.526  0.1609E+03  0.1097E+03
      2.573  0.1618E+03  0.1172E+03
      2.620  0.1615E+03  0.1247E+03
      2.666  0.1690E+03  0.1326E+03
      2.713  0.1785E+03  0.1409E+03
      2.759  0.1849E+03  0.1495E+03
      2.806  0.1978E+03  0.1588E+03
      2.853  0.2229E+03  0.1691E+03
      2.899  0.2476E+03  0.1807E+03
      2.946  0.2563E+03  0.1926E+03
      2.992  0.2499E+03  0.2043E+03
      3.039  0.2470E+03  0.2158E+03
      3.086  0.2622E+03  0.2280E+03
      3.132  0.2864E+03  0.2413E+03
      3.179  0.3010E+03  0.2554E+03
      3.225  0.3036E+03  0.2695E+03
      3.272  0.3050E+03  0.2837E+03
      3.319  0.3086E+03  0.2981E+03
      3.365  0.3114E+03  0.3126E+03
      3.412  0.3146E+03  0.3273E+03
      3.458  0.3218E+03  0.3423E+03
      3.505  0.3335E+03  0.3578E+03
      3.552  0.3442E+03  0.3739E+03
      3.598  0.3471E+03  0.3900E+03
      3.645  0.3451E+03  0.4061E+03
      3.691  0.3490E+03  0.4224E+03
      3.738  0.3579E+03  0.4391E+03
      3.785  0.3594E+03  0.4558E+03
      3.831  0.3523E+03  0.4722E+03
      3.878  0.3479E+03  0.4884E+03
      3.924  0.3497E+03  0.5047E+03
      3.971  0.3507E+03  0.5211E+03
      4.018  0.3415E+03  0.5370E+03
      4.064  0.3229E+03  0.5520E+03
      4.111  0.3067E+03  0.5663E+03
      4.157  0.2976E+03  0.5802E+03
      4.204  0.2875E+03  0.5936E+03
      4.251  0.2713E+03  0.6062E+03
      4.297  0.2536E+03  0.6180E+03
      4.344  0.2427E+03  0.6294E+03
      4.390  0.2454E+03  0.6408E+03
      4.437  0.2580E+03  0.6528E+03
      4.484  0.2616E+03  0.6650E+03
      4.530  0.2504E+03  0.6767E+03
      4.577  0.2475E+03  0.6882E+03
      4.623  0.2672E+03  0.7007E+03
      4.670  0.2920E+03  0.7143E+03
      4.717  0.3069E+03  0.7286E+03
      4.763  0.3138E+03  0.7432E+03
      4.810  0.3136E+03  0.7578E+03
      4.856  0.3049E+03  0.7720E+03
      4.903  0.2902E+03  0.7855E+03
      4.950  0.2786E+03  0.7985E+03
      4.996  0.2812E+03  0.8116E+03
      5.043  0.2952E+03  0.8254E+03
      5.089  0.3080E+03  0.8397E+03
      5.136  0.3093E+03  0.8541E+03
      5.183  0.2976E+03  0.8680E+03
      5.229  0.2855E+03  0.8813E+03
      5.276  0.2843E+03  0.8945E+03
      5.322  0.2902E+03  0.9081E+03
      5.369  0.2972E+03  0.9219E+03
      5.416  0.3019E+03  0.9360E+03
      5.462  0.2986E+03  0.9499E+03
      5.509  0.2886E+03  0.9633E+03
      5.555  0.2865E+03  0.9767E+03
      5.602  0.3026E+03  0.9908E+03
      5.649  0.3215E+03  0.1006E+04
      5.695  0.3252E+03  0.1021E+04
      5.742  0.3202E+03  0.1036E+04
      5.788  0.3199E+03  0.1051E+04
      5.835  0.3263E+03  0.1066E+04
      5.881  0.3367E+03  0.1082E+04
      5.928  0.3501E+03  0.1098E+04
      5.975  0.3654E+03  0.1115E+04
      6.021  0.3789E+03  0.1133E+04
      6.068  0.3853E+03  0.1151E+04
      6.114  0.3874E+03  0.1169E+04
      6.161  0.3916E+03  0.1187E+04
      6.208  0.3985E+03  0.1205E+04
      6.254  0.4094E+03  0.1225E+04
      6.301  0.4271E+03  0.1244E+04
      6.347  0.4465E+03  0.1265E+04
      6.394  0.4573E+03  0.1287E+04
      6.441  0.4571E+03  0.1308E+04
      6.487  0.4531E+03  0.1329E+04
      6.534  0.4501E+03  0.1350E+04
      6.580  0.4458E+03  0.1371E+04
      6.627  0.4394E+03  0.1391E+04
      6.674  0.4321E+03  0.1411E+04
      6.720  0.4251E+03  0.1431E+04
      6.767  0.4171E+03  0.1451E+04
      6.813  0.4017E+03  0.1469E+04
      6.860  0.3769E+03  0.1487E+04
      6.907  0.3544E+03  0.1503E+04
      6.953  0.3443E+03  0.1519E+04
      7.000  0.3392E+03  0.1535E+04
      7.046  0.3277E+03  0.1550E+04
      7.093  0.3149E+03  0.1565E+04
      7.140  0.3136E+03  0.1580E+04
      7.186  0.3194E+03  0.1595E+04
      7.233  0.3134E+03  0.1609E+04
      7.279  0.2875E+03  0.1623E+04
      7.326  0.2559E+03  0.1635E+04
      7.373  0.2402E+03  0.1646E+04
      7.419  0.2486E+03  0.1657E+04
      7.466  0.2711E+03  0.1670E+04
      7.512  0.2846E+03  0.1683E+04
      7.559  0.2765E+03  0.1696E+04
      7.606  0.2585E+03  0.1708E+04
      7.652  0.2483E+03  0.1720E+04
      7.699  0.2572E+03  0.1732E+04
      7.745  0.2828E+03  0.1745E+04
      7.792  0.3054E+03  0.1759E+04
      7.839  0.3119E+03  0.1774E+04
      7.885  0.3087E+03  0.1788E+04
      7.932  0.3030E+03  0.1802E+04
      7.978  0.2961E+03  0.1816E+04
      8.025  0.2910E+03  0.1830E+04
      8.072  0.2957E+03  0.1843E+04
      8.118  0.3091E+03  0.1858E+04
      8.165  0.3170E+03  0.1872E+04
      8.211  0.3177E+03  0.1887E+04
      8.258  0.3297E+03  0.1903E+04
      8.305  0.3536E+03  0.1919E+04
      8.351  0.3624E+03  0.1936E+04
      8.398  0.3399E+03  0.1952E+04
      8.444  0.3000E+03  0.1966E+04
      8.491  0.2670E+03  0.1978E+04
      8.538  0.2558E+03  0.1990E+04
      8.584  0.2708E+03  0.2003E+04
      8.631  0.2954E+03  0.2017E+04
      8.677  0.3001E+03  0.2031E+04
      8.724  0.2840E+03  0.2044E+04
      8.771  0.2676E+03  0.2056E+04
      8.817  0.2570E+03  0.2068E+04
      8.864  0.2492E+03  0.2080E+04
      8.910  0.2452E+03  0.2091E+04
      8.957  0.2453E+03  0.2103E+04
      9.004  0.2534E+03  0.2115E+04
      9.050  0.2733E+03  0.2127E+04
      9.097  0.2840E+03  0.2140E+04
      9.143  0.2662E+03  0.2153E+04
      9.190  0.2409E+03  0.2164E+04
      9.237  0.2283E+03  0.2175E+04
      9.283  0.2199E+03  0.2185E+04
      9.330  0.2138E+03  0.2195E+04
      9.376  0.2218E+03  0.2205E+04
      9.423  0.2423E+03  0.2217E+04
      9.470  0.2622E+03  0.2229E+04
      9.516  0.2735E+03  0.2242E+04
      9.563  0.2772E+03  0.2254E+04
      9.609  0.2762E+03  0.2267E+04
      9.656  0.2710E+03  0.2280E+04
      9.702  0.2611E+03  0.2292E+04
      9.749  0.2440E+03  0.2304E+04
      9.796  0.2244E+03  0.2314E+04
      9.842  0.2195E+03  0.2324E+04
      9.889  0.2364E+03  0.2335E+04
      9.935  0.2638E+03  0.2348E+04
      9.982  0.2947E+03  0.2361E+04
     10.029  0.3270E+03  0.2376E+04
     10.075  0.3491E+03  0.2393E+04
     10.122  0.3465E+03  0.2409E+04
     10.168  0.3240E+03  0.2424E+04
     10.215  0.3102E+03  0.2438E+04
     10.262  0.3289E+03  0.2454E+04
     10.308  0.3866E+03  0.2472E+04
     10.355  0.4657E+03  0.2493E+04
     10.401  0.5184E+03  0.2518E+04
     10.448  0.5096E+03  0.2541E+04
     10.495  0.4511E+03  0.2562E+04
     10.541  0.3745E+03  0.2580E+04
     10.588  0.3026E+03  0.2594E+04
     10.634  0.2485E+03  0.2606E+04
     10.681  0.2127E+03  0.2615E+04
     10.728  0.1814E+03  0.2624E+04
     10.774  0.1428E+03  0.2631E+04
     10.821  0.9794E+02  0.2635E+04
     10.867  0.5682E+02  0.2638E+04
     10.914  0.2726E+02  0.2639E+04
     10.961  0.1017E+02  0.2640E+04
     11.007  0.2758E+01  0.2640E+04
     11.054  0.1277E+01  0.2640E+04
     11.100  0.1728E+01  0.2640E+04
     11.147  0.1549E+01  0.2640E+04
     11.194  0.6445E+00  0.2640E+04
     11.240  0.6393E-02  0.2640E+04
     11.287 -0.1091E+00  0.2640E+04
     11.333 -0.4815E-01  0.2640E+04
     11.380 -0.1050E-01  0.2640E+04
     11.427 -0.3389E-02  0.2640E+04
     11.473 -0.1321E-01  0.2640E+04
     11.520 -0.4248E-01  0.2640E+04
     11.566 -0.3552E-01  0.2640E+04
     11.613  0.2013E+00  0.2640E+04
     11.660  0.7178E+00  0.2640E+04
     11.706  0.1026E+01  0.2640E+04
     11.753  0.7206E+00  0.2640E+04
     11.799  0.2035E+00  0.2640E+04
     11.846 -0.3507E-01  0.2640E+04
     11.893 -0.4264E-01  0.2640E+04
     11.939 -0.1322E-01  0.2640E+04
     11.986 -0.2139E-02  0.2640E+04
     12.032 -0.2032E-03  0.2640E+04
     12.079 -0.1182E-04  0.2640E+04
     12.126 -0.4301E-06  0.2640E+04
     12.172 -0.9890E-08  0.2640E+04
     12.219 -0.1448E-09  0.2640E+04
     12.265 -0.1355E-11  0.2640E+04
     12.312 -0.8041E-14  0.2640E+04
     12.359  0.0000E+00  0.2640E+04
     12.405  0.0000E+00  0.2640E+04
     12.452  0.0000E+00  0.2640E+04
     12.498  0.0000E+00  0.2640E+04
     12.545  0.0000E+00  0.2640E+04
     12.592  0.0000E+00  0.2640E+04
     12.638  0.0000E+00  0.2640E+04
     12.685  0.0000E+00  0.2640E+04
