  96  96   0   0
  0.1378350E+02  0.1089172E-08  0.1089172E-08  0.1287993E-08  0.5000000E-15
  1.000000000000000E-004
  CAR 
 Ir_Ru                                   
     15.29972517     -0.11608674  301      8.79254766      1.00000000
     -0.116  0.0000E+00  0.0000E+00
     -0.065  0.0000E+00  0.0000E+00
     -0.013  0.0000E+00  0.0000E+00
      0.038 -0.7877E-31 -0.4047E-32
      0.089 -0.3385E-27 -0.1740E-28
      0.141 -0.8546E-24 -0.4393E-25
      0.192 -0.1266E-20 -0.6510E-22
      0.244 -0.1100E-17 -0.5657E-19
      0.295 -0.5379E-15 -0.2770E-16
      0.346 -0.1609E-12 -0.8294E-14
      0.398 -0.2775E-10 -0.1434E-11
      0.449 -0.2780E-08 -0.1443E-09
      0.501 -0.1611E-06 -0.8425E-08
      0.552 -0.5369E-05 -0.2843E-06
      0.603 -0.1021E-03 -0.5529E-05
      0.655 -0.1097E-02 -0.6192E-04
      0.706 -0.6634E-02 -0.4028E-03
      0.757 -0.2240E-01 -0.1554E-02
      0.809 -0.3681E-01 -0.3445E-02
      0.860  0.3526E-01 -0.1633E-02
      0.912  0.4203E+00  0.1996E-01
      0.963  0.1273E+01  0.8540E-01
      1.014  0.2196E+01  0.1983E+00
      1.066  0.2408E+01  0.3220E+00
      1.117  0.1909E+01  0.4201E+00
      1.169  0.2172E+01  0.5318E+00
      1.220  0.4042E+01  0.7395E+00
      1.271  0.5703E+01  0.1033E+01
      1.323  0.4854E+01  0.1282E+01
      1.374  0.2476E+01  0.1409E+01
      1.425  0.1912E+01  0.1507E+01
      1.477  0.4166E+01  0.1722E+01
      1.528  0.7067E+01  0.2085E+01
      1.580  0.7909E+01  0.2491E+01
      1.631  0.6123E+01  0.2806E+01
      1.682  0.4465E+01  0.3035E+01
      1.734  0.5415E+01  0.3313E+01
      1.785  0.6948E+01  0.3670E+01
      1.837  0.6334E+01  0.3996E+01
      1.888  0.5729E+01  0.4290E+01
      1.939  0.6947E+01  0.4647E+01
      1.991  0.8384E+01  0.5078E+01
      2.042  0.9134E+01  0.5547E+01
      2.094  0.9230E+01  0.6022E+01
      2.145  0.9552E+01  0.6513E+01
      2.196  0.1115E+02  0.7085E+01
      2.248  0.1075E+02  0.7638E+01
      2.299  0.6529E+01  0.7973E+01
      2.350  0.3872E+01  0.8172E+01
      2.402  0.6944E+01  0.8529E+01
      2.453  0.1363E+02  0.9230E+01
      2.505  0.1865E+02  0.1019E+02
      2.556  0.2089E+02  0.1126E+02
      2.607  0.2578E+02  0.1259E+02
      2.659  0.3368E+02  0.1432E+02
      2.710  0.4099E+02  0.1642E+02
      2.762  0.5236E+02  0.1911E+02
      2.813  0.7029E+02  0.2273E+02
      2.864  0.8632E+02  0.2716E+02
      2.916  0.9937E+02  0.3227E+02
      2.967  0.1145E+03  0.3815E+02
      3.018  0.1282E+03  0.4474E+02
      3.070  0.1355E+03  0.5170E+02
      3.121  0.1339E+03  0.5859E+02
      3.173  0.1267E+03  0.6509E+02
      3.224  0.1224E+03  0.7138E+02
      3.275  0.1346E+03  0.7830E+02
      3.327  0.1610E+03  0.8657E+02
      3.378  0.1726E+03  0.9544E+02
      3.430  0.1633E+03  0.1038E+03
      3.481  0.1591E+03  0.1120E+03
      3.532  0.1666E+03  0.1206E+03
      3.584  0.1626E+03  0.1289E+03
      3.635  0.1445E+03  0.1364E+03
      3.686  0.1356E+03  0.1433E+03
      3.738  0.1322E+03  0.1501E+03
      3.789  0.1210E+03  0.1563E+03
      3.841  0.1115E+03  0.1621E+03
      3.892  0.1079E+03  0.1676E+03
      3.943  0.1056E+03  0.1730E+03
      3.995  0.1063E+03  0.1785E+03
      4.046  0.1063E+03  0.1840E+03
      4.098  0.1026E+03  0.1892E+03
      4.149  0.9818E+02  0.1943E+03
      4.200  0.9634E+02  0.1992E+03
      4.252  0.1098E+03  0.2049E+03
      4.303  0.1354E+03  0.2118E+03
      4.354  0.1480E+03  0.2194E+03
      4.406  0.1449E+03  0.2269E+03
      4.457  0.1399E+03  0.2341E+03
      4.509  0.1366E+03  0.2411E+03
      4.560  0.1338E+03  0.2480E+03
      4.611  0.1286E+03  0.2546E+03
      4.663  0.1163E+03  0.2605E+03
      4.714  0.1064E+03  0.2660E+03
      4.766  0.1084E+03  0.2716E+03
      4.817  0.1186E+03  0.2777E+03
      4.868  0.1310E+03  0.2844E+03
      4.920  0.1390E+03  0.2916E+03
      4.971  0.1415E+03  0.2988E+03
      5.023  0.1373E+03  0.3059E+03
      5.074  0.1239E+03  0.3123E+03
      5.125  0.1201E+03  0.3184E+03
      5.177  0.1445E+03  0.3258E+03
      5.228  0.1633E+03  0.3342E+03
      5.279  0.1428E+03  0.3416E+03
      5.331  0.1107E+03  0.3473E+03
      5.382  0.9653E+02  0.3522E+03
      5.434  0.8838E+02  0.3568E+03
      5.485  0.7390E+02  0.3606E+03
      5.536  0.5578E+02  0.3634E+03
      5.588  0.4299E+02  0.3656E+03
      5.639  0.5409E+02  0.3684E+03
      5.691  0.9101E+02  0.3731E+03
      5.742  0.1266E+03  0.3796E+03
      5.793  0.1482E+03  0.3872E+03
      5.845  0.1679E+03  0.3958E+03
      5.896  0.1821E+03  0.4052E+03
      5.947  0.1855E+03  0.4147E+03
      5.999  0.1910E+03  0.4245E+03
      6.050  0.1922E+03  0.4344E+03
      6.102  0.1791E+03  0.4436E+03
      6.153  0.1564E+03  0.4517E+03
      6.204  0.1342E+03  0.4586E+03
      6.256  0.1238E+03  0.4649E+03
      6.307  0.1215E+03  0.4712E+03
      6.359  0.1201E+03  0.4773E+03
      6.410  0.1259E+03  0.4838E+03
      6.461  0.1432E+03  0.4912E+03
      6.513  0.1642E+03  0.4996E+03
      6.564  0.1864E+03  0.5092E+03
      6.615  0.2030E+03  0.5196E+03
      6.667  0.1933E+03  0.5295E+03
      6.718  0.1632E+03  0.5379E+03
      6.770  0.1417E+03  0.5452E+03
      6.821  0.1354E+03  0.5522E+03
      6.872  0.1316E+03  0.5589E+03
      6.924  0.1264E+03  0.5654E+03
      6.975  0.1299E+03  0.5721E+03
      7.027  0.1404E+03  0.5793E+03
      7.078  0.1495E+03  0.5870E+03
      7.129  0.1592E+03  0.5952E+03
      7.181  0.1675E+03  0.6038E+03
      7.232  0.1695E+03  0.6125E+03
      7.284  0.1674E+03  0.6211E+03
      7.335  0.1637E+03  0.6295E+03
      7.386  0.1554E+03  0.6375E+03
      7.438  0.1339E+03  0.6444E+03
      7.489  0.1134E+03  0.6502E+03
      7.540  0.1195E+03  0.6563E+03
      7.592  0.1334E+03  0.6632E+03
      7.643  0.1237E+03  0.6696E+03
      7.695  0.1025E+03  0.6748E+03
      7.746  0.9583E+02  0.6797E+03
      7.797  0.1035E+03  0.6851E+03
      7.849  0.1077E+03  0.6906E+03
      7.900  0.1012E+03  0.6958E+03
      7.952  0.8919E+02  0.7004E+03
      8.003  0.7669E+02  0.7043E+03
      8.054  0.7210E+02  0.7080E+03
      8.106  0.7475E+02  0.7119E+03
      8.157  0.7689E+02  0.7158E+03
      8.208  0.8285E+02  0.7201E+03
      8.260  0.9790E+02  0.7251E+03
      8.311  0.1161E+03  0.7311E+03
      8.363  0.1231E+03  0.7374E+03
      8.414  0.1112E+03  0.7431E+03
      8.465  0.8691E+02  0.7476E+03
      8.517  0.6936E+02  0.7511E+03
      8.568  0.6941E+02  0.7547E+03
      8.620  0.6769E+02  0.7582E+03
      8.671  0.5162E+02  0.7608E+03
      8.722  0.4340E+02  0.7631E+03
      8.774  0.6332E+02  0.7663E+03
      8.825  0.1007E+03  0.7715E+03
      8.876  0.1261E+03  0.7780E+03
      8.928  0.1210E+03  0.7842E+03
      8.979  0.9437E+02  0.7890E+03
      9.031  0.7103E+02  0.7927E+03
      9.082  0.6209E+02  0.7959E+03
      9.133  0.6526E+02  0.7992E+03
      9.185  0.7534E+02  0.8031E+03
      9.236  0.8098E+02  0.8073E+03
      9.288  0.7998E+02  0.8114E+03
      9.339  0.8177E+02  0.8156E+03
      9.390  0.9538E+02  0.8205E+03
      9.442  0.1178E+03  0.8265E+03
      9.493  0.1290E+03  0.8332E+03
      9.544  0.1268E+03  0.8397E+03
      9.596  0.1292E+03  0.8463E+03
      9.647  0.1371E+03  0.8534E+03
      9.699  0.1356E+03  0.8603E+03
      9.750  0.1177E+03  0.8664E+03
      9.801  0.1056E+03  0.8718E+03
      9.853  0.1283E+03  0.8784E+03
      9.904  0.1706E+03  0.8872E+03
      9.956  0.1877E+03  0.8968E+03
     10.007  0.1720E+03  0.9057E+03
     10.058  0.1600E+03  0.9139E+03
     10.110  0.1723E+03  0.9227E+03
     10.161  0.1941E+03  0.9327E+03
     10.213  0.2108E+03  0.9435E+03
     10.264  0.2175E+03  0.9547E+03
     10.315  0.2133E+03  0.9657E+03
     10.367  0.2004E+03  0.9760E+03
     10.418  0.1731E+03  0.9849E+03
     10.469  0.1388E+03  0.9920E+03
     10.521  0.1077E+03  0.9975E+03
     10.572  0.7432E+02  0.1001E+04
     10.624  0.4300E+02  0.1004E+04
     10.675  0.2380E+02  0.1005E+04
     10.726  0.1546E+02  0.1006E+04
     10.778  0.1114E+02  0.1006E+04
     10.829  0.8125E+01  0.1007E+04
     10.881  0.7952E+01  0.1007E+04
     10.932  0.1003E+02  0.1008E+04
     10.983  0.1031E+02  0.1008E+04
     11.035  0.8064E+01  0.1008E+04
     11.086  0.5966E+01  0.1009E+04
     11.137  0.4917E+01  0.1009E+04
     11.189  0.4539E+01  0.1009E+04
     11.240  0.4614E+01  0.1009E+04
     11.292  0.4594E+01  0.1010E+04
     11.343  0.4346E+01  0.1010E+04
     11.394  0.5173E+01  0.1010E+04
     11.446  0.8202E+01  0.1011E+04
     11.497  0.1095E+02  0.1011E+04
     11.549  0.9503E+01  0.1012E+04
     11.600  0.5535E+01  0.1012E+04
     11.651  0.3905E+01  0.1012E+04
     11.703  0.4934E+01  0.1012E+04
     11.754  0.5612E+01  0.1013E+04
     11.805  0.5188E+01  0.1013E+04
     11.857  0.5008E+01  0.1013E+04
     11.908  0.5157E+01  0.1013E+04
     11.960  0.5181E+01  0.1014E+04
     12.011  0.5564E+01  0.1014E+04
     12.062  0.5942E+01  0.1014E+04
     12.114  0.5762E+01  0.1015E+04
     12.165  0.5800E+01  0.1015E+04
     12.217  0.6675E+01  0.1015E+04
     12.268  0.8104E+01  0.1016E+04
     12.319  0.9235E+01  0.1016E+04
     12.371  0.9786E+01  0.1017E+04
     12.422  0.1051E+02  0.1017E+04
     12.473  0.1132E+02  0.1018E+04
     12.525  0.1149E+02  0.1018E+04
     12.576  0.1028E+02  0.1019E+04
     12.628  0.7464E+01  0.1019E+04
     12.679  0.5119E+01  0.1020E+04
     12.730  0.5416E+01  0.1020E+04
     12.782  0.6622E+01  0.1020E+04
     12.833  0.6025E+01  0.1020E+04
     12.885  0.4671E+01  0.1021E+04
     12.936  0.3954E+01  0.1021E+04
     12.987  0.3227E+01  0.1021E+04
     13.039  0.3100E+01  0.1021E+04
     13.090  0.4256E+01  0.1021E+04
     13.142  0.5291E+01  0.1022E+04
     13.193  0.5197E+01  0.1022E+04
     13.244  0.4861E+01  0.1022E+04
     13.296  0.4673E+01  0.1023E+04
     13.347  0.3682E+01  0.1023E+04
     13.398  0.2184E+01  0.1023E+04
     13.450  0.1437E+01  0.1023E+04
     13.501  0.1428E+01  0.1023E+04
     13.553  0.1730E+01  0.1023E+04
     13.604  0.2490E+01  0.1023E+04
     13.655  0.3523E+01  0.1023E+04
     13.707  0.3812E+01  0.1024E+04
     13.758  0.2577E+01  0.1024E+04
     13.810  0.8403E+00  0.1024E+04
     13.861  0.3743E+00  0.1024E+04
     13.912  0.1184E+01  0.1024E+04
     13.964  0.1619E+01  0.1024E+04
     14.015  0.9528E+00  0.1024E+04
     14.066  0.2149E+00  0.1024E+04
     14.118  0.6313E-01  0.1024E+04
     14.169  0.1372E+00  0.1024E+04
     14.221  0.1992E+00  0.1024E+04
     14.272  0.2566E+00  0.1024E+04
     14.323  0.2317E+00  0.1024E+04
     14.375  0.1130E+00  0.1024E+04
     14.426  0.1452E-01  0.1024E+04
     14.478 -0.1082E-01  0.1024E+04
     14.529 -0.5334E-02  0.1024E+04
     14.580 -0.1019E-02  0.1024E+04
     14.632 -0.9942E-04  0.1024E+04
     14.683 -0.5319E-05  0.1024E+04
     14.734 -0.1606E-06  0.1024E+04
     14.786 -0.2777E-08  0.1024E+04
     14.837 -0.2774E-10  0.1024E+04
     14.889 -0.1608E-12  0.1024E+04
     14.940 -0.5185E-15  0.1024E+04
     14.991  0.0000E+00  0.1024E+04
     15.043  0.0000E+00  0.1024E+04
     15.094  0.0000E+00  0.1024E+04
     15.146  0.0000E+00  0.1024E+04
     15.197  0.0000E+00  0.1024E+04
     15.248  0.0000E+00  0.1024E+04
     15.300  0.0000E+00  0.1024E+04
