<?xml version="1.0" encoding="ISO-8859-1"?>
<modeling>
 <generator>
  <i name="program" type="string">vasp </i>
  <i name="version" type="string">5.4.1  </i>
  <i name="subversion" type="string">24Jun15 (build Dec 12 2017 15:24:27) complex                          parallel </i>
  <i name="platform" type="string">IFC91_ompi </i>
  <i name="date" type="string">2020 04 03 </i>
  <i name="time" type="string">20:05:25 </i>
 </generator>
 <incar>
  <i type="string" name="SYSTEM"> Ir_Ru</i>
  <i type="int" name="ISTART">     0</i>
  <i type="string" name="PREC">accurate</i>
  <i type="string" name="ALGO"> Very_Fast</i>
  <i type="int" name="ICHARG">     2</i>
  <i type="int" name="NELMIN">     5</i>
  <i type="int" name="IBRION">    -1</i>
  <i name="EDIFFG">      0.00001000</i>
  <i type="int" name="ISIF">     2</i>
  <i type="string" name="LREAL"> AUTO</i>
  <i type="int" name="ISMEAR">     1</i>
  <i name="SIGMA">      0.10000000</i>
  <v type="int" name="KPOINT_BSE">    -1     0     0     0</v>
 </incar>
 <kpoints>
  <generation param="Gamma">
   <v type="int" name="divisions">       5        5        4 </v>
   <v name="usershift">      0.00000000       0.00000000       0.00000000 </v>
   <v name="genvec1">      0.20000000      -0.00000000       0.00000000 </v>
   <v name="genvec2">      0.00000000       0.20000000       0.00000000 </v>
   <v name="genvec3">      0.00000000       0.00000000       0.25000000 </v>
   <v name="shift">      0.00000000       0.00000000       0.00000000 </v>
  </generation>
  <varray name="kpointlist" >
   <v>       0.00000000       0.00000000       0.00000000 </v>
   <v>       0.20000000       0.00000000       0.00000000 </v>
   <v>       0.40000000       0.00000000       0.00000000 </v>
   <v>       0.20000000       0.20000000       0.00000000 </v>
   <v>       0.40000000       0.20000000       0.00000000 </v>
   <v>      -0.40000000       0.20000000       0.00000000 </v>
   <v>      -0.20000000       0.20000000       0.00000000 </v>
   <v>       0.40000000       0.40000000       0.00000000 </v>
   <v>      -0.40000000       0.40000000       0.00000000 </v>
   <v>       0.00000000       0.00000000       0.25000000 </v>
   <v>       0.20000000       0.00000000       0.25000000 </v>
   <v>       0.40000000       0.00000000       0.25000000 </v>
   <v>      -0.40000000      -0.00000000       0.25000000 </v>
   <v>      -0.20000000      -0.00000000       0.25000000 </v>
   <v>       0.20000000       0.20000000       0.25000000 </v>
   <v>       0.40000000       0.20000000       0.25000000 </v>
   <v>      -0.40000000       0.20000000       0.25000000 </v>
   <v>      -0.20000000       0.20000000       0.25000000 </v>
   <v>       0.20000000       0.40000000       0.25000000 </v>
   <v>       0.40000000       0.40000000       0.25000000 </v>
   <v>      -0.40000000       0.40000000       0.25000000 </v>
   <v>       0.20000000      -0.40000000       0.25000000 </v>
   <v>       0.40000000      -0.40000000       0.25000000 </v>
   <v>       0.20000000      -0.20000000       0.25000000 </v>
   <v>       0.00000000       0.00000000       0.50000000 </v>
   <v>       0.20000000       0.00000000       0.50000000 </v>
   <v>       0.40000000       0.00000000       0.50000000 </v>
   <v>       0.20000000       0.20000000       0.50000000 </v>
   <v>       0.40000000       0.20000000       0.50000000 </v>
   <v>      -0.40000000       0.20000000       0.50000000 </v>
   <v>      -0.20000000       0.20000000       0.50000000 </v>
   <v>       0.40000000       0.40000000       0.50000000 </v>
   <v>      -0.40000000       0.40000000       0.50000000 </v>
  </varray>
  <varray name="weights" >
   <v>       0.01000000 </v>
   <v>       0.04000000 </v>
   <v>       0.04000000 </v>
   <v>       0.02000000 </v>
   <v>       0.04000000 </v>
   <v>       0.04000000 </v>
   <v>       0.02000000 </v>
   <v>       0.02000000 </v>
   <v>       0.02000000 </v>
   <v>       0.02000000 </v>
   <v>       0.04000000 </v>
   <v>       0.04000000 </v>
   <v>       0.04000000 </v>
   <v>       0.04000000 </v>
   <v>       0.04000000 </v>
   <v>       0.04000000 </v>
   <v>       0.04000000 </v>
   <v>       0.02000000 </v>
   <v>       0.04000000 </v>
   <v>       0.04000000 </v>
   <v>       0.02000000 </v>
   <v>       0.04000000 </v>
   <v>       0.02000000 </v>
   <v>       0.02000000 </v>
   <v>       0.01000000 </v>
   <v>       0.04000000 </v>
   <v>       0.04000000 </v>
   <v>       0.02000000 </v>
   <v>       0.04000000 </v>
   <v>       0.04000000 </v>
   <v>       0.02000000 </v>
   <v>       0.02000000 </v>
   <v>       0.02000000 </v>
  </varray>
 </kpoints>
 <parameters>
  <separator name="general" >
   <i type="string" name="SYSTEM">Ir_Ru</i>
   <i type="logical" name="LCOMPAT"> F  </i>
  </separator>
  <separator name="electronic" >
   <i type="string" name="PREC">accura</i>
   <i name="ENMAX">    213.27600000</i>
   <i name="ENAUG">    333.49400000</i>
   <i name="EDIFF">      0.00010000</i>
   <i type="int" name="IALGO">    48</i>
   <i type="int" name="IWAVPR">    10</i>
   <i type="int" name="NBANDS">   512</i>
   <i name="NELECT">    768.00000000</i>
   <i type="int" name="TURBO">     0</i>
   <i type="int" name="IRESTART">     0</i>
   <i type="int" name="NREBOOT">     0</i>
   <i type="int" name="NMIN">     0</i>
   <i name="EREF">      0.00000000</i>
   <separator name="electronic smearing" >
    <i type="int" name="ISMEAR">     1</i>
    <i name="SIGMA">      0.10000000</i>
    <i name="KSPACING">      0.50000000</i>
    <i type="logical" name="KGAMMA"> T  </i>
   </separator>
   <separator name="electronic projectors" >
    <i type="logical" name="LREAL"> T  </i>
    <v name="ROPT">     -0.00025000</v>
    <i type="int" name="LMAXPAW">  -100</i>
    <i type="int" name="LMAXMIX">     2</i>
    <i type="logical" name="NLSPLINE"> F  </i>
   </separator>
   <separator name="electronic startup" >
    <i type="int" name="ISTART">     0</i>
    <i type="int" name="ICHARG">     2</i>
    <i type="int" name="INIWAV">     1</i>
   </separator>
   <separator name="electronic spin" >
    <i type="int" name="ISPIN">     1</i>
    <i type="logical" name="LNONCOLLINEAR"> F  </i>
    <v name="MAGMOM">      1.00000000      1.00000000      1.00000000      1.00000000      1.00000000      1.00000000      1.00000000      1.00000000      1.00000000      1.00000000      1.00000000      1.00000000      1.00000000      1.00000000      1.00000000      1.00000000      1.00000000      1.00000000      1.00000000      1.00000000
      1.00000000      1.00000000      1.00000000      1.00000000      1.00000000      1.00000000      1.00000000      1.00000000      1.00000000      1.00000000      1.00000000      1.00000000      1.00000000      1.00000000      1.00000000      1.00000000      1.00000000      1.00000000      1.00000000      1.00000000
      1.00000000      1.00000000      1.00000000      1.00000000      1.00000000      1.00000000      1.00000000      1.00000000      1.00000000      1.00000000      1.00000000      1.00000000      1.00000000      1.00000000      1.00000000      1.00000000      1.00000000      1.00000000      1.00000000      1.00000000
      1.00000000      1.00000000      1.00000000      1.00000000      1.00000000      1.00000000      1.00000000      1.00000000      1.00000000      1.00000000      1.00000000      1.00000000      1.00000000      1.00000000      1.00000000      1.00000000      1.00000000      1.00000000      1.00000000      1.00000000
      1.00000000      1.00000000      1.00000000      1.00000000      1.00000000      1.00000000      1.00000000      1.00000000      1.00000000      1.00000000      1.00000000      1.00000000      1.00000000      1.00000000      1.00000000      1.00000000</v>
    <i name="NUPDOWN">     -1.00000000</i>
    <i type="logical" name="LSORBIT"> F  </i>
    <v name="SAXIS">      0.00000000      0.00000000      1.00000000</v>
    <i type="logical" name="LSPIRAL"> F  </i>
    <v name="QSPIRAL">      0.00000000      0.00000000      0.00000000</v>
    <i type="logical" name="LZEROZ"> F  </i>
   </separator>
   <separator name="electronic exchange-correlation" >
    <i type="logical" name="LASPH"> F  </i>
    <i type="logical" name="LMETAGGA"> F  </i>
   </separator>
   <separator name="electronic convergence" >
    <i type="int" name="NELM">    60</i>
    <i type="int" name="NELMDL">   -12</i>
    <i type="int" name="NELMIN">     5</i>
    <i name="ENINI">    213.27600000</i>
    <separator name="electronic convergence detail" >
     <i type="logical" name="LDIAG"> T  </i>
     <i type="logical" name="LSUBROT"> F  </i>
     <i name="WEIMIN">      0.00000000</i>
     <i name="EBREAK">      0.00000000</i>
     <i name="DEPER">      0.30000000</i>
     <i type="int" name="NRMM">     4</i>
     <i name="TIME">      0.40000000</i>
    </separator>
   </separator>
   <separator name="electronic mixer" >
    <i name="AMIX">      0.40000000</i>
    <i name="BMIX">      1.00000000</i>
    <i name="AMIN">      0.10000000</i>
    <i name="AMIX_MAG">      1.60000000</i>
    <i name="BMIX_MAG">      1.00000000</i>
    <separator name="electronic mixer details" >
     <i type="int" name="IMIX">     4</i>
     <i type="logical" name="MIXFIRST"> F  </i>
     <i type="int" name="MAXMIX">   -45</i>
     <i name="WC">    100.00000000</i>
     <i type="int" name="INIMIX">     1</i>
     <i type="int" name="MIXPRE">     1</i>
     <i type="int" name="MREMOVE">     5</i>
    </separator>
   </separator>
   <separator name="electronic dipolcorrection" >
    <i type="logical" name="LDIPOL"> F  </i>
    <i type="logical" name="LMONO"> F  </i>
    <i type="int" name="IDIPOL">     0</i>
    <i name="EPSILON">      1.00000000</i>
    <v name="DIPOL">   -100.00000000   -100.00000000   -100.00000000</v>
    <i name="EFIELD">      0.00000000</i>
   </separator>
  </separator>
  <separator name="grids" >
   <i type="int" name="NGX">    54</i>
   <i type="int" name="NGY">    54</i>
   <i type="int" name="NGZ">    64</i>
   <i type="int" name="NGXF">   108</i>
   <i type="int" name="NGYF">   108</i>
   <i type="int" name="NGZF">   128</i>
   <i type="logical" name="ADDGRID"> F  </i>
  </separator>
  <separator name="ionic" >
   <i type="int" name="NSW">     0</i>
   <i type="int" name="IBRION">    -1</i>
   <i type="int" name="ISIF">     2</i>
   <i name="PSTRESS">      0.00000000</i>
   <i name="EDIFFG">      0.00001000</i>
   <i type="int" name="NFREE">     0</i>
   <i name="POTIM">      0.50000000</i>
   <i name="SMASS">     -3.00000000</i>
   <i name="SCALEE">      1.00000000</i>
  </separator>
  <separator name="ionic md" >
   <i name="TEBEG">      0.00010000</i>
   <i name="TEEND">      0.00010000</i>
   <i type="int" name="NBLOCK">     1</i>
   <i type="int" name="KBLOCK">     1</i>
   <i type="int" name="NPACO">   256</i>
   <i name="APACO">     16.00000000</i>
  </separator>
  <separator name="symmetry" >
   <i type="int" name="ISYM">     2</i>
   <i name="SYMPREC">      0.00001000</i>
  </separator>
  <separator name="dos" >
   <i type="logical" name="LORBIT"> F  </i>
   <v name="RWIGS">     -1.00000000</v>
   <i type="int" name="NEDOS">   301</i>
   <i name="EMIN">     10.00000000</i>
   <i name="EMAX">    -10.00000000</i>
   <i name="EFERMI">      0.00000000</i>
  </separator>
  <separator name="writing" >
   <i type="int" name="NWRITE">     2</i>
   <i type="logical" name="LWAVE"> T  </i>
   <i type="logical" name="LCHARG"> T  </i>
   <i type="logical" name="LPARD"> F  </i>
   <i type="logical" name="LVTOT"> F  </i>
   <i type="logical" name="LVHAR"> F  </i>
   <i type="logical" name="LELF"> F  </i>
   <i type="logical" name="LOPTICS"> F  </i>
   <v name="STM">      0.00000000      0.00000000      0.00000000      0.00000000      0.00000000      0.00000000      0.00000000</v>
  </separator>
  <separator name="performance" >
   <i type="int" name="NPAR">    64</i>
   <i type="int" name="NSIM">     4</i>
   <i type="int" name="NBLK">    -1</i>
   <i type="logical" name="LPLANE"> T  </i>
   <i type="logical" name="LSCALAPACK"> T  </i>
   <i type="logical" name="LSCAAWARE"> T  </i>
   <i type="logical" name="LSCALU"> F  </i>
   <i type="logical" name="LASYNC"> F  </i>
   <i type="logical" name="LORBITALREAL"> F  </i>
  </separator>
  <separator name="miscellaneous" >
   <i type="int" name="IDIOT">     3</i>
   <i type="logical" name="LMUSIC"> F  </i>
   <v name="POMASS">    101.07000000</v>
   <v name="DARWINR">      0.00000000</v>
   <v name="DARWINV">      1.00000000</v>
   <i type="logical" name="LCORR"> T  </i>
  </separator>
  <i type="logical" name="GGA_COMPAT"> T  </i>
  <i type="logical" name="LBERRY"> F  </i>
  <i type="int" name="ICORELEVEL">     0</i>
  <i type="logical" name="LDAU"> F  </i>
  <i type="int" name="I_CONSTRAINED_M">     0</i>
  <separator name="electronic exchange-correlation" >
   <i type="string" name="GGA">--</i>
   <i type="int" name="VOSKOWN">     0</i>
   <i type="logical" name="LHFCALC"> F  </i>
   <i type="string" name="PRECFOCK"></i>
   <i type="logical" name="LSYMGRAD"> F  </i>
   <i type="logical" name="LHFONE"> F  </i>
   <i type="logical" name="LRHFCALC"> F  </i>
   <i type="logical" name="LTHOMAS"> F  </i>
   <i type="logical" name="LMODELHF"> F  </i>
   <i name="ENCUT4O">     -1.00000000</i>
   <i type="int" name="EXXOEP">     0</i>
   <i type="int" name="FOURORBIT">     0</i>
   <i name="AEXX">      0.00000000</i>
   <i name="HFALPHA">      0.00000000</i>
   <i name="MCALPHA">      0.00000000</i>
   <i name="ALDAX">      1.00000000</i>
   <i name="AGGAX">      1.00000000</i>
   <i name="ALDAC">      1.00000000</i>
   <i name="AGGAC">      1.00000000</i>
   <i type="int" name="NKREDX">     1</i>
   <i type="int" name="NKREDY">     1</i>
   <i type="int" name="NKREDZ">     1</i>
   <i type="logical" name="SHIFTRED"> F  </i>
   <i type="logical" name="ODDONLY"> F  </i>
   <i type="logical" name="EVENONLY"> F  </i>
   <i type="int" name="LMAXFOCK">     0</i>
   <i type="int" name="NMAXFOCKAE">     0</i>
   <i type="logical" name="LFOCKAEDFT"> F  </i>
   <i name="HFSCREEN">      0.00000000</i>
   <i name="HFSCREENC">      0.00000000</i>
   <i type="int" name="NBANDSGWLOW">     0</i>
  </separator>
  <separator name="vdW DFT" >
   <i type="logical" name="LUSE_VDW"> F  </i>
   <i name="Zab_VDW">     -0.84910000</i>
   <i name="PARAM1">      0.12340000</i>
   <i name="PARAM2">      1.00000000</i>
   <i name="PARAM3">      0.00000000</i>
  </separator>
  <separator name="model GW" >
   <i type="int" name="MODEL_GW">     0</i>
   <i name="MODEL_EPS0">      8.27010106</i>
   <i name="MODEL_ALPHA">      1.00000000</i>
  </separator>
  <separator name="linear response parameters" >
   <i type="logical" name="LEPSILON"> F  </i>
   <i type="logical" name="LRPA"> F  </i>
   <i type="logical" name="LNABLA"> F  </i>
   <i type="logical" name="LVEL"> F  </i>
   <i type="int" name="KINTER">     0</i>
   <i name="CSHIFT">      0.10000000</i>
   <i name="OMEGAMAX">     -1.00000000</i>
   <i name="DEG_THRESHOLD">      0.00200000</i>
  </separator>
  <separator name="orbital magnetization" >
   <i type="logical" name="NUCIND"> F  </i>
   <v name="MAGPOS">      0.00000000      0.00000000      0.00000000</v>
   <i type="logical" name="LNICSALL"> T  </i>
   <i type="logical" name="ORBITALMAG"> F  </i>
   <i type="logical" name="LMAGBLOCH"> F  </i>
   <i type="logical" name="LCHIMAG"> F  </i>
   <i type="logical" name="LGAUGE"> T  </i>
   <i type="int" name="MAGATOM">     0</i>
   <v name="MAGDIPOL">      0.00000000      0.00000000      0.00000000</v>
   <v name="AVECCONST">      0.00000000      0.00000000      0.00000000</v>
  </separator>
  <separator name="response functions" >
   <i type="logical" name="LADDER"> F  </i>
   <i type="logical" name="LFXC"> F  </i>
   <i type="logical" name="LHARTREE"> T  </i>
   <i type="int" name="IBSE">     0</i>
   <v type="int" name="KPOINT">    -1     0     0     0</v>
   <i type="logical" name="LTCTE"> F  </i>
   <i type="logical" name="LTETE"> F  </i>
   <i type="logical" name="LTRIPLET"> F  </i>
   <i type="logical" name="LFXCEPS"> F  </i>
   <i type="logical" name="LFXHEG"> F  </i>
   <i type="int" name="NATURALO">     0</i>
   <i type="logical" name="L2ORDER"> F  </i>
   <i type="logical" name="LUSEW"> F  </i>
   <i name="ENCUTGW">     -2.00000000</i>
   <i name="ENCUTGWSOFT">     -2.00000000</i>
   <i name="ENCUTLF">     -1.00000000</i>
   <i type="int" name="LMAXMP2">    -1</i>
   <i name="SCISSOR">      0.00000000</i>
   <i type="int" name="NOMEGA">     0</i>
   <i type="int" name="NOMEGAR">     0</i>
   <i type="int" name="NBANDSGW">    -1</i>
   <i type="int" name="NBANDSO">    -1</i>
   <i type="int" name="NBANDSV">    -1</i>
   <i type="int" name="NELM">     1</i>
   <i type="int" name="NELMHF">     1</i>
   <i type="int" name="DIM">     3</i>
   <i type="int" name="ANTIRES">     0</i>
   <i name="OMEGAMAX">    -30.00000000</i>
   <i name="OMEGAMIN">    -30.00000000</i>
   <i name="OMEGATL">   -200.00000000</i>
   <i type="int" name="OMEGAGRID">     0</i>
   <i name="CSHIFT">     -0.10000000</i>
   <i type="logical" name="SELFENERGY"> F  </i>
   <i type="logical" name="LSPECTRAL"> F  </i>
   <i type="logical" name="LSPECTRALGW"> F  </i>
   <i type="logical" name="LSINGLES"> F  </i>
   <i type="logical" name="LFERMIGW"> F  </i>
   <i type="logical" name="ODDONLYGW"> F  </i>
   <i type="logical" name="EVENONLYGW"> F  </i>
   <i type="int" name="NKREDLFX">     1</i>
   <i type="int" name="NKREDLFY">     1</i>
   <i type="int" name="NKREDLFZ">     1</i>
   <i type="int" name="MAXMEM">  1800</i>
   <i type="int" name="TELESCOPE">     0</i>
   <i type="int" name="TAUPAR">     1</i>
   <i type="int" name="OMEGAPAR">    -1</i>
   <i name="LAMBDA">      1.00000000</i>
  </separator>
  <separator name="External order field" >
   <i name="OFIELD_KAPPA">      0.00000000</i>
   <v name="OFIELD_K">      0.00000000      0.00000000      0.00000000</v>
   <i name="OFIELD_Q6_NEAR">      0.00000000</i>
   <i name="OFIELD_Q6_FAR">      0.00000000</i>
   <i name="OFIELD_A">      0.00000000</i>
  </separator>
 </parameters>
 <atominfo>
  <atoms>      96 </atoms>
  <types>       1 </types>
  <array name="atoms" >
   <dimension dim="1">ion</dimension>
   <field type="string">element</field>
   <field type="int">atomtype</field>
   <set>
    <rc><c>Ru</c><c>   1</c></rc>
    <rc><c>Ru</c><c>   1</c></rc>
    <rc><c>Ru</c><c>   1</c></rc>
    <rc><c>Ru</c><c>   1</c></rc>
    <rc><c>Ru</c><c>   1</c></rc>
    <rc><c>Ru</c><c>   1</c></rc>
    <rc><c>Ru</c><c>   1</c></rc>
    <rc><c>Ru</c><c>   1</c></rc>
    <rc><c>Ru</c><c>   1</c></rc>
    <rc><c>Ru</c><c>   1</c></rc>
    <rc><c>Ru</c><c>   1</c></rc>
    <rc><c>Ru</c><c>   1</c></rc>
    <rc><c>Ru</c><c>   1</c></rc>
    <rc><c>Ru</c><c>   1</c></rc>
    <rc><c>Ru</c><c>   1</c></rc>
    <rc><c>Ru</c><c>   1</c></rc>
    <rc><c>Ru</c><c>   1</c></rc>
    <rc><c>Ru</c><c>   1</c></rc>
    <rc><c>Ru</c><c>   1</c></rc>
    <rc><c>Ru</c><c>   1</c></rc>
    <rc><c>Ru</c><c>   1</c></rc>
    <rc><c>Ru</c><c>   1</c></rc>
    <rc><c>Ru</c><c>   1</c></rc>
    <rc><c>Ru</c><c>   1</c></rc>
    <rc><c>Ru</c><c>   1</c></rc>
    <rc><c>Ru</c><c>   1</c></rc>
    <rc><c>Ru</c><c>   1</c></rc>
    <rc><c>Ru</c><c>   1</c></rc>
    <rc><c>Ru</c><c>   1</c></rc>
    <rc><c>Ru</c><c>   1</c></rc>
    <rc><c>Ru</c><c>   1</c></rc>
    <rc><c>Ru</c><c>   1</c></rc>
    <rc><c>Ru</c><c>   1</c></rc>
    <rc><c>Ru</c><c>   1</c></rc>
    <rc><c>Ru</c><c>   1</c></rc>
    <rc><c>Ru</c><c>   1</c></rc>
    <rc><c>Ru</c><c>   1</c></rc>
    <rc><c>Ru</c><c>   1</c></rc>
    <rc><c>Ru</c><c>   1</c></rc>
    <rc><c>Ru</c><c>   1</c></rc>
    <rc><c>Ru</c><c>   1</c></rc>
    <rc><c>Ru</c><c>   1</c></rc>
    <rc><c>Ru</c><c>   1</c></rc>
    <rc><c>Ru</c><c>   1</c></rc>
    <rc><c>Ru</c><c>   1</c></rc>
    <rc><c>Ru</c><c>   1</c></rc>
    <rc><c>Ru</c><c>   1</c></rc>
    <rc><c>Ru</c><c>   1</c></rc>
    <rc><c>Ru</c><c>   1</c></rc>
    <rc><c>Ru</c><c>   1</c></rc>
    <rc><c>Ru</c><c>   1</c></rc>
    <rc><c>Ru</c><c>   1</c></rc>
    <rc><c>Ru</c><c>   1</c></rc>
    <rc><c>Ru</c><c>   1</c></rc>
    <rc><c>Ru</c><c>   1</c></rc>
    <rc><c>Ru</c><c>   1</c></rc>
    <rc><c>Ru</c><c>   1</c></rc>
    <rc><c>Ru</c><c>   1</c></rc>
    <rc><c>Ru</c><c>   1</c></rc>
    <rc><c>Ru</c><c>   1</c></rc>
    <rc><c>Ru</c><c>   1</c></rc>
    <rc><c>Ru</c><c>   1</c></rc>
    <rc><c>Ru</c><c>   1</c></rc>
    <rc><c>Ru</c><c>   1</c></rc>
    <rc><c>Ru</c><c>   1</c></rc>
    <rc><c>Ru</c><c>   1</c></rc>
    <rc><c>Ru</c><c>   1</c></rc>
    <rc><c>Ru</c><c>   1</c></rc>
    <rc><c>Ru</c><c>   1</c></rc>
    <rc><c>Ru</c><c>   1</c></rc>
    <rc><c>Ru</c><c>   1</c></rc>
    <rc><c>Ru</c><c>   1</c></rc>
    <rc><c>Ru</c><c>   1</c></rc>
    <rc><c>Ru</c><c>   1</c></rc>
    <rc><c>Ru</c><c>   1</c></rc>
    <rc><c>Ru</c><c>   1</c></rc>
    <rc><c>Ru</c><c>   1</c></rc>
    <rc><c>Ru</c><c>   1</c></rc>
    <rc><c>Ru</c><c>   1</c></rc>
    <rc><c>Ru</c><c>   1</c></rc>
    <rc><c>Ru</c><c>   1</c></rc>
    <rc><c>Ru</c><c>   1</c></rc>
    <rc><c>Ru</c><c>   1</c></rc>
    <rc><c>Ru</c><c>   1</c></rc>
    <rc><c>Ru</c><c>   1</c></rc>
    <rc><c>Ru</c><c>   1</c></rc>
    <rc><c>Ru</c><c>   1</c></rc>
    <rc><c>Ru</c><c>   1</c></rc>
    <rc><c>Ru</c><c>   1</c></rc>
    <rc><c>Ru</c><c>   1</c></rc>
    <rc><c>Ru</c><c>   1</c></rc>
    <rc><c>Ru</c><c>   1</c></rc>
    <rc><c>Ru</c><c>   1</c></rc>
    <rc><c>Ru</c><c>   1</c></rc>
    <rc><c>Ru</c><c>   1</c></rc>
    <rc><c>Ru</c><c>   1</c></rc>
   </set>
  </array>
  <array name="atomtypes" >
   <dimension dim="1">type</dimension>
   <field type="int">atomspertype</field>
   <field type="string">element</field>
   <field>mass</field>
   <field>valence</field>
   <field type="string">pseudopotential</field>
   <set>
    <rc><c>  96</c><c>Ru</c><c>    101.07000000</c><c>      8.00000000</c><c> PAW_PBE Ru 06Sep2000                   </c></rc>
   </set>
  </array>
 </atominfo>
 <structure name="initialpos" >
  <crystal>
   <varray name="basis" >
    <v>       5.44598000      -9.43244000       0.00000000 </v>
    <v>     -10.89172000       0.00014000       0.00000000 </v>
    <v>       0.00000000       0.00000000     -12.87993000 </v>
   </varray>
   <i name="volume">   1323.21616909 </i>
   <varray name="rec_basis" >
    <v>      -0.00000136      -0.10601789       0.00000000 </v>
    <v>      -0.09181354      -0.05301011       0.00000000 </v>
    <v>       0.00000000       0.00000000      -0.07764017 </v>
   </varray>
  </crystal>
  <varray name="positions" >
   <v>       0.16666000       0.33334000       0.58333333 </v>
   <v>       0.33334000       0.16666000       0.41666667 </v>
   <v>       0.16666000       0.08334000       0.58333333 </v>
   <v>       0.41666000       0.08334000       0.58333333 </v>
   <v>       0.41666000       0.33334000       0.58333333 </v>
   <v>       0.33334000       0.41666000       0.41666667 </v>
   <v>       0.08334000       0.16666000       0.41666667 </v>
   <v>       0.08334000       0.41666000       0.41666667 </v>
   <v>       0.16666000       0.83334000       0.58333333 </v>
   <v>       0.33334000       0.66666000       0.41666667 </v>
   <v>       0.16666000       0.58334000       0.58333333 </v>
   <v>       0.41666000       0.58334000       0.58333333 </v>
   <v>       0.41666000       0.83334000       0.58333333 </v>
   <v>       0.33334000       0.91666000       0.41666667 </v>
   <v>       0.08334000       0.66666000       0.41666667 </v>
   <v>       0.08334000       0.91666000       0.41666667 </v>
   <v>       0.66666000       0.33334000       0.58333333 </v>
   <v>       0.83334000       0.16666000       0.41666667 </v>
   <v>       0.66666000       0.08334000       0.58333333 </v>
   <v>       0.91666000       0.08334000       0.58333333 </v>
   <v>       0.91666000       0.33334000       0.58333333 </v>
   <v>       0.83334000       0.41666000       0.41666667 </v>
   <v>       0.58334000       0.16666000       0.41666667 </v>
   <v>       0.58334000       0.41666000       0.41666667 </v>
   <v>       0.66666000       0.83334000       0.58333333 </v>
   <v>       0.83334000       0.66666000       0.41666667 </v>
   <v>       0.66666000       0.58334000       0.58333333 </v>
   <v>       0.91666000       0.58334000       0.58333333 </v>
   <v>       0.91666000       0.83334000       0.58333333 </v>
   <v>       0.83334000       0.91666000       0.41666667 </v>
   <v>       0.58334000       0.66666000       0.41666667 </v>
   <v>       0.58334000       0.91666000       0.41666667 </v>
   <v>       0.16666000       0.33334000       0.25000000 </v>
   <v>       0.33334000       0.16666000       0.08333333 </v>
   <v>       0.16666000       0.08334000       0.25000000 </v>
   <v>       0.41666000       0.08334000       0.25000000 </v>
   <v>       0.41666000       0.33334000       0.25000000 </v>
   <v>       0.33334000       0.41666000       0.08333333 </v>
   <v>       0.08334000       0.16666000       0.08333333 </v>
   <v>       0.08334000       0.41666000       0.08333333 </v>
   <v>       0.16666000       0.83334000       0.25000000 </v>
   <v>       0.33334000       0.66666000       0.08333333 </v>
   <v>       0.16666000       0.58334000       0.25000000 </v>
   <v>       0.41666000       0.58334000       0.25000000 </v>
   <v>       0.41666000       0.83334000       0.25000000 </v>
   <v>       0.33334000       0.91666000       0.08333333 </v>
   <v>       0.08334000       0.66666000       0.08333333 </v>
   <v>       0.08334000       0.91666000       0.08333333 </v>
   <v>       0.66666000       0.33334000       0.25000000 </v>
   <v>       0.83334000       0.16666000       0.08333333 </v>
   <v>       0.66666000       0.08334000       0.25000000 </v>
   <v>       0.91666000       0.08334000       0.25000000 </v>
   <v>       0.91666000       0.33334000       0.25000000 </v>
   <v>       0.83334000       0.41666000       0.08333333 </v>
   <v>       0.58334000       0.16666000       0.08333333 </v>
   <v>       0.58334000       0.41666000       0.08333333 </v>
   <v>       0.66666000       0.83334000       0.25000000 </v>
   <v>       0.83334000       0.66666000       0.08333333 </v>
   <v>       0.66666000       0.58334000       0.25000000 </v>
   <v>       0.91666000       0.58334000       0.25000000 </v>
   <v>       0.91666000       0.83334000       0.25000000 </v>
   <v>       0.83334000       0.91666000       0.08333333 </v>
   <v>       0.58334000       0.66666000       0.08333333 </v>
   <v>       0.58334000       0.91666000       0.08333333 </v>
   <v>       0.16666000       0.33334000       0.91666667 </v>
   <v>       0.33334000       0.16666000       0.75000000 </v>
   <v>       0.16666000       0.08334000       0.91666667 </v>
   <v>       0.41666000       0.08334000       0.91666667 </v>
   <v>       0.41666000       0.33334000       0.91666667 </v>
   <v>       0.33334000       0.41666000       0.75000000 </v>
   <v>       0.08334000       0.16666000       0.75000000 </v>
   <v>       0.08334000       0.41666000       0.75000000 </v>
   <v>       0.16666000       0.83334000       0.91666667 </v>
   <v>       0.33334000       0.66666000       0.75000000 </v>
   <v>       0.16666000       0.58334000       0.91666667 </v>
   <v>       0.41666000       0.58334000       0.91666667 </v>
   <v>       0.41666000       0.83334000       0.91666667 </v>
   <v>       0.33334000       0.91666000       0.75000000 </v>
   <v>       0.08334000       0.66666000       0.75000000 </v>
   <v>       0.08334000       0.91666000       0.75000000 </v>
   <v>       0.66666000       0.33334000       0.91666667 </v>
   <v>       0.83334000       0.16666000       0.75000000 </v>
   <v>       0.66666000       0.08334000       0.91666667 </v>
   <v>       0.91666000       0.08334000       0.91666667 </v>
   <v>       0.91666000       0.33334000       0.91666667 </v>
   <v>       0.83334000       0.41666000       0.75000000 </v>
   <v>       0.58334000       0.16666000       0.75000000 </v>
   <v>       0.58334000       0.41666000       0.75000000 </v>
   <v>       0.66516000       0.83484000       0.91886333 </v>
   <v>       0.83334000       0.66666000       0.75000000 </v>
   <v>       0.66666000       0.58334000       0.91666667 </v>
   <v>       0.91666000       0.58334000       0.91666667 </v>
   <v>       0.91666000       0.83334000       0.91666667 </v>
   <v>       0.83334000       0.91666000       0.75000000 </v>
   <v>       0.58334000       0.66666000       0.75000000 </v>
   <v>       0.58334000       0.91666000       0.75000000 </v>
  </varray>
 </structure>
 <calculation>
  <scstep>
   <time name="diag">   10.83   10.88</time>
   <time name="diis">   17.99   18.01</time>
   <time name="orth">    3.68    3.69</time>
   <time name="total">   32.55   32.61</time>
   <energy>
    <i name="alphaZ">   5894.30884305 </i>
    <i name="ewald"> -53276.13492005 </i>
    <i name="hartreedc">  -3749.62760802 </i>
    <i name="XCdc">  -3089.19353097 </i>
    <i name="pawpsdc">  36640.55581697 </i>
    <i name="pawaedc"> -31912.21006987 </i>
    <i name="eentropy">     -0.00621769 </i>
    <i name="bandstr">  10011.65321530 </i>
    <i name="atom">  43675.75476406 </i>
    <i name="e_fr_energy">   4195.10029276 </i>
    <i name="e_wo_entrp">   4195.10651046 </i>
    <i name="e_0_energy">   4195.10236533 </i>
   </energy>
  </scstep>
  <scstep>
   <time name="diag">   10.85   10.89</time>
   <time name="diis">   18.23   18.24</time>
   <time name="orth">    3.66    3.67</time>
   <time name="total">   32.75   32.80</time>
   <energy>
    <i name="e_fr_energy">    160.97366525 </i>
    <i name="e_wo_entrp">    160.96170316 </i>
    <i name="e_0_energy">    160.96967788 </i>
   </energy>
  </scstep>
  <scstep>
   <time name="diag">   11.04   11.08</time>
   <time name="diis">   18.02   18.03</time>
   <time name="orth">    3.73    3.78</time>
   <time name="total">   32.79   32.89</time>
   <energy>
    <i name="e_fr_energy">   -523.24563860 </i>
    <i name="e_wo_entrp">   -523.23267586 </i>
    <i name="e_0_energy">   -523.24131769 </i>
   </energy>
  </scstep>
  <scstep>
   <time name="diag">   11.07   11.07</time>
   <time name="diis">   17.99   18.01</time>
   <time name="orth">    3.71    3.74</time>
   <time name="total">   32.77   32.83</time>
   <energy>
    <i name="e_fr_energy">   -793.98754200 </i>
    <i name="e_wo_entrp">   -793.98159679 </i>
    <i name="e_0_energy">   -793.98556026 </i>
   </energy>
  </scstep>
  <scstep>
   <time name="diag">   11.07   11.08</time>
   <time name="diis">   18.05   18.17</time>
   <time name="orth">    3.73    3.73</time>
   <time name="total">   32.86   32.99</time>
   <energy>
    <i name="e_fr_energy">   -870.67787734 </i>
    <i name="e_wo_entrp">   -870.67160772 </i>
    <i name="e_0_energy">   -870.67578747 </i>
   </energy>
  </scstep>
  <scstep>
   <time name="diag">   11.01   11.02</time>
   <time name="diis">   18.00   18.07</time>
   <time name="orth">    3.66    3.66</time>
   <time name="total">   32.68   32.76</time>
   <energy>
    <i name="e_fr_energy">   -905.91253914 </i>
    <i name="e_wo_entrp">   -905.92465274 </i>
    <i name="e_0_energy">   -905.91657701 </i>
   </energy>
  </scstep>
  <scstep>
   <time name="diag">   10.98   10.99</time>
   <time name="diis">   17.96   18.04</time>
   <time name="orth">    3.66    3.67</time>
   <time name="total">   32.61   32.70</time>
   <energy>
    <i name="e_fr_energy">   -922.52703177 </i>
    <i name="e_wo_entrp">   -922.55198057 </i>
    <i name="e_0_energy">   -922.53534804 </i>
   </energy>
  </scstep>
  <scstep>
   <time name="diag">   10.98   10.99</time>
   <time name="diis">   18.00   18.09</time>
   <time name="orth">    3.68    3.68</time>
   <time name="total">   32.67   32.77</time>
   <energy>
    <i name="e_fr_energy">   -931.90105533 </i>
    <i name="e_wo_entrp">   -931.93673030 </i>
    <i name="e_0_energy">   -931.91294699 </i>
   </energy>
  </scstep>
  <scstep>
   <time name="diag">   11.00   11.00</time>
   <time name="diis">   52.66   52.83</time>
   <time name="orth">    3.68    3.68</time>
   <time name="total">   67.34   67.52</time>
   <energy>
    <i name="e_fr_energy">   -943.54993998 </i>
    <i name="e_wo_entrp">   -943.60327518 </i>
    <i name="e_0_energy">   -943.56771838 </i>
   </energy>
  </scstep>
  <scstep>
   <time name="diag">   11.01   11.04</time>
   <time name="diis">   57.85   57.98</time>
   <time name="orth">    3.72    3.76</time>
   <time name="total">   72.58   72.79</time>
   <energy>
    <i name="e_fr_energy">   -944.41920037 </i>
    <i name="e_wo_entrp">   -944.46973131 </i>
    <i name="e_0_energy">   -944.43604402 </i>
   </energy>
  </scstep>
  <scstep>
   <time name="diag">   10.97   10.98</time>
   <time name="diis">   58.90   59.06</time>
   <time name="orth">    3.65    3.65</time>
   <time name="total">   73.53   73.69</time>
   <energy>
    <i name="e_fr_energy">   -944.51339258 </i>
    <i name="e_wo_entrp">   -944.56349361 </i>
    <i name="e_0_energy">   -944.53009292 </i>
   </energy>
  </scstep>
  <scstep>
   <time name="diag">   11.01   11.02</time>
   <time name="diis">   59.14   59.28</time>
   <time name="orth">    3.72    3.74</time>
   <time name="total">   74.88   75.06</time>
   <energy>
    <i name="e_fr_energy">   -944.52030101 </i>
    <i name="e_wo_entrp">   -944.57044338 </i>
    <i name="e_0_energy">   -944.53701514 </i>
   </energy>
  </scstep>
  <scstep>
   <time name="diag">   11.08   11.08</time>
   <time name="diis">   40.46   40.53</time>
   <time name="orth">    3.76    3.76</time>
   <time name="total">   56.36   56.43</time>
   <energy>
    <i name="e_fr_energy">   -890.27069826 </i>
    <i name="e_wo_entrp">   -890.27973954 </i>
    <i name="e_0_energy">   -890.27371202 </i>
   </energy>
  </scstep>
  <scstep>
   <time name="diag">   11.15   11.18</time>
   <time name="diis">   42.77   42.82</time>
   <time name="orth">    3.70    3.71</time>
   <time name="total">   58.67   58.75</time>
   <energy>
    <i name="e_fr_energy">   -884.03705083 </i>
    <i name="e_wo_entrp">   -884.01290831 </i>
    <i name="e_0_energy">   -884.02900333 </i>
   </energy>
  </scstep>
  <scstep>
   <time name="diag">   11.06   11.09</time>
   <time name="diis">   50.20   50.28</time>
   <time name="orth">    3.72    3.74</time>
   <time name="total">   66.03   66.15</time>
   <energy>
    <i name="e_fr_energy">   -884.08089173 </i>
    <i name="e_wo_entrp">   -884.05921544 </i>
    <i name="e_0_energy">   -884.07366630 </i>
   </energy>
  </scstep>
  <scstep>
   <time name="diag">   10.76   10.76</time>
   <time name="diis">   44.36   44.42</time>
   <time name="orth">    3.70    3.73</time>
   <time name="total">   59.88   59.96</time>
   <energy>
    <i name="e_fr_energy">   -883.63927435 </i>
    <i name="e_wo_entrp">   -883.61561945 </i>
    <i name="e_0_energy">   -883.63138938 </i>
   </energy>
  </scstep>
  <scstep>
   <time name="diag">   11.01   11.01</time>
   <time name="diis">   47.01   47.09</time>
   <time name="orth">    3.72    3.72</time>
   <time name="total">   62.78   62.86</time>
   <energy>
    <i name="e_fr_energy">   -883.55100490 </i>
    <i name="e_wo_entrp">   -883.52652103 </i>
    <i name="e_0_energy">   -883.54284361 </i>
   </energy>
  </scstep>
  <scstep>
   <time name="diag">   11.03   11.03</time>
   <time name="diis">   48.54   48.63</time>
   <time name="orth">    3.66    3.67</time>
   <time name="total">   64.27   64.37</time>
   <energy>
    <i name="e_fr_energy">   -883.53054523 </i>
    <i name="e_wo_entrp">   -883.50592145 </i>
    <i name="e_0_energy">   -883.52233730 </i>
   </energy>
  </scstep>
  <scstep>
   <time name="diag">   11.00   11.00</time>
   <time name="diis">   47.00   47.08</time>
   <time name="orth">    3.68    3.68</time>
   <time name="total">   62.72   62.80</time>
   <energy>
    <i name="e_fr_energy">   -883.51891376 </i>
    <i name="e_wo_entrp">   -883.49426781 </i>
    <i name="e_0_energy">   -883.51069844 </i>
   </energy>
  </scstep>
  <scstep>
   <time name="diag">   11.00   11.01</time>
   <time name="diis">   52.41   52.59</time>
   <time name="orth">    3.67    3.67</time>
   <time name="total">   68.12   68.31</time>
   <energy>
    <i name="e_fr_energy">   -883.51893456 </i>
    <i name="e_wo_entrp">   -883.49427998 </i>
    <i name="e_0_energy">   -883.51071636 </i>
   </energy>
  </scstep>
  <scstep>
   <time name="diag">   11.03   11.05</time>
   <time name="diis">   47.10   47.15</time>
   <time name="orth">    3.67    3.67</time>
   <time name="total">   62.84   62.91</time>
   <energy>
    <i name="e_fr_energy">   -883.51811021 </i>
    <i name="e_wo_entrp">   -883.49347318 </i>
    <i name="e_0_energy">   -883.50989787 </i>
   </energy>
  </scstep>
  <scstep>
   <time name="diag">   11.06   11.12</time>
   <time name="diis">   49.04   49.11</time>
   <time name="orth">    3.68    3.68</time>
   <time name="total">   64.82   64.95</time>
   <energy>
    <i name="e_fr_energy">   -883.51789868 </i>
    <i name="e_wo_entrp">   -883.49326187 </i>
    <i name="e_0_energy">   -883.50968641 </i>
   </energy>
  </scstep>
  <scstep>
   <time name="diag">   11.15   11.17</time>
   <time name="diis">   49.00   49.11</time>
   <time name="orth">    3.68    3.68</time>
   <time name="total">   63.86   63.99</time>
   <energy>
    <i name="alphaZ">   5894.30884305 </i>
    <i name="ewald"> -53276.13492005 </i>
    <i name="hartreedc">  -2877.65896427 </i>
    <i name="XCdc">  -3093.14188490 </i>
    <i name="pawpsdc">  42101.04819497 </i>
    <i name="pawaedc"> -37597.45264598 </i>
    <i name="eentropy">     -0.02463580 </i>
    <i name="bandstr">   4289.78342110 </i>
    <i name="atom">  43675.75476406 </i>
    <i name="e_fr_energy">   -883.51782782 </i>
    <i name="e_wo_entrp">   -883.49319203 </i>
    <i name="e_0_energy">   -883.50961589 </i>
   </energy>
  </scstep>
  <structure>
   <crystal>
    <varray name="basis" >
     <v>       5.44598000      -9.43244000       0.00000000 </v>
     <v>     -10.89172000       0.00014000       0.00000000 </v>
     <v>       0.00000000       0.00000000     -12.87993000 </v>
    </varray>
    <i name="volume">   1323.21616909 </i>
    <varray name="rec_basis" >
     <v>      -0.00000136      -0.10601789       0.00000000 </v>
     <v>      -0.09181354      -0.05301011       0.00000000 </v>
     <v>       0.00000000       0.00000000      -0.07764017 </v>
    </varray>
   </crystal>
   <varray name="positions" >
    <v>       0.16666000       0.33334000       0.58333333 </v>
    <v>       0.33334000       0.16666000       0.41666667 </v>
    <v>       0.16666000       0.08334000       0.58333333 </v>
    <v>       0.41666000       0.08334000       0.58333333 </v>
    <v>       0.41666000       0.33334000       0.58333333 </v>
    <v>       0.33334000       0.41666000       0.41666667 </v>
    <v>       0.08334000       0.16666000       0.41666667 </v>
    <v>       0.08334000       0.41666000       0.41666667 </v>
    <v>       0.16666000       0.83334000       0.58333333 </v>
    <v>       0.33334000       0.66666000       0.41666667 </v>
    <v>       0.16666000       0.58334000       0.58333333 </v>
    <v>       0.41666000       0.58334000       0.58333333 </v>
    <v>       0.41666000       0.83334000       0.58333333 </v>
    <v>       0.33334000       0.91666000       0.41666667 </v>
    <v>       0.08334000       0.66666000       0.41666667 </v>
    <v>       0.08334000       0.91666000       0.41666667 </v>
    <v>       0.66666000       0.33334000       0.58333333 </v>
    <v>       0.83334000       0.16666000       0.41666667 </v>
    <v>       0.66666000       0.08334000       0.58333333 </v>
    <v>       0.91666000       0.08334000       0.58333333 </v>
    <v>       0.91666000       0.33334000       0.58333333 </v>
    <v>       0.83334000       0.41666000       0.41666667 </v>
    <v>       0.58334000       0.16666000       0.41666667 </v>
    <v>       0.58334000       0.41666000       0.41666667 </v>
    <v>       0.66666000       0.83334000       0.58333333 </v>
    <v>       0.83334000       0.66666000       0.41666667 </v>
    <v>       0.66666000       0.58334000       0.58333333 </v>
    <v>       0.91666000       0.58334000       0.58333333 </v>
    <v>       0.91666000       0.83334000       0.58333333 </v>
    <v>       0.83334000       0.91666000       0.41666667 </v>
    <v>       0.58334000       0.66666000       0.41666667 </v>
    <v>       0.58334000       0.91666000       0.41666667 </v>
    <v>       0.16666000       0.33334000       0.25000000 </v>
    <v>       0.33334000       0.16666000       0.08333333 </v>
    <v>       0.16666000       0.08334000       0.25000000 </v>
    <v>       0.41666000       0.08334000       0.25000000 </v>
    <v>       0.41666000       0.33334000       0.25000000 </v>
    <v>       0.33334000       0.41666000       0.08333333 </v>
    <v>       0.08334000       0.16666000       0.08333333 </v>
    <v>       0.08334000       0.41666000       0.08333333 </v>
    <v>       0.16666000       0.83334000       0.25000000 </v>
    <v>       0.33334000       0.66666000       0.08333333 </v>
    <v>       0.16666000       0.58334000       0.25000000 </v>
    <v>       0.41666000       0.58334000       0.25000000 </v>
    <v>       0.41666000       0.83334000       0.25000000 </v>
    <v>       0.33334000       0.91666000       0.08333333 </v>
    <v>       0.08334000       0.66666000       0.08333333 </v>
    <v>       0.08334000       0.91666000       0.08333333 </v>
    <v>       0.66666000       0.33334000       0.25000000 </v>
    <v>       0.83334000       0.16666000       0.08333333 </v>
    <v>       0.66666000       0.08334000       0.25000000 </v>
    <v>       0.91666000       0.08334000       0.25000000 </v>
    <v>       0.91666000       0.33334000       0.25000000 </v>
    <v>       0.83334000       0.41666000       0.08333333 </v>
    <v>       0.58334000       0.16666000       0.08333333 </v>
    <v>       0.58334000       0.41666000       0.08333333 </v>
    <v>       0.66666000       0.83334000       0.25000000 </v>
    <v>       0.83334000       0.66666000       0.08333333 </v>
    <v>       0.66666000       0.58334000       0.25000000 </v>
    <v>       0.91666000       0.58334000       0.25000000 </v>
    <v>       0.91666000       0.83334000       0.25000000 </v>
    <v>       0.83334000       0.91666000       0.08333333 </v>
    <v>       0.58334000       0.66666000       0.08333333 </v>
    <v>       0.58334000       0.91666000       0.08333333 </v>
    <v>       0.16666000       0.33334000       0.91666667 </v>
    <v>       0.33334000       0.16666000       0.75000000 </v>
    <v>       0.16666000       0.08334000       0.91666667 </v>
    <v>       0.41666000       0.08334000       0.91666667 </v>
    <v>       0.41666000       0.33334000       0.91666667 </v>
    <v>       0.33334000       0.41666000       0.75000000 </v>
    <v>       0.08334000       0.16666000       0.75000000 </v>
    <v>       0.08334000       0.41666000       0.75000000 </v>
    <v>       0.16666000       0.83334000       0.91666667 </v>
    <v>       0.33334000       0.66666000       0.75000000 </v>
    <v>       0.16666000       0.58334000       0.91666667 </v>
    <v>       0.41666000       0.58334000       0.91666667 </v>
    <v>       0.41666000       0.83334000       0.91666667 </v>
    <v>       0.33334000       0.91666000       0.75000000 </v>
    <v>       0.08334000       0.66666000       0.75000000 </v>
    <v>       0.08334000       0.91666000       0.75000000 </v>
    <v>       0.66666000       0.33334000       0.91666667 </v>
    <v>       0.83334000       0.16666000       0.75000000 </v>
    <v>       0.66666000       0.08334000       0.91666667 </v>
    <v>       0.91666000       0.08334000       0.91666667 </v>
    <v>       0.91666000       0.33334000       0.91666667 </v>
    <v>       0.83334000       0.41666000       0.75000000 </v>
    <v>       0.58334000       0.16666000       0.75000000 </v>
    <v>       0.58334000       0.41666000       0.75000000 </v>
    <v>       0.66516000       0.83484000       0.91886333 </v>
    <v>       0.83334000       0.66666000       0.75000000 </v>
    <v>       0.66666000       0.58334000       0.91666667 </v>
    <v>       0.91666000       0.58334000       0.91666667 </v>
    <v>       0.91666000       0.83334000       0.91666667 </v>
    <v>       0.83334000       0.91666000       0.75000000 </v>
    <v>       0.58334000       0.66666000       0.75000000 </v>
    <v>       0.58334000       0.91666000       0.75000000 </v>
   </varray>
  </structure>
  <varray name="forces" >
   <v>       0.00115434      -0.00066646      -0.00044138 </v>
   <v>      -0.00172531       0.00099611       0.00184951 </v>
   <v>       0.00157616      -0.00193315      -0.00144303 </v>
   <v>       0.00053673      -0.00030988       0.00095424 </v>
   <v>       0.00246224      -0.00039842      -0.00144303 </v>
   <v>      -0.00193898      -0.00022372      -0.00165078 </v>
   <v>      -0.00077575       0.00179106      -0.00165078 </v>
   <v>      -0.00182185       0.00105185      -0.00226080 </v>
   <v>       0.00182353      -0.00109844      -0.00098119 </v>
   <v>       0.00044451       0.00085804      -0.01534251 </v>
   <v>       0.00158410      -0.00225838      -0.00120750 </v>
   <v>       0.00208356      -0.00285124       0.00272866 </v>
   <v>       0.00119532      -0.00117614       0.00533546 </v>
   <v>      -0.00209949       0.00032154      -0.00135572 </v>
   <v>      -0.00167510       0.00126225      -0.00224878 </v>
   <v>      -0.00001616       0.00042447      -0.00150651 </v>
   <v>       0.00186304      -0.00103000      -0.00098119 </v>
   <v>      -0.00052083      -0.00081397      -0.01534251 </v>
   <v>       0.00161623      -0.00044711       0.00533546 </v>
   <v>       0.00351102      -0.00037880       0.00272866 </v>
   <v>       0.00274786      -0.00024268      -0.00120750 </v>
   <v>      -0.00193069       0.00081956      -0.00224878 </v>
   <v>      -0.00132820       0.00165744      -0.00135572 </v>
   <v>      -0.00037568      -0.00019824      -0.00150651 </v>
   <v>       0.00195859      -0.00113080      -0.02828982 </v>
   <v>      -0.00204055       0.00117811      -0.01470939 </v>
   <v>      -0.00049108       0.00039130       0.00280691 </v>
   <v>       0.00025692      -0.00014833       0.00060395 </v>
   <v>      -0.00058441       0.00022964       0.00280691 </v>
   <v>      -0.00198296       0.00081160       0.00081923 </v>
   <v>      -0.00169435       0.00131150       0.00081923 </v>
   <v>      -0.00152786       0.00088211       0.00033688 </v>
   <v>       0.00163133      -0.00094185      -0.00096964 </v>
   <v>       0.00042638      -0.00024617      -0.00199962 </v>
   <v>       0.00160338       0.00028738      -0.00061117 </v>
   <v>       0.00250184      -0.00144444      -0.00259878 </v>
   <v>       0.00055282      -0.00153226      -0.00061117 </v>
   <v>      -0.00038867      -0.00023339       0.00179407 </v>
   <v>       0.00000779       0.00045329       0.00179407 </v>
   <v>      -0.00015810       0.00009128       0.00375623 </v>
   <v>       0.00144832      -0.00172540      -0.00054488 </v>
   <v>       0.00530979       0.01694146      -0.01205508 </v>
   <v>       0.00172792       0.00049479      -0.00075286 </v>
   <v>       0.00121266      -0.00003613       0.00443730 </v>
   <v>       0.00192920       0.00215333       0.00137127 </v>
   <v>      -0.00680683       0.00435083      -0.00212571 </v>
   <v>      -0.00287907       0.00244022       0.00228981 </v>
   <v>      -0.00399581       0.00301462      -0.00018155 </v>
   <v>       0.00221840      -0.00039158      -0.00054488 </v>
   <v>      -0.01201684      -0.01306914      -0.01205508 </v>
   <v>      -0.00090024      -0.00274740       0.00137127 </v>
   <v>       0.00063762      -0.00103213       0.00443730 </v>
   <v>       0.00043546      -0.00174382      -0.00075286 </v>
   <v>      -0.00355283       0.00127324       0.00228981 </v>
   <v>      -0.00717134       0.00371948      -0.00212571 </v>
   <v>      -0.00460864       0.00195317      -0.00018155 </v>
   <v>       0.00200066      -0.00115508      -0.02784940 </v>
   <v>       0.00230161      -0.00132883       0.00595061 </v>
   <v>       0.00195106      -0.00219937       0.00346776 </v>
   <v>       0.00256891      -0.00148316      -0.00246373 </v>
   <v>       0.00288024      -0.00058998       0.00346776 </v>
   <v>      -0.00981491      -0.02712913      -0.01703203 </v>
   <v>       0.01858706       0.02206453      -0.01703203 </v>
   <v>      -0.09182267       0.05301387      -0.10171039 </v>
   <v>       0.00013907      -0.00008029      -0.00289596 </v>
   <v>       0.00043376      -0.00025043      -0.00220414 </v>
   <v>      -0.00146039       0.00208651      -0.00066904 </v>
   <v>      -0.00390109       0.00225230      -0.00066102 </v>
   <v>      -0.00253717       0.00022147      -0.00066904 </v>
   <v>      -0.00403638       0.00068082      -0.00282679 </v>
   <v>      -0.00260780       0.00315520      -0.00282679 </v>
   <v>      -0.00156639       0.00090436       0.00032701 </v>
   <v>      -0.01928570       0.03354284      -0.00291807 </v>
   <v>       0.00509207      -0.00685514       0.00026566 </v>
   <v>      -0.00183020       0.00221194      -0.00066267 </v>
   <v>       0.00411802       0.00942208      -0.00196901 </v>
   <v>      -0.02454437       0.01848982      -0.00140833 </v>
   <v>      -0.00244336       0.00443459      -0.00002288 </v>
   <v>      -0.00142784       0.00334965       0.00181593 </v>
   <v>      -0.00141483       0.00524950      -0.00087912 </v>
   <v>      -0.03869179      -0.00006950      -0.00291807 </v>
   <v>       0.00848276      -0.00098229       0.00026566 </v>
   <v>      -0.02828484       0.01201115      -0.00140833 </v>
   <v>      -0.00610075      -0.00827735      -0.00196901 </v>
   <v>      -0.00283069       0.00047903      -0.00066267 </v>
   <v>      -0.00361480      -0.00043828       0.00181593 </v>
   <v>      -0.00506215      -0.00010128      -0.00002288 </v>
   <v>      -0.00525361      -0.00139948      -0.00087912 </v>
   <v>       0.36147643      -0.20869862       0.38854135 </v>
   <v>      -0.01724230       0.00995485      -0.01668162 </v>
   <v>      -0.03428197      -0.00945520      -0.00209772 </v>
   <v>      -0.00302931       0.00174897      -0.00073352 </v>
   <v>      -0.00895254       0.03441667      -0.00209772 </v>
   <v>      -0.00914506       0.06801395      -0.05686519 </v>
   <v>      -0.06347433      -0.02608711      -0.05686519 </v>
   <v>       0.00317622      -0.00183379       0.00860156 </v>
  </varray>
  <varray name="stress" >
   <v>     -17.92753024      -0.07250817       0.02721033 </v>
   <v>      -0.07250817     -18.01126715      -0.01570990 </v>
   <v>       0.02721043      -0.01570996     -21.62447438 </v>
  </varray>
  <energy>
   <i name="e_fr_energy">   -883.51782782 </i>
   <i name="e_wo_entrp">   -883.50961589 </i>
   <i name="e_0_energy">     -0.02463580 </i>
  </energy>
  <time name="totalsc"> 1339.65 1342.64</time>
  <eigenvalues>
   <array>
    <dimension dim="1">band</dimension>
    <dimension dim="2">kpoint</dimension>
    <dimension dim="3">spin</dimension>
    <field>eigene</field>
    <field>occ</field>
    <set>
     <set comment="spin 1">
      <set comment="kpoint 1">
       <r>    0.8839    1.0000 </r>
       <r>    1.9805    1.0000 </r>
       <r>    1.9825    1.0000 </r>
       <r>    2.5510    1.0000 </r>
       <r>    2.5515    1.0000 </r>
       <r>    2.5518    1.0000 </r>
       <r>    2.5522    1.0000 </r>
       <r>    2.5524    1.0000 </r>
       <r>    2.5528    1.0000 </r>
       <r>    2.6568    1.0000 </r>
       <r>    2.6750    1.0000 </r>
       <r>    2.6767    1.0000 </r>
       <r>    2.6770    1.0000 </r>
       <r>    2.6774    1.0000 </r>
       <r>    2.6775    1.0000 </r>
       <r>    2.6793    1.0000 </r>
       <r>    2.7151    1.0000 </r>
       <r>    2.7155    1.0000 </r>
       <r>    2.7158    1.0000 </r>
       <r>    2.9433    1.0000 </r>
       <r>    2.9460    1.0000 </r>
       <r>    3.0765    1.0000 </r>
       <r>    3.0778    1.0000 </r>
       <r>    3.0786    1.0000 </r>
       <r>    3.0789    1.0000 </r>
       <r>    3.0798    1.0000 </r>
       <r>    3.0799    1.0000 </r>
       <r>    3.0799    1.0000 </r>
       <r>    3.0800    1.0000 </r>
       <r>    3.0802    1.0000 </r>
       <r>    3.0806    1.0000 </r>
       <r>    3.0815    1.0000 </r>
       <r>    3.0829    1.0000 </r>
       <r>    3.0920    1.0000 </r>
       <r>    3.0920    1.0000 </r>
       <r>    3.0928    1.0000 </r>
       <r>    3.0948    1.0000 </r>
       <r>    3.0948    1.0000 </r>
       <r>    3.0955    1.0000 </r>
       <r>    3.3479    1.0000 </r>
       <r>    3.3498    1.0000 </r>
       <r>    3.3519    1.0000 </r>
       <r>    3.4710    1.0000 </r>
       <r>    3.4717    1.0000 </r>
       <r>    3.4734    1.0000 </r>
       <r>    3.4978    1.0000 </r>
       <r>    3.5008    1.0000 </r>
       <r>    3.5010    1.0000 </r>
       <r>    3.5014    1.0000 </r>
       <r>    3.5020    1.0000 </r>
       <r>    3.5039    1.0000 </r>
       <r>    3.5440    1.0000 </r>
       <r>    3.5498    1.0000 </r>
       <r>    3.5500    1.0000 </r>
       <r>    3.5501    1.0000 </r>
       <r>    3.5505    1.0000 </r>
       <r>    3.5541    1.0000 </r>
       <r>    3.5772    1.0000 </r>
       <r>    3.5786    1.0000 </r>
       <r>    3.5794    1.0000 </r>
       <r>    3.5809    1.0000 </r>
       <r>    3.5814    1.0000 </r>
       <r>    3.5819    1.0000 </r>
       <r>    3.5820    1.0000 </r>
       <r>    3.5825    1.0000 </r>
       <r>    3.5833    1.0000 </r>
       <r>    3.5841    1.0000 </r>
       <r>    3.5844    1.0000 </r>
       <r>    3.5891    1.0000 </r>
       <r>    3.8670    1.0000 </r>
       <r>    3.8716    1.0000 </r>
       <r>    3.8722    1.0000 </r>
       <r>    3.8733    1.0000 </r>
       <r>    3.8736    1.0000 </r>
       <r>    3.8738    1.0000 </r>
       <r>    3.8739    1.0000 </r>
       <r>    3.8740    1.0000 </r>
       <r>    3.8751    1.0000 </r>
       <r>    3.8752    1.0000 </r>
       <r>    3.8766    1.0000 </r>
       <r>    3.8793    1.0000 </r>
       <r>    4.0161    1.0000 </r>
       <r>    4.0179    1.0000 </r>
       <r>    4.0187    1.0000 </r>
       <r>    4.0205    1.0000 </r>
       <r>    4.0209    1.0000 </r>
       <r>    4.0212    1.0000 </r>
       <r>    4.0214    1.0000 </r>
       <r>    4.0215    1.0000 </r>
       <r>    4.0222    1.0000 </r>
       <r>    4.0233    1.0000 </r>
       <r>    4.0243    1.0000 </r>
       <r>    4.0253    1.0000 </r>
       <r>    4.0587    1.0000 </r>
       <r>    4.0609    1.0000 </r>
       <r>    4.0611    1.0000 </r>
       <r>    4.0612    1.0000 </r>
       <r>    4.0616    1.0000 </r>
       <r>    4.0635    1.0000 </r>
       <r>    4.2448    1.0000 </r>
       <r>    4.2472    1.0000 </r>
       <r>    4.2480    1.0000 </r>
       <r>    4.2488    1.0000 </r>
       <r>    4.2504    1.0000 </r>
       <r>    4.2522    1.0000 </r>
       <r>    4.2919    1.0000 </r>
       <r>    4.2937    1.0000 </r>
       <r>    4.2943    1.0000 </r>
       <r>    4.2945    1.0000 </r>
       <r>    4.2955    1.0000 </r>
       <r>    4.2960    1.0000 </r>
       <r>    4.4957    1.0000 </r>
       <r>    4.5013    1.0000 </r>
       <r>    4.5018    1.0000 </r>
       <r>    4.5024    1.0000 </r>
       <r>    4.5026    1.0000 </r>
       <r>    4.5032    1.0000 </r>
       <r>    4.5034    1.0000 </r>
       <r>    4.5034    1.0000 </r>
       <r>    4.5036    1.0000 </r>
       <r>    4.5046    1.0000 </r>
       <r>    4.5051    1.0000 </r>
       <r>    4.5101    1.0000 </r>
       <r>    4.6474    1.0000 </r>
       <r>    4.6501    1.0000 </r>
       <r>    4.6528    1.0000 </r>
       <r>    4.6540    1.0000 </r>
       <r>    4.6541    1.0000 </r>
       <r>    4.6543    1.0000 </r>
       <r>    4.6544    1.0000 </r>
       <r>    4.6545    1.0000 </r>
       <r>    4.6546    1.0000 </r>
       <r>    4.6557    1.0000 </r>
       <r>    4.6575    1.0000 </r>
       <r>    4.6603    1.0000 </r>
       <r>    4.6816    1.0000 </r>
       <r>    4.6824    1.0000 </r>
       <r>    4.6832    1.0000 </r>
       <r>    4.6844    1.0000 </r>
       <r>    4.6849    1.0000 </r>
       <r>    4.6853    1.0000 </r>
       <r>    4.9490    1.0000 </r>
       <r>    4.9494    1.0000 </r>
       <r>    4.9505    1.0000 </r>
       <r>    4.9506    1.0000 </r>
       <r>    4.9513    1.0000 </r>
       <r>    4.9524    1.0000 </r>
       <r>    5.0122    1.0000 </r>
       <r>    5.0140    1.0000 </r>
       <r>    5.0150    1.0000 </r>
       <r>    5.0157    1.0000 </r>
       <r>    5.0167    1.0000 </r>
       <r>    5.0199    1.0000 </r>
       <r>    5.2119    1.0000 </r>
       <r>    5.2161    1.0000 </r>
       <r>    5.2165    1.0000 </r>
       <r>    5.2170    1.0000 </r>
       <r>    5.2171    1.0000 </r>
       <r>    5.2197    1.0000 </r>
       <r>    5.2265    1.0000 </r>
       <r>    5.2268    1.0000 </r>
       <r>    5.2273    1.0000 </r>
       <r>    5.2304    1.0000 </r>
       <r>    5.2305    1.0000 </r>
       <r>    5.2314    1.0000 </r>
       <r>    5.2315    1.0000 </r>
       <r>    5.2330    1.0000 </r>
       <r>    5.2343    1.0000 </r>
       <r>    5.2347    1.0000 </r>
       <r>    5.2356    1.0000 </r>
       <r>    5.2381    1.0000 </r>
       <r>    5.3540    1.0000 </r>
       <r>    5.3585    1.0000 </r>
       <r>    5.3594    1.0000 </r>
       <r>    5.3596    1.0000 </r>
       <r>    5.3602    1.0000 </r>
       <r>    5.3608    1.0000 </r>
       <r>    5.3608    1.0000 </r>
       <r>    5.3610    1.0000 </r>
       <r>    5.3614    1.0000 </r>
       <r>    5.3628    1.0000 </r>
       <r>    5.3632    1.0000 </r>
       <r>    5.3678    1.0000 </r>
       <r>    5.6445    1.0000 </r>
       <r>    5.6494    1.0000 </r>
       <r>    5.6502    1.0000 </r>
       <r>    5.6502    1.0000 </r>
       <r>    5.6512    1.0000 </r>
       <r>    5.6538    1.0000 </r>
       <r>    5.7607    1.0000 </r>
       <r>    5.7621    1.0000 </r>
       <r>    5.7630    1.0000 </r>
       <r>    5.7894    1.0000 </r>
       <r>    5.7917    1.0000 </r>
       <r>    5.7924    1.0000 </r>
       <r>    5.7939    1.0000 </r>
       <r>    5.7947    1.0000 </r>
       <r>    5.7950    1.0000 </r>
       <r>    5.7951    1.0000 </r>
       <r>    5.7956    1.0000 </r>
       <r>    5.7964    1.0000 </r>
       <r>    5.7977    1.0000 </r>
       <r>    5.7982    1.0000 </r>
       <r>    5.8002    1.0000 </r>
       <r>    5.9040    1.0000 </r>
       <r>    5.9044    1.0000 </r>
       <r>    5.9047    1.0000 </r>
       <r>    5.9052    1.0000 </r>
       <r>    5.9286    1.0000 </r>
       <r>    5.9318    1.0000 </r>
       <r>    5.9324    1.0000 </r>
       <r>    5.9339    1.0000 </r>
       <r>    5.9340    1.0000 </r>
       <r>    5.9344    1.0000 </r>
       <r>    5.9348    1.0000 </r>
       <r>    5.9351    1.0000 </r>
       <r>    5.9355    1.0000 </r>
       <r>    5.9371    1.0000 </r>
       <r>    5.9372    1.0000 </r>
       <r>    5.9411    1.0000 </r>
       <r>    5.9610    1.0000 </r>
       <r>    5.9646    1.0000 </r>
       <r>    6.1878    1.0000 </r>
       <r>    6.1891    1.0000 </r>
       <r>    6.3187    1.0000 </r>
       <r>    6.3198    1.0000 </r>
       <r>    6.3205    1.0000 </r>
       <r>    6.3209    1.0000 </r>
       <r>    6.3930    1.0000 </r>
       <r>    6.4124    1.0000 </r>
       <r>    6.4139    1.0000 </r>
       <r>    6.4157    1.0000 </r>
       <r>    6.4166    1.0000 </r>
       <r>    6.4168    1.0000 </r>
       <r>    6.4196    1.0000 </r>
       <r>    6.4281    1.0000 </r>
       <r>    6.4299    1.0000 </r>
       <r>    6.4310    1.0000 </r>
       <r>    6.4313    1.0000 </r>
       <r>    6.4318    1.0000 </r>
       <r>    6.4353    1.0000 </r>
       <r>    6.4951    1.0000 </r>
       <r>    6.4965    1.0000 </r>
       <r>    6.4979    1.0000 </r>
       <r>    6.4981    1.0000 </r>
       <r>    6.4990    1.0000 </r>
       <r>    6.4993    1.0000 </r>
       <r>    6.4996    1.0000 </r>
       <r>    6.5001    1.0000 </r>
       <r>    6.5013    1.0000 </r>
       <r>    6.5021    1.0000 </r>
       <r>    6.5027    1.0000 </r>
       <r>    6.5032    1.0000 </r>
       <r>    6.6332    1.0000 </r>
       <r>    6.6387    1.0000 </r>
       <r>    6.6389    1.0000 </r>
       <r>    6.6391    1.0000 </r>
       <r>    6.6393    1.0000 </r>
       <r>    6.6427    1.0000 </r>
       <r>    6.6556    1.0000 </r>
       <r>    6.6563    1.0000 </r>
       <r>    6.6585    1.0000 </r>
       <r>    6.6602    1.0000 </r>
       <r>    6.6621    1.0000 </r>
       <r>    6.6638    1.0000 </r>
       <r>    6.7226    1.0000 </r>
       <r>    6.7272    1.0000 </r>
       <r>    6.7288    1.0000 </r>
       <r>    6.7465    1.0000 </r>
       <r>    6.7476    1.0000 </r>
       <r>    6.7503    1.0000 </r>
       <r>    6.7514    1.0000 </r>
       <r>    6.7516    1.0000 </r>
       <r>    6.7518    1.0000 </r>
       <r>    6.7519    1.0000 </r>
       <r>    6.7522    1.0000 </r>
       <r>    6.7530    1.0000 </r>
       <r>    6.7536    1.0000 </r>
       <r>    6.7546    1.0000 </r>
       <r>    6.7578    1.0000 </r>
       <r>    6.8583    1.0000 </r>
       <r>    6.8596    1.0000 </r>
       <r>    6.9677    1.0000 </r>
       <r>    6.9707    1.0000 </r>
       <r>    6.9718    1.0000 </r>
       <r>    7.0265    1.0000 </r>
       <r>    7.0299    1.0000 </r>
       <r>    7.0303    1.0000 </r>
       <r>    7.0315    1.0000 </r>
       <r>    7.0327    1.0000 </r>
       <r>    7.0330    1.0000 </r>
       <r>    7.0331    1.0000 </r>
       <r>    7.0332    1.0000 </r>
       <r>    7.0341    1.0000 </r>
       <r>    7.0346    1.0000 </r>
       <r>    7.0359    1.0000 </r>
       <r>    7.0370    1.0000 </r>
       <r>    7.0578    1.0000 </r>
       <r>    7.0603    1.0000 </r>
       <r>    7.0634    1.0000 </r>
       <r>    7.0637    1.0000 </r>
       <r>    7.0641    1.0000 </r>
       <r>    7.0645    1.0000 </r>
       <r>    7.0646    1.0000 </r>
       <r>    7.0651    1.0000 </r>
       <r>    7.0653    1.0000 </r>
       <r>    7.0659    1.0000 </r>
       <r>    7.0708    1.0000 </r>
       <r>    7.0736    1.0000 </r>
       <r>    7.1690    1.0000 </r>
       <r>    7.1697    1.0000 </r>
       <r>    7.1716    1.0000 </r>
       <r>    7.1719    1.0000 </r>
       <r>    7.1735    1.0000 </r>
       <r>    7.1757    1.0000 </r>
       <r>    7.2482    1.0000 </r>
       <r>    7.2504    1.0000 </r>
       <r>    7.2527    1.0000 </r>
       <r>    7.2529    1.0000 </r>
       <r>    7.2536    1.0000 </r>
       <r>    7.2537    1.0000 </r>
       <r>    7.2544    1.0000 </r>
       <r>    7.2574    1.0000 </r>
       <r>    7.2580    1.0000 </r>
       <r>    7.3429    1.0000 </r>
       <r>    7.3481    1.0000 </r>
       <r>    7.3488    1.0000 </r>
       <r>    7.3524    1.0000 </r>
       <r>    7.6735    1.0000 </r>
       <r>    7.6794    1.0000 </r>
       <r>    7.6810    1.0000 </r>
       <r>    7.6822    1.0000 </r>
       <r>    7.6824    1.0000 </r>
       <r>    7.6826    1.0000 </r>
       <r>    7.6827    1.0000 </r>
       <r>    7.6828    1.0000 </r>
       <r>    7.6838    1.0000 </r>
       <r>    7.6839    1.0000 </r>
       <r>    7.6854    1.0000 </r>
       <r>    7.6897    1.0000 </r>
       <r>    7.7529    1.0000 </r>
       <r>    7.7531    1.0000 </r>
       <r>    7.7548    1.0000 </r>
       <r>    7.7552    1.0000 </r>
       <r>    7.7571    1.0000 </r>
       <r>    7.7577    1.0000 </r>
       <r>    7.8761    1.0000 </r>
       <r>    7.8800    1.0000 </r>
       <r>    7.8809    1.0000 </r>
       <r>    7.8810    1.0000 </r>
       <r>    7.8813    1.0000 </r>
       <r>    7.8873    1.0000 </r>
       <r>    8.1338    1.0000 </r>
       <r>    8.1381    1.0000 </r>
       <r>    8.1383    1.0000 </r>
       <r>    8.1389    1.0000 </r>
       <r>    8.1392    1.0000 </r>
       <r>    8.1425    1.0000 </r>
       <r>    8.2988    1.0000 </r>
       <r>    8.3027    1.0000 </r>
       <r>    8.3061    1.0000 </r>
       <r>    8.3068    1.0000 </r>
       <r>    8.3069    1.0000 </r>
       <r>    8.3075    1.0000 </r>
       <r>    8.3076    1.0000 </r>
       <r>    8.3076    1.0000 </r>
       <r>    8.3084    1.0000 </r>
       <r>    8.3090    1.0000 </r>
       <r>    8.3118    1.0000 </r>
       <r>    8.3165    1.0000 </r>
       <r>    8.3884    1.0000 </r>
       <r>    8.3936    1.0000 </r>
       <r>    8.3938    1.0000 </r>
       <r>    8.3941    1.0000 </r>
       <r>    8.3957    1.0000 </r>
       <r>    8.3978    1.0000 </r>
       <r>    8.5019    1.0002 </r>
       <r>    8.5053    1.0002 </r>
       <r>    8.5061    1.0002 </r>
       <r>    8.5091    1.0002 </r>
       <r>    8.6085    1.0129 </r>
       <r>    8.6104    1.0136 </r>
       <r>    8.6116    1.0141 </r>
       <r>    8.6127    1.0145 </r>
       <r>    8.6139    1.0150 </r>
       <r>    8.6142    1.0151 </r>
       <r>    8.6144    1.0152 </r>
       <r>    8.6147    1.0153 </r>
       <r>    8.6152    1.0155 </r>
       <r>    8.6167    1.0161 </r>
       <r>    8.6186    1.0169 </r>
       <r>    8.6220    1.0183 </r>
       <r>    8.8296    0.2092 </r>
       <r>    8.8325    0.1900 </r>
       <r>    8.8341    0.1798 </r>
       <r>    8.8342    0.1790 </r>
       <r>    8.8367    0.1637 </r>
       <r>    8.8369    0.1624 </r>
       <r>    8.9112   -0.0352 </r>
       <r>    8.9118   -0.0353 </r>
       <r>    8.9138   -0.0354 </r>
       <r>    8.9145   -0.0355 </r>
       <r>    8.9168   -0.0354 </r>
       <r>    8.9174   -0.0354 </r>
       <r>    9.1194   -0.0000 </r>
       <r>    9.1240   -0.0000 </r>
       <r>    9.1250   -0.0000 </r>
       <r>    9.1273   -0.0000 </r>
       <r>    9.1275   -0.0000 </r>
       <r>    9.1276   -0.0000 </r>
       <r>    9.1277   -0.0000 </r>
       <r>    9.1281   -0.0000 </r>
       <r>    9.1288   -0.0000 </r>
       <r>    9.1291   -0.0000 </r>
       <r>    9.1339   -0.0000 </r>
       <r>    9.1343   -0.0000 </r>
       <r>    9.5683   -0.0000 </r>
       <r>    9.5715   -0.0000 </r>
       <r>    9.5732   -0.0000 </r>
       <r>    9.5738   -0.0000 </r>
       <r>    9.5740   -0.0000 </r>
       <r>    9.5742   -0.0000 </r>
       <r>    9.5743   -0.0000 </r>
       <r>    9.5745   -0.0000 </r>
       <r>    9.5753   -0.0000 </r>
       <r>    9.5757   -0.0000 </r>
       <r>    9.5765   -0.0000 </r>
       <r>    9.5799   -0.0000 </r>
       <r>    9.7371   -0.0000 </r>
       <r>    9.7381   -0.0000 </r>
       <r>    9.7391   -0.0000 </r>
       <r>    9.7402   -0.0000 </r>
       <r>    9.8424   -0.0000 </r>
       <r>    9.8426   -0.0000 </r>
       <r>    9.8447   -0.0000 </r>
       <r>    9.8459   -0.0000 </r>
       <r>    9.8462   -0.0000 </r>
       <r>    9.8464   -0.0000 </r>
       <r>    9.8465   -0.0000 </r>
       <r>    9.8467   -0.0000 </r>
       <r>    9.8469   -0.0000 </r>
       <r>    9.8479   -0.0000 </r>
       <r>    9.8501   -0.0000 </r>
       <r>    9.8510   -0.0000 </r>
       <r>    9.8878   -0.0000 </r>
       <r>    9.8932   -0.0000 </r>
       <r>   10.0868   -0.0000 </r>
       <r>   10.0880   -0.0000 </r>
       <r>   10.0881   -0.0000 </r>
       <r>   10.0998   -0.0000 </r>
       <r>   10.1867   -0.0000 </r>
       <r>   10.1882   -0.0000 </r>
       <r>   10.1898   -0.0000 </r>
       <r>   10.1899   -0.0000 </r>
       <r>   10.1913   -0.0000 </r>
       <r>   10.1923   -0.0000 </r>
       <r>   10.2427   -0.0000 </r>
       <r>   10.2453   -0.0000 </r>
       <r>   10.2456   -0.0000 </r>
       <r>   10.2458   -0.0000 </r>
       <r>   10.2459   -0.0000 </r>
       <r>   10.2486   -0.0000 </r>
       <r>   10.2566   -0.0000 </r>
       <r>   10.2571   -0.0000 </r>
       <r>   10.2578   -0.0000 </r>
       <r>   10.2584   -0.0000 </r>
       <r>   10.2591   -0.0000 </r>
       <r>   10.2601   -0.0000 </r>
       <r>   10.3638   -0.0000 </r>
       <r>   10.3664   -0.0000 </r>
       <r>   10.3673   -0.0000 </r>
       <r>   10.3682   -0.0000 </r>
       <r>   10.3685   -0.0000 </r>
       <r>   10.3693   -0.0000 </r>
       <r>   10.3695   -0.0000 </r>
       <r>   10.3706   -0.0000 </r>
       <r>   10.3712   -0.0000 </r>
       <r>   10.3719   -0.0000 </r>
       <r>   10.3745   -0.0000 </r>
       <r>   10.3769   -0.0000 </r>
       <r>   10.4119   -0.0000 </r>
       <r>   10.4129   -0.0000 </r>
       <r>   10.4142   -0.0000 </r>
       <r>   10.4163   -0.0000 </r>
       <r>   10.4201   -0.0000 </r>
       <r>   10.4310   -0.0000 </r>
       <r>   10.5041   -0.0000 </r>
       <r>   10.5386   -0.0000 </r>
       <r>   10.5771   -0.0000 </r>
       <r>   10.5866   -0.0000 </r>
       <r>   10.5912   -0.0000 </r>
       <r>   10.5948   -0.0000 </r>
       <r>   10.6372   -0.0000 </r>
       <r>   10.8240   -0.0000 </r>
       <r>   10.8557   -0.0000 </r>
       <r>   10.8587   -0.0000 </r>
       <r>   10.8914   -0.0000 </r>
       <r>   10.8939   -0.0000 </r>
       <r>   12.2556    0.0000 </r>
       <r>   12.2778    0.0000 </r>
       <r>   12.2831    0.0000 </r>
       <r>   12.3087    0.0000 </r>
       <r>   12.3333    0.0000 </r>
       <r>   12.3546    0.0000 </r>
       <r>   12.3855    0.0000 </r>
       <r>   12.4324    0.0000 </r>
       <r>   12.5263    0.0000 </r>
       <r>   12.5919    0.0000 </r>
       <r>   12.7466    0.0000 </r>
       <r>   13.0517    0.0000 </r>
       <r>   13.0838    0.0000 </r>
       <r>   13.1926    0.0000 </r>
      </set>
      <set comment="kpoint 2">
       <r>    0.9746    1.0000 </r>
       <r>    2.0620    1.0000 </r>
       <r>    2.0640    1.0000 </r>
       <r>    2.1634    1.0000 </r>
       <r>    2.4898    1.0000 </r>
       <r>    2.4916    1.0000 </r>
       <r>    2.5897    1.0000 </r>
       <r>    2.5903    1.0000 </r>
       <r>    2.6093    1.0000 </r>
       <r>    2.6096    1.0000 </r>
       <r>    2.6099    1.0000 </r>
       <r>    2.6105    1.0000 </r>
       <r>    2.7265    1.0000 </r>
       <r>    2.7561    1.0000 </r>
       <r>    2.7905    1.0000 </r>
       <r>    2.7912    1.0000 </r>
       <r>    2.9307    1.0000 </r>
       <r>    2.9321    1.0000 </r>
       <r>    2.9554    1.0000 </r>
       <r>    2.9570    1.0000 </r>
       <r>    3.0198    1.0000 </r>
       <r>    3.0204    1.0000 </r>
       <r>    3.0255    1.0000 </r>
       <r>    3.0268    1.0000 </r>
       <r>    3.0295    1.0000 </r>
       <r>    3.0835    1.0000 </r>
       <r>    3.0848    1.0000 </r>
       <r>    3.0856    1.0000 </r>
       <r>    3.0870    1.0000 </r>
       <r>    3.1241    1.0000 </r>
       <r>    3.1249    1.0000 </r>
       <r>    3.1261    1.0000 </r>
       <r>    3.1268    1.0000 </r>
       <r>    3.1426    1.0000 </r>
       <r>    3.1453    1.0000 </r>
       <r>    3.1769    1.0000 </r>
       <r>    3.1773    1.0000 </r>
       <r>    3.1797    1.0000 </r>
       <r>    3.1802    1.0000 </r>
       <r>    3.3542    1.0000 </r>
       <r>    3.3546    1.0000 </r>
       <r>    3.3557    1.0000 </r>
       <r>    3.3564    1.0000 </r>
       <r>    3.3663    1.0000 </r>
       <r>    3.3690    1.0000 </r>
       <r>    3.3870    1.0000 </r>
       <r>    3.3904    1.0000 </r>
       <r>    3.4186    1.0000 </r>
       <r>    3.4295    1.0000 </r>
       <r>    3.4322    1.0000 </r>
       <r>    3.4782    1.0000 </r>
       <r>    3.5052    1.0000 </r>
       <r>    3.5069    1.0000 </r>
       <r>    3.5077    1.0000 </r>
       <r>    3.5091    1.0000 </r>
       <r>    3.5243    1.0000 </r>
       <r>    3.5266    1.0000 </r>
       <r>    3.5284    1.0000 </r>
       <r>    3.5303    1.0000 </r>
       <r>    3.5311    1.0000 </r>
       <r>    3.5325    1.0000 </r>
       <r>    3.5450    1.0000 </r>
       <r>    3.5476    1.0000 </r>
       <r>    3.5670    1.0000 </r>
       <r>    3.5691    1.0000 </r>
       <r>    3.5702    1.0000 </r>
       <r>    3.5722    1.0000 </r>
       <r>    3.7761    1.0000 </r>
       <r>    3.7795    1.0000 </r>
       <r>    3.7972    1.0000 </r>
       <r>    3.7996    1.0000 </r>
       <r>    3.8081    1.0000 </r>
       <r>    3.8098    1.0000 </r>
       <r>    3.8405    1.0000 </r>
       <r>    3.8416    1.0000 </r>
       <r>    3.8434    1.0000 </r>
       <r>    3.8443    1.0000 </r>
       <r>    3.9280    1.0000 </r>
       <r>    3.9311    1.0000 </r>
       <r>    3.9437    1.0000 </r>
       <r>    3.9452    1.0000 </r>
       <r>    3.9993    1.0000 </r>
       <r>    4.0000    1.0000 </r>
       <r>    4.0015    1.0000 </r>
       <r>    4.0021    1.0000 </r>
       <r>    4.0060    1.0000 </r>
       <r>    4.0076    1.0000 </r>
       <r>    4.0087    1.0000 </r>
       <r>    4.0107    1.0000 </r>
       <r>    4.0496    1.0000 </r>
       <r>    4.0518    1.0000 </r>
       <r>    4.0525    1.0000 </r>
       <r>    4.0546    1.0000 </r>
       <r>    4.0855    1.0000 </r>
       <r>    4.0872    1.0000 </r>
       <r>    4.0943    1.0000 </r>
       <r>    4.0966    1.0000 </r>
       <r>    4.0978    1.0000 </r>
       <r>    4.1005    1.0000 </r>
       <r>    4.1097    1.0000 </r>
       <r>    4.1112    1.0000 </r>
       <r>    4.1433    1.0000 </r>
       <r>    4.1453    1.0000 </r>
       <r>    4.2534    1.0000 </r>
       <r>    4.2555    1.0000 </r>
       <r>    4.2570    1.0000 </r>
       <r>    4.2583    1.0000 </r>
       <r>    4.2621    1.0000 </r>
       <r>    4.2646    1.0000 </r>
       <r>    4.3325    1.0000 </r>
       <r>    4.3337    1.0000 </r>
       <r>    4.3794    1.0000 </r>
       <r>    4.3815    1.0000 </r>
       <r>    4.3843    1.0000 </r>
       <r>    4.3844    1.0000 </r>
       <r>    4.3870    1.0000 </r>
       <r>    4.3887    1.0000 </r>
       <r>    4.3892    1.0000 </r>
       <r>    4.3922    1.0000 </r>
       <r>    4.4043    1.0000 </r>
       <r>    4.4073    1.0000 </r>
       <r>    4.4352    1.0000 </r>
       <r>    4.5639    1.0000 </r>
       <r>    4.5659    1.0000 </r>
       <r>    4.5674    1.0000 </r>
       <r>    4.5692    1.0000 </r>
       <r>    4.5735    1.0000 </r>
       <r>    4.5754    1.0000 </r>
       <r>    4.5765    1.0000 </r>
       <r>    4.5774    1.0000 </r>
       <r>    4.6238    1.0000 </r>
       <r>    4.6270    1.0000 </r>
       <r>    4.6275    1.0000 </r>
       <r>    4.6304    1.0000 </r>
       <r>    4.6917    1.0000 </r>
       <r>    4.6946    1.0000 </r>
       <r>    4.7214    1.0000 </r>
       <r>    4.7233    1.0000 </r>
       <r>    4.7488    1.0000 </r>
       <r>    4.7495    1.0000 </r>
       <r>    4.7509    1.0000 </r>
       <r>    4.7518    1.0000 </r>
       <r>    4.8221    1.0000 </r>
       <r>    4.8240    1.0000 </r>
       <r>    4.8365    1.0000 </r>
       <r>    4.8383    1.0000 </r>
       <r>    5.0264    1.0000 </r>
       <r>    5.0289    1.0000 </r>
       <r>    5.0300    1.0000 </r>
       <r>    5.0324    1.0000 </r>
       <r>    5.0804    1.0000 </r>
       <r>    5.0836    1.0000 </r>
       <r>    5.1946    1.0000 </r>
       <r>    5.1991    1.0000 </r>
       <r>    5.2013    1.0000 </r>
       <r>    5.2064    1.0000 </r>
       <r>    5.2073    1.0000 </r>
       <r>    5.2214    1.0000 </r>
       <r>    5.2242    1.0000 </r>
       <r>    5.3100    1.0000 </r>
       <r>    5.3115    1.0000 </r>
       <r>    5.3147    1.0000 </r>
       <r>    5.3169    1.0000 </r>
       <r>    5.3275    1.0000 </r>
       <r>    5.3288    1.0000 </r>
       <r>    5.3302    1.0000 </r>
       <r>    5.3317    1.0000 </r>
       <r>    5.3586    1.0000 </r>
       <r>    5.3609    1.0000 </r>
       <r>    5.3637    1.0000 </r>
       <r>    5.3648    1.0000 </r>
       <r>    5.3905    1.0000 </r>
       <r>    5.3915    1.0000 </r>
       <r>    5.3932    1.0000 </r>
       <r>    5.3947    1.0000 </r>
       <r>    5.4035    1.0000 </r>
       <r>    5.4047    1.0000 </r>
       <r>    5.4067    1.0000 </r>
       <r>    5.4079    1.0000 </r>
       <r>    5.4162    1.0000 </r>
       <r>    5.4177    1.0000 </r>
       <r>    5.4999    1.0000 </r>
       <r>    5.6309    1.0000 </r>
       <r>    5.6324    1.0000 </r>
       <r>    5.6347    1.0000 </r>
       <r>    5.6353    1.0000 </r>
       <r>    5.6656    1.0000 </r>
       <r>    5.6679    1.0000 </r>
       <r>    5.6810    1.0000 </r>
       <r>    5.6825    1.0000 </r>
       <r>    5.6839    1.0000 </r>
       <r>    5.6854    1.0000 </r>
       <r>    5.6881    1.0000 </r>
       <r>    5.7309    1.0000 </r>
       <r>    5.7328    1.0000 </r>
       <r>    5.7355    1.0000 </r>
       <r>    5.7371    1.0000 </r>
       <r>    5.7549    1.0000 </r>
       <r>    5.7556    1.0000 </r>
       <r>    5.7567    1.0000 </r>
       <r>    5.7583    1.0000 </r>
       <r>    5.7851    1.0000 </r>
       <r>    5.7858    1.0000 </r>
       <r>    5.7878    1.0000 </r>
       <r>    5.7885    1.0000 </r>
       <r>    5.7896    1.0000 </r>
       <r>    5.8217    1.0000 </r>
       <r>    5.8223    1.0000 </r>
       <r>    5.8694    1.0000 </r>
       <r>    5.8710    1.0000 </r>
       <r>    5.8719    1.0000 </r>
       <r>    5.8740    1.0000 </r>
       <r>    5.9623    1.0000 </r>
       <r>    5.9630    1.0000 </r>
       <r>    5.9642    1.0000 </r>
       <r>    5.9661    1.0000 </r>
       <r>    5.9918    1.0000 </r>
       <r>    6.0312    1.0000 </r>
       <r>    6.0338    1.0000 </r>
       <r>    6.0341    1.0000 </r>
       <r>    6.0363    1.0000 </r>
       <r>    6.1588    1.0000 </r>
       <r>    6.1598    1.0000 </r>
       <r>    6.2053    1.0000 </r>
       <r>    6.2377    1.0000 </r>
       <r>    6.2387    1.0000 </r>
       <r>    6.2630    1.0000 </r>
       <r>    6.3823    1.0000 </r>
       <r>    6.3830    1.0000 </r>
       <r>    6.4071    1.0000 </r>
       <r>    6.4100    1.0000 </r>
       <r>    6.4170    1.0000 </r>
       <r>    6.4187    1.0000 </r>
       <r>    6.4237    1.0000 </r>
       <r>    6.4262    1.0000 </r>
       <r>    6.4285    1.0000 </r>
       <r>    6.4521    1.0000 </r>
       <r>    6.4551    1.0000 </r>
       <r>    6.4576    1.0000 </r>
       <r>    6.4583    1.0000 </r>
       <r>    6.4604    1.0000 </r>
       <r>    6.4617    1.0000 </r>
       <r>    6.4719    1.0000 </r>
       <r>    6.4743    1.0000 </r>
       <r>    6.4894    1.0000 </r>
       <r>    6.4919    1.0000 </r>
       <r>    6.4939    1.0000 </r>
       <r>    6.4968    1.0000 </r>
       <r>    6.5105    1.0000 </r>
       <r>    6.5113    1.0000 </r>
       <r>    6.5130    1.0000 </r>
       <r>    6.5138    1.0000 </r>
       <r>    6.5562    1.0000 </r>
       <r>    6.5712    1.0000 </r>
       <r>    6.5921    1.0000 </r>
       <r>    6.5937    1.0000 </r>
       <r>    6.6397    1.0000 </r>
       <r>    6.6435    1.0000 </r>
       <r>    6.6688    1.0000 </r>
       <r>    6.6730    1.0000 </r>
       <r>    6.6762    1.0000 </r>
       <r>    6.6811    1.0000 </r>
       <r>    6.6830    1.0000 </r>
       <r>    6.6843    1.0000 </r>
       <r>    6.6856    1.0000 </r>
       <r>    6.7084    1.0000 </r>
       <r>    6.7137    1.0000 </r>
       <r>    6.7269    1.0000 </r>
       <r>    6.7279    1.0000 </r>
       <r>    6.7306    1.0000 </r>
       <r>    6.7313    1.0000 </r>
       <r>    6.7490    1.0000 </r>
       <r>    6.7615    1.0000 </r>
       <r>    6.7635    1.0000 </r>
       <r>    6.7651    1.0000 </r>
[...]
       <r>     1.4769     4.1660     1.7215 </r>
       <r>     1.5283     7.0674     2.0847 </r>
       <r>     1.5797     7.9086     2.4911 </r>
       <r>     1.6310     6.1233     2.8057 </r>
       <r>     1.6824     4.4650     3.0352 </r>
       <r>     1.7338     5.4147     3.3134 </r>
       <r>     1.7852     6.9479     3.6704 </r>
       <r>     1.8366     6.3336     3.9959 </r>
       <r>     1.8880     5.7291     4.2903 </r>
       <r>     1.9394     6.9472     4.6473 </r>
       <r>     1.9907     8.3836     5.0781 </r>
       <r>     2.0421     9.1339     5.5474 </r>
       <r>     2.0935     9.2300     6.0217 </r>
       <r>     2.1449     9.5523     6.5126 </r>
       <r>     2.1963    11.1452     7.0853 </r>
       <r>     2.2477    10.7534     7.6379 </r>
       <r>     2.2991     6.5294     7.9734 </r>
       <r>     2.3504     3.8724     8.1724 </r>
       <r>     2.4018     6.9443     8.5292 </r>
       <r>     2.4532    13.6321     9.2297 </r>
       <r>     2.5046    18.6504    10.1881 </r>
       <r>     2.5560    20.8936    11.2617 </r>
       <r>     2.6074    25.7839    12.5867 </r>
       <r>     2.6588    33.6834    14.3175 </r>
       <r>     2.7101    40.9896    16.4238 </r>
       <r>     2.7615    52.3572    19.1142 </r>
       <r>     2.8129    70.2870    22.7260 </r>
       <r>     2.8643    86.3209    27.1617 </r>
       <r>     2.9157    99.3671    32.2678 </r>
       <r>     2.9671   114.5345    38.1532 </r>
       <r>     3.0185   128.1636    44.7391 </r>
       <r>     3.0698   135.5230    51.7031 </r>
       <r>     3.1212   133.9411    58.5858 </r>
       <r>     3.1726   126.6706    65.0949 </r>
       <r>     3.2240   122.3568    71.3823 </r>
       <r>     3.2754   134.5602    78.2968 </r>
       <r>     3.3268   161.0010    86.5700 </r>
       <r>     3.3782   172.5816    95.4383 </r>
       <r>     3.4295   163.2820   103.8287 </r>
       <r>     3.4809   159.1445   112.0065 </r>
       <r>     3.5323   166.6492   120.5700 </r>
       <r>     3.5837   162.6454   128.9277 </r>
       <r>     3.6351   144.4957   136.3527 </r>
       <r>     3.6865   135.5880   143.3201 </r>
       <r>     3.7379   132.2354   150.1151 </r>
       <r>     3.7893   121.0281   156.3343 </r>
       <r>     3.8406   111.5284   162.0653 </r>
       <r>     3.8920   107.8799   167.6088 </r>
       <r>     3.9434   105.5516   173.0327 </r>
       <r>     3.9948   106.3066   178.4953 </r>
       <r>     4.0462   106.2917   183.9572 </r>
       <r>     4.0976   102.5775   189.2283 </r>
       <r>     4.1490    98.1817   194.2735 </r>
       <r>     4.2003    96.3421   199.2241 </r>
       <r>     4.2517   109.8447   204.8686 </r>
       <r>     4.3031   135.4329   211.8280 </r>
       <r>     4.3545   148.0229   219.4343 </r>
       <r>     4.4059   144.8530   226.8777 </r>
       <r>     4.4573   139.9350   234.0684 </r>
       <r>     4.5087   136.5792   241.0867 </r>
       <r>     4.5600   133.7891   247.9615 </r>
       <r>     4.6114   128.6224   254.5709 </r>
       <r>     4.6628   116.3158   260.5480 </r>
       <r>     4.7142   106.4218   266.0165 </r>
       <r>     4.7656   108.4281   271.5882 </r>
       <r>     4.8170   118.6398   277.6847 </r>
       <r>     4.8684   130.9681   284.4146 </r>
       <r>     4.9197   139.0108   291.5578 </r>
       <r>     4.9711   141.4840   298.8281 </r>
       <r>     5.0225   137.3417   305.8856 </r>
       <r>     5.0739   123.8917   312.2519 </r>
       <r>     5.1253   120.0518   318.4209 </r>
       <r>     5.1767   144.4665   325.8444 </r>
       <r>     5.2281   163.2870   334.2351 </r>
       <r>     5.2794   142.8076   341.5734 </r>
       <r>     5.3308   110.7144   347.2626 </r>
       <r>     5.3822    96.5287   352.2228 </r>
       <r>     5.4336    88.3793   356.7643 </r>
       <r>     5.4850    73.9025   360.5618 </r>
       <r>     5.5364    55.7843   363.4284 </r>
       <r>     5.5878    42.9893   365.6374 </r>
       <r>     5.6391    54.0853   368.4166 </r>
       <r>     5.6905    91.0108   373.0933 </r>
       <r>     5.7419   126.6463   379.6012 </r>
       <r>     5.7933   148.1769   387.2154 </r>
       <r>     5.8447   167.9135   395.8438 </r>
       <r>     5.8961   182.0849   405.2004 </r>
       <r>     5.9475   185.5145   414.7333 </r>
       <r>     5.9989   190.9559   424.5458 </r>
       <r>     6.0502   192.1635   434.4203 </r>
       <r>     6.1016   179.1454   443.6259 </r>
       <r>     6.1530   156.4125   451.6633 </r>
       <r>     6.2044   134.2446   458.5616 </r>
       <r>     6.2558   123.8153   464.9239 </r>
       <r>     6.3072   121.4629   471.1654 </r>
       <r>     6.3586   120.1110   477.3375 </r>
       <r>     6.4099   125.8733   483.8056 </r>
       <r>     6.4613   143.2229   491.1653 </r>
       <r>     6.5127   164.2055   499.6031 </r>
       <r>     6.5641   186.3646   509.1797 </r>
       <r>     6.6155   202.9758   519.6098 </r>
       <r>     6.6669   193.2759   529.5415 </r>
       <r>     6.7183   163.2359   537.9295 </r>
       <r>     6.7696   141.6624   545.2090 </r>
       <r>     6.8210   135.4238   552.1679 </r>
       <r>     6.8724   131.6023   558.9304 </r>
       <r>     6.9238   126.3757   565.4243 </r>
       <r>     6.9752   129.9028   572.0995 </r>
       <r>     7.0266   140.3728   579.3127 </r>
       <r>     7.0780   149.4942   586.9947 </r>
       <r>     7.1293   159.1913   595.1749 </r>
       <r>     7.1807   167.5061   603.7823 </r>
       <r>     7.2321   169.5020   612.4924 </r>
       <r>     7.2835   167.4411   621.0965 </r>
       <r>     7.3349   163.7276   629.5098 </r>
       <r>     7.3863   155.3690   637.4936 </r>
       <r>     7.4377   133.9405   644.3763 </r>
       <r>     7.4890   113.4427   650.2057 </r>
       <r>     7.5404   119.4701   656.3448 </r>
       <r>     7.5918   133.3720   663.1982 </r>
       <r>     7.6432   123.7036   669.5549 </r>
       <r>     7.6946   102.5380   674.8239 </r>
       <r>     7.7460    95.8271   679.7481 </r>
       <r>     7.7974   103.4913   685.0661 </r>
       <r>     7.8487   107.6927   690.6000 </r>
       <r>     7.9001   101.2139   695.8009 </r>
       <r>     7.9515    89.1867   700.3839 </r>
       <r>     8.0029    76.6889   704.3246 </r>
       <r>     8.0543    72.0967   708.0294 </r>
       <r>     8.1057    74.7525   711.8706 </r>
       <r>     8.1571    76.8932   715.8219 </r>
       <r>     8.2085    82.8495   720.0792 </r>
       <r>     8.2598    97.8981   725.1098 </r>
       <r>     8.3112   116.0597   731.0736 </r>
       <r>     8.3626   123.0655   737.3975 </r>
       <r>     8.4140   111.2394   743.1136 </r>
       <r>     8.4654    86.9096   747.5796 </r>
       <r>     8.5168    69.3633   751.1439 </r>
       <r>     8.5682    69.4122   754.7107 </r>
       <r>     8.6195    67.6940   758.1892 </r>
       <r>     8.6709    51.6246   760.8420 </r>
       <r>     8.7223    43.4025   763.0723 </r>
       <r>     8.7737    63.3206   766.3261 </r>
       <r>     8.8251   100.6977   771.5005 </r>
       <r>     8.8765   126.0974   777.9802 </r>
       <r>     8.9279   120.9807   784.1969 </r>
       <r>     8.9792    94.3666   789.0460 </r>
       <r>     9.0306    71.0308   792.6960 </r>
       <r>     9.0820    62.0947   795.8868 </r>
       <r>     9.1334    65.2600   799.2403 </r>
       <r>     9.1848    75.3387   803.1116 </r>
       <r>     9.2362    80.9826   807.2730 </r>
       <r>     9.2876    79.9763   811.3827 </r>
       <r>     9.3389    81.7707   815.5845 </r>
       <r>     9.3903    95.3821   820.4858 </r>
       <r>     9.4417   117.8118   826.5397 </r>
       <r>     9.4931   128.9743   833.1672 </r>
       <r>     9.5445   126.8057   839.6832 </r>
       <r>     9.5959   129.1812   846.3214 </r>
       <r>     9.6473   137.0773   853.3652 </r>
       <r>     9.6986   135.5879   860.3325 </r>
       <r>     9.7500   117.7286   866.3821 </r>
       <r>     9.8014   105.6144   871.8092 </r>
       <r>     9.8528   128.3466   878.4045 </r>
       <r>     9.9042   170.6150   887.1717 </r>
       <r>     9.9556   187.7194   896.8179 </r>
       <r>    10.0070   172.0437   905.6585 </r>
       <r>    10.0583   160.0332   913.8820 </r>
       <r>    10.1097   172.3381   922.7377 </r>
       <r>    10.1611   194.1004   932.7118 </r>
       <r>    10.2125   210.8474   943.5464 </r>
       <r>    10.2639   217.5133   954.7236 </r>
       <r>    10.3153   213.2883   965.6836 </r>
       <r>    10.3667   200.3966   975.9812 </r>
       <r>    10.4181   173.1270   984.8775 </r>
       <r>    10.4694   138.7534   992.0075 </r>
       <r>    10.5208   107.6710   997.5403 </r>
       <r>    10.5722    74.3158  1001.3591 </r>
       <r>    10.6236    43.0019  1003.5688 </r>
       <r>    10.6750    23.8040  1004.7920 </r>
       <r>    10.7264    15.4615  1005.5865 </r>
       <r>    10.7778    11.1425  1006.1590 </r>
       <r>    10.8291     8.1248  1006.5765 </r>
       <r>    10.8805     7.9523  1006.9852 </r>
       <r>    10.9319    10.0268  1007.5004 </r>
       <r>    10.9833    10.3118  1008.0303 </r>
       <r>    11.0347     8.0635  1008.4446 </r>
       <r>    11.0861     5.9656  1008.7512 </r>
       <r>    11.1375     4.9174  1009.0039 </r>
       <r>    11.1888     4.5392  1009.2371 </r>
       <r>    11.2402     4.6136  1009.4742 </r>
       <r>    11.2916     4.5943  1009.7103 </r>
       <r>    11.3430     4.3458  1009.9336 </r>
       <r>    11.3944     5.1729  1010.1994 </r>
       <r>    11.4458     8.2023  1010.6209 </r>
       <r>    11.4972    10.9529  1011.1837 </r>
       <r>    11.5485     9.5033  1011.6721 </r>
       <r>    11.5999     5.5345  1011.9565 </r>
       <r>    11.6513     3.9051  1012.1571 </r>
       <r>    11.7027     4.9343  1012.4107 </r>
       <r>    11.7541     5.6117  1012.6991 </r>
       <r>    11.8055     5.1884  1012.9657 </r>
       <r>    11.8569     5.0083  1013.2230 </r>
       <r>    11.9082     5.1571  1013.4880 </r>
       <r>    11.9596     5.1810  1013.7543 </r>
       <r>    12.0110     5.5638  1014.0402 </r>
       <r>    12.0624     5.9423  1014.3455 </r>
       <r>    12.1138     5.7621  1014.6416 </r>
       <r>    12.1652     5.8000  1014.9396 </r>
       <r>    12.2166     6.6747  1015.2826 </r>
       <r>    12.2679     8.1040  1015.6991 </r>
       <r>    12.3193     9.2349  1016.1736 </r>
       <r>    12.3707     9.7860  1016.6765 </r>
       <r>    12.4221    10.5147  1017.2168 </r>
       <r>    12.4735    11.3173  1017.7983 </r>
       <r>    12.5249    11.4874  1018.3886 </r>
       <r>    12.5763    10.2772  1018.9167 </r>
       <r>    12.6277     7.4642  1019.3003 </r>
       <r>    12.6790     5.1188  1019.5633 </r>
       <r>    12.7304     5.4157  1019.8416 </r>
       <r>    12.7818     6.6223  1020.1819 </r>
       <r>    12.8332     6.0255  1020.4915 </r>
       <r>    12.8846     4.6710  1020.7315 </r>
       <r>    12.9360     3.9543  1020.9347 </r>
       <r>    12.9874     3.2268  1021.1006 </r>
       <r>    13.0387     3.1004  1021.2599 </r>
       <r>    13.0901     4.2557  1021.4786 </r>
       <r>    13.1415     5.2912  1021.7505 </r>
       <r>    13.1929     5.1974  1022.0175 </r>
       <r>    13.2443     4.8607  1022.2673 </r>
       <r>    13.2957     4.6735  1022.5074 </r>
       <r>    13.3471     3.6817  1022.6966 </r>
       <r>    13.3984     2.1839  1022.8089 </r>
       <r>    13.4498     1.4366  1022.8827 </r>
       <r>    13.5012     1.4284  1022.9561 </r>
       <r>    13.5526     1.7298  1023.0450 </r>
       <r>    13.6040     2.4899  1023.1729 </r>
       <r>    13.6554     3.5232  1023.3540 </r>
       <r>    13.7068     3.8116  1023.5498 </r>
       <r>    13.7581     2.5771  1023.6822 </r>
       <r>    13.8095     0.8403  1023.7254 </r>
       <r>    13.8609     0.3743  1023.7447 </r>
       <r>    13.9123     1.1840  1023.8055 </r>
       <r>    13.9637     1.6195  1023.8887 </r>
       <r>    14.0151     0.9528  1023.9377 </r>
       <r>    14.0665     0.2149  1023.9487 </r>
       <r>    14.1178     0.0631  1023.9520 </r>
       <r>    14.1692     0.1372  1023.9590 </r>
       <r>    14.2206     0.1992  1023.9692 </r>
       <r>    14.2720     0.2566  1023.9824 </r>
       <r>    14.3234     0.2317  1023.9943 </r>
       <r>    14.3748     0.1130  1024.0001 </r>
       <r>    14.4262     0.0145  1024.0009 </r>
       <r>    14.4775    -0.0108  1024.0003 </r>
       <r>    14.5289    -0.0053  1024.0001 </r>
       <r>    14.5803    -0.0010  1024.0000 </r>
       <r>    14.6317    -0.0001  1024.0000 </r>
       <r>    14.6831    -0.0000  1024.0000 </r>
       <r>    14.7345    -0.0000  1024.0000 </r>
       <r>    14.7859    -0.0000  1024.0000 </r>
       <r>    14.8373    -0.0000  1024.0000 </r>
       <r>    14.8886    -0.0000  1024.0000 </r>
       <r>    14.9400    -0.0000  1024.0000 </r>
       <r>    14.9914     0.0000  1024.0000 </r>
       <r>    15.0428     0.0000  1024.0000 </r>
       <r>    15.0942     0.0000  1024.0000 </r>
       <r>    15.1456     0.0000  1024.0000 </r>
       <r>    15.1970     0.0000  1024.0000 </r>
       <r>    15.2483     0.0000  1024.0000 </r>
       <r>    15.2997     0.0000  1024.0000 </r>
      </set>
     </set>
    </array>
   </total>
  </dos>
 </calculation>
 <structure name="finalpos" >
  <crystal>
   <varray name="basis" >
    <v>       5.44598000      -9.43244000       0.00000000 </v>
    <v>     -10.89172000       0.00014000       0.00000000 </v>
    <v>       0.00000000       0.00000000     -12.87993000 </v>
   </varray>
   <i name="volume">   1323.21616909 </i>
   <varray name="rec_basis" >
    <v>      -0.00000136      -0.10601789       0.00000000 </v>
    <v>      -0.09181354      -0.05301011       0.00000000 </v>
    <v>       0.00000000       0.00000000      -0.07764017 </v>
   </varray>
  </crystal>
  <varray name="positions" >
   <v>       0.16666000       0.33334000       0.58333333 </v>
   <v>       0.33334000       0.16666000       0.41666667 </v>
   <v>       0.16666000       0.08334000       0.58333333 </v>
   <v>       0.41666000       0.08334000       0.58333333 </v>
   <v>       0.41666000       0.33334000       0.58333333 </v>
   <v>       0.33334000       0.41666000       0.41666667 </v>
   <v>       0.08334000       0.16666000       0.41666667 </v>
   <v>       0.08334000       0.41666000       0.41666667 </v>
   <v>       0.16666000       0.83334000       0.58333333 </v>
   <v>       0.33334000       0.66666000       0.41666667 </v>
   <v>       0.16666000       0.58334000       0.58333333 </v>
   <v>       0.41666000       0.58334000       0.58333333 </v>
   <v>       0.41666000       0.83334000       0.58333333 </v>
   <v>       0.33334000       0.91666000       0.41666667 </v>
   <v>       0.08334000       0.66666000       0.41666667 </v>
   <v>       0.08334000       0.91666000       0.41666667 </v>
   <v>       0.66666000       0.33334000       0.58333333 </v>
   <v>       0.83334000       0.16666000       0.41666667 </v>
   <v>       0.66666000       0.08334000       0.58333333 </v>
   <v>       0.91666000       0.08334000       0.58333333 </v>
   <v>       0.91666000       0.33334000       0.58333333 </v>
   <v>       0.83334000       0.41666000       0.41666667 </v>
   <v>       0.58334000       0.16666000       0.41666667 </v>
   <v>       0.58334000       0.41666000       0.41666667 </v>
   <v>       0.66666000       0.83334000       0.58333333 </v>
   <v>       0.83334000       0.66666000       0.41666667 </v>
   <v>       0.66666000       0.58334000       0.58333333 </v>
   <v>       0.91666000       0.58334000       0.58333333 </v>
   <v>       0.91666000       0.83334000       0.58333333 </v>
   <v>       0.83334000       0.91666000       0.41666667 </v>
   <v>       0.58334000       0.66666000       0.41666667 </v>
   <v>       0.58334000       0.91666000       0.41666667 </v>
   <v>       0.16666000       0.33334000       0.25000000 </v>
   <v>       0.33334000       0.16666000       0.08333333 </v>
   <v>       0.16666000       0.08334000       0.25000000 </v>
   <v>       0.41666000       0.08334000       0.25000000 </v>
   <v>       0.41666000       0.33334000       0.25000000 </v>
   <v>       0.33334000       0.41666000       0.08333333 </v>
   <v>       0.08334000       0.16666000       0.08333333 </v>
   <v>       0.08334000       0.41666000       0.08333333 </v>
   <v>       0.16666000       0.83334000       0.25000000 </v>
   <v>       0.33334000       0.66666000       0.08333333 </v>
   <v>       0.16666000       0.58334000       0.25000000 </v>
   <v>       0.41666000       0.58334000       0.25000000 </v>
   <v>       0.41666000       0.83334000       0.25000000 </v>
   <v>       0.33334000       0.91666000       0.08333333 </v>
   <v>       0.08334000       0.66666000       0.08333333 </v>
   <v>       0.08334000       0.91666000       0.08333333 </v>
   <v>       0.66666000       0.33334000       0.25000000 </v>
   <v>       0.83334000       0.16666000       0.08333333 </v>
   <v>       0.66666000       0.08334000       0.25000000 </v>
   <v>       0.91666000       0.08334000       0.25000000 </v>
   <v>       0.91666000       0.33334000       0.25000000 </v>
   <v>       0.83334000       0.41666000       0.08333333 </v>
   <v>       0.58334000       0.16666000       0.08333333 </v>
   <v>       0.58334000       0.41666000       0.08333333 </v>
   <v>       0.66666000       0.83334000       0.25000000 </v>
   <v>       0.83334000       0.66666000       0.08333333 </v>
   <v>       0.66666000       0.58334000       0.25000000 </v>
   <v>       0.91666000       0.58334000       0.25000000 </v>
   <v>       0.91666000       0.83334000       0.25000000 </v>
   <v>       0.83334000       0.91666000       0.08333333 </v>
   <v>       0.58334000       0.66666000       0.08333333 </v>
   <v>       0.58334000       0.91666000       0.08333333 </v>
   <v>       0.16666000       0.33334000       0.91666667 </v>
   <v>       0.33334000       0.16666000       0.75000000 </v>
   <v>       0.16666000       0.08334000       0.91666667 </v>
   <v>       0.41666000       0.08334000       0.91666667 </v>
   <v>       0.41666000       0.33334000       0.91666667 </v>
   <v>       0.33334000       0.41666000       0.75000000 </v>
   <v>       0.08334000       0.16666000       0.75000000 </v>
   <v>       0.08334000       0.41666000       0.75000000 </v>
   <v>       0.16666000       0.83334000       0.91666667 </v>
   <v>       0.33334000       0.66666000       0.75000000 </v>
   <v>       0.16666000       0.58334000       0.91666667 </v>
   <v>       0.41666000       0.58334000       0.91666667 </v>
   <v>       0.41666000       0.83334000       0.91666667 </v>
   <v>       0.33334000       0.91666000       0.75000000 </v>
   <v>       0.08334000       0.66666000       0.75000000 </v>
   <v>       0.08334000       0.91666000       0.75000000 </v>
   <v>       0.66666000       0.33334000       0.91666667 </v>
   <v>       0.83334000       0.16666000       0.75000000 </v>
   <v>       0.66666000       0.08334000       0.91666667 </v>
   <v>       0.91666000       0.08334000       0.91666667 </v>
   <v>       0.91666000       0.33334000       0.91666667 </v>
   <v>       0.83334000       0.41666000       0.75000000 </v>
   <v>       0.58334000       0.16666000       0.75000000 </v>
   <v>       0.58334000       0.41666000       0.75000000 </v>
   <v>       0.66516000       0.83484000       0.91886333 </v>
   <v>       0.83334000       0.66666000       0.75000000 </v>
   <v>       0.66666000       0.58334000       0.91666667 </v>
   <v>       0.91666000       0.58334000       0.91666667 </v>
   <v>       0.91666000       0.83334000       0.91666667 </v>
   <v>       0.83334000       0.91666000       0.75000000 </v>
   <v>       0.58334000       0.66666000       0.75000000 </v>
   <v>       0.58334000       0.91666000       0.75000000 </v>
  </varray>
 </structure>
</modeling>
