 256 256   0   0
  0.1418917E+02  0.1588033E-08  0.1692661E-08  0.1693229E-08  0.5000000E-15
  1.000000000000000E-004
  CAR 
 Ir_Ru                                   
     14.28119102     -1.29250422  301      9.45706709      1.00000000
     -1.293  0.0000E+00  0.0000E+00
     -1.241  0.0000E+00  0.0000E+00
     -1.189  0.0000E+00  0.0000E+00
     -1.137 -0.2823E-30 -0.1465E-31
     -1.085 -0.1297E-26 -0.6733E-28
     -1.033 -0.3460E-23 -0.1797E-24
     -0.981 -0.5360E-20 -0.2784E-21
     -0.929 -0.4815E-17 -0.2502E-18
     -0.877 -0.2447E-14 -0.1273E-15
     -0.825 -0.7290E-12 -0.3797E-13
     -0.773 -0.1259E-09 -0.6573E-11
     -0.721 -0.1250E-07 -0.6555E-09
     -0.670 -0.7109E-06 -0.3756E-07
     -0.618 -0.2302E-04 -0.1233E-05
     -0.566 -0.4215E-03 -0.2311E-04
     -0.514 -0.4320E-02 -0.2474E-03
     -0.462 -0.2453E-01 -0.1521E-02
     -0.410 -0.7563E-01 -0.5447E-02
     -0.358 -0.1017E+00 -0.1072E-01
     -0.306  0.2114E+00  0.2512E-03
     -0.254  0.1659E+01  0.8637E-01
     -0.202  0.4425E+01  0.3161E+00
     -0.150  0.6363E+01  0.6464E+00
     -0.099  0.6424E+01  0.9798E+00
     -0.047  0.6981E+01  0.1342E+01
      0.005  0.8888E+01  0.1804E+01
      0.057  0.1121E+02  0.2386E+01
      0.109  0.1364E+02  0.3094E+01
      0.161  0.1433E+02  0.3838E+01
      0.213  0.1166E+02  0.4443E+01
      0.265  0.1010E+02  0.4967E+01
      0.317  0.1438E+02  0.5714E+01
      0.369  0.2042E+02  0.6774E+01
      0.421  0.2256E+02  0.7945E+01
      0.473  0.2277E+02  0.9127E+01
      0.524  0.2354E+02  0.1035E+02
      0.576  0.2248E+02  0.1152E+02
      0.628  0.2047E+02  0.1258E+02
      0.680  0.2108E+02  0.1367E+02
      0.732  0.2028E+02  0.1473E+02
      0.784  0.1437E+02  0.1547E+02
      0.836  0.8733E+01  0.1593E+02
      0.888  0.7993E+01  0.1634E+02
      0.940  0.1176E+02  0.1695E+02
      0.992  0.1907E+02  0.1794E+02
      1.044  0.2801E+02  0.1940E+02
      1.095  0.3337E+02  0.2113E+02
      1.147  0.3302E+02  0.2284E+02
      1.199  0.2876E+02  0.2433E+02
      1.251  0.2276E+02  0.2552E+02
      1.303  0.1943E+02  0.2652E+02
      1.355  0.2172E+02  0.2765E+02
      1.407  0.2725E+02  0.2907E+02
      1.459  0.3037E+02  0.3064E+02
      1.511  0.2979E+02  0.3219E+02
      1.563  0.2931E+02  0.3371E+02
      1.615  0.3042E+02  0.3529E+02
      1.666  0.3114E+02  0.3691E+02
      1.718  0.3204E+02  0.3857E+02
      1.770  0.3501E+02  0.4039E+02
      1.822  0.3915E+02  0.4242E+02
      1.874  0.4566E+02  0.4479E+02
      1.926  0.5482E+02  0.4764E+02
      1.978  0.5932E+02  0.5072E+02
      2.030  0.5462E+02  0.5355E+02
      2.082  0.5054E+02  0.5617E+02
      2.134  0.6195E+02  0.5939E+02
      2.186  0.8734E+02  0.6393E+02
      2.238  0.1090E+03  0.6958E+02
      2.289  0.1198E+03  0.7581E+02
      2.341  0.1260E+03  0.8235E+02
      2.393  0.1317E+03  0.8919E+02
      2.445  0.1377E+03  0.9634E+02
      2.497  0.1475E+03  0.1040E+03
      2.549  0.1649E+03  0.1126E+03
      2.601  0.1833E+03  0.1221E+03
      2.653  0.1951E+03  0.1322E+03
      2.705  0.2072E+03  0.1430E+03
      2.757  0.2241E+03  0.1546E+03
      2.809  0.2306E+03  0.1666E+03
      2.860  0.2241E+03  0.1782E+03
      2.912  0.2277E+03  0.1900E+03
      2.964  0.2454E+03  0.2028E+03
      3.016  0.2579E+03  0.2161E+03
      3.068  0.2598E+03  0.2296E+03
      3.120  0.2605E+03  0.2432E+03
      3.172  0.2641E+03  0.2569E+03
      3.224  0.2732E+03  0.2710E+03
      3.276  0.2882E+03  0.2860E+03
      3.328  0.3074E+03  0.3020E+03
      3.380  0.3243E+03  0.3188E+03
      3.432  0.3306E+03  0.3360E+03
      3.483  0.3275E+03  0.3530E+03
      3.535  0.3211E+03  0.3696E+03
      3.587  0.3180E+03  0.3861E+03
      3.639  0.3163E+03  0.4026E+03
      3.691  0.3108E+03  0.4187E+03
      3.743  0.3050E+03  0.4345E+03
      3.795  0.3010E+03  0.4502E+03
      3.847  0.2967E+03  0.4656E+03
      3.899  0.2931E+03  0.4808E+03
      3.951  0.2883E+03  0.4957E+03
      4.003  0.2758E+03  0.5101E+03
      4.054  0.2665E+03  0.5239E+03
      4.106  0.2762E+03  0.5382E+03
      4.158  0.2945E+03  0.5535E+03
      4.210  0.3026E+03  0.5692E+03
      4.262  0.3049E+03  0.5851E+03
      4.314  0.3121E+03  0.6013E+03
      4.366  0.3187E+03  0.6178E+03
      4.418  0.3213E+03  0.6345E+03
      4.470  0.3236E+03  0.6513E+03
      4.522  0.3208E+03  0.6679E+03
      4.574  0.3091E+03  0.6840E+03
      4.625  0.2969E+03  0.6994E+03
      4.677  0.2936E+03  0.7146E+03
      4.729  0.2984E+03  0.7301E+03
      4.781  0.3061E+03  0.7460E+03
      4.833  0.3182E+03  0.7625E+03
      4.885  0.3318E+03  0.7798E+03
      4.937  0.3381E+03  0.7973E+03
      4.989  0.3456E+03  0.8153E+03
      5.041  0.3586E+03  0.8339E+03
      5.093  0.3656E+03  0.8529E+03
      5.145  0.3640E+03  0.8718E+03
      5.197  0.3546E+03  0.8902E+03
      5.248  0.3337E+03  0.9075E+03
      5.300  0.3009E+03  0.9231E+03
      5.352  0.2596E+03  0.9366E+03
      5.404  0.2167E+03  0.9478E+03
      5.456  0.1837E+03  0.9574E+03
      5.508  0.1729E+03  0.9663E+03
      5.560  0.1905E+03  0.9762E+03
      5.612  0.2292E+03  0.9881E+03
      5.664  0.2777E+03  0.1003E+04
      5.716  0.3277E+03  0.1020E+04
      5.768  0.3693E+03  0.1039E+04
      5.819  0.3963E+03  0.1059E+04
      5.871  0.4110E+03  0.1081E+04
      5.923  0.4196E+03  0.1102E+04
      5.975  0.4262E+03  0.1125E+04
      6.027  0.4282E+03  0.1147E+04
      6.079  0.4154E+03  0.1168E+04
      6.131  0.3907E+03  0.1189E+04
      6.183  0.3710E+03  0.1208E+04
      6.235  0.3607E+03  0.1227E+04
      6.287  0.3553E+03  0.1245E+04
      6.339  0.3568E+03  0.1264E+04
      6.391  0.3699E+03  0.1283E+04
      6.442  0.3821E+03  0.1303E+04
      6.494  0.3843E+03  0.1323E+04
      6.546  0.3923E+03  0.1343E+04
      6.598  0.4106E+03  0.1364E+04
      6.650  0.4240E+03  0.1386E+04
      6.702  0.4277E+03  0.1408E+04
      6.754  0.4246E+03  0.1431E+04
      6.806  0.4123E+03  0.1452E+04
      6.858  0.3912E+03  0.1472E+04
      6.910  0.3730E+03  0.1492E+04
      6.962  0.3664E+03  0.1511E+04
      7.013  0.3636E+03  0.1529E+04
      7.065  0.3689E+03  0.1549E+04
      7.117  0.3927E+03  0.1569E+04
      7.169  0.4155E+03  0.1591E+04
      7.221  0.4222E+03  0.1613E+04
      7.273  0.4220E+03  0.1634E+04
      7.325  0.4125E+03  0.1656E+04
      7.377  0.3865E+03  0.1676E+04
      7.429  0.3576E+03  0.1694E+04
      7.481  0.3396E+03  0.1712E+04
      7.533  0.3326E+03  0.1729E+04
      7.585  0.3286E+03  0.1746E+04
      7.636  0.3162E+03  0.1763E+04
      7.688  0.2944E+03  0.1778E+04
      7.740  0.2767E+03  0.1792E+04
      7.792  0.2683E+03  0.1806E+04
      7.844  0.2634E+03  0.1820E+04
      7.896  0.2571E+03  0.1833E+04
      7.948  0.2479E+03  0.1846E+04
      8.000  0.2427E+03  0.1859E+04
      8.052  0.2431E+03  0.1872E+04
      8.104  0.2387E+03  0.1884E+04
      8.156  0.2310E+03  0.1896E+04
      8.207  0.2292E+03  0.1908E+04
      8.259  0.2338E+03  0.1920E+04
      8.311  0.2379E+03  0.1932E+04
      8.363  0.2390E+03  0.1945E+04
      8.415  0.2366E+03  0.1957E+04
      8.467  0.2282E+03  0.1969E+04
      8.519  0.2180E+03  0.1980E+04
      8.571  0.2118E+03  0.1991E+04
      8.623  0.2067E+03  0.2002E+04
      8.675  0.1993E+03  0.2012E+04
      8.727  0.1908E+03  0.2022E+04
      8.778  0.1827E+03  0.2032E+04
      8.830  0.1796E+03  0.2041E+04
      8.882  0.1893E+03  0.2051E+04
      8.934  0.2148E+03  0.2062E+04
      8.986  0.2361E+03  0.2074E+04
      9.038  0.2358E+03  0.2086E+04
      9.090  0.2226E+03  0.2098E+04
      9.142  0.2053E+03  0.2109E+04
      9.194  0.1860E+03  0.2118E+04
      9.246  0.1793E+03  0.2128E+04
      9.298  0.1994E+03  0.2138E+04
      9.350  0.2300E+03  0.2150E+04
      9.401  0.2432E+03  0.2162E+04
      9.453  0.2429E+03  0.2175E+04
      9.505  0.2451E+03  0.2188E+04
      9.557  0.2443E+03  0.2200E+04
      9.609  0.2473E+03  0.2213E+04
      9.661  0.2774E+03  0.2228E+04
      9.713  0.3198E+03  0.2244E+04
      9.765  0.3355E+03  0.2262E+04
      9.817  0.3255E+03  0.2279E+04
      9.869  0.3162E+03  0.2295E+04
      9.921  0.3155E+03  0.2311E+04
      9.972  0.3228E+03  0.2328E+04
     10.024  0.3454E+03  0.2346E+04
     10.076  0.3827E+03  0.2366E+04
     10.128  0.4147E+03  0.2388E+04
     10.180  0.4292E+03  0.2410E+04
     10.232  0.4370E+03  0.2432E+04
     10.284  0.4501E+03  0.2456E+04
     10.336  0.4689E+03  0.2480E+04
     10.388  0.4874E+03  0.2505E+04
     10.440  0.4978E+03  0.2531E+04
     10.492  0.4885E+03  0.2557E+04
     10.544  0.4484E+03  0.2580E+04
     10.595  0.3865E+03  0.2600E+04
     10.647  0.3167E+03  0.2616E+04
     10.699  0.2315E+03  0.2628E+04
     10.751  0.1302E+03  0.2635E+04
     10.803  0.4415E+02  0.2638E+04
     10.855  0.2021E+01  0.2638E+04
     10.907 -0.5223E+01  0.2637E+04
     10.959 -0.2378E+01  0.2637E+04
     11.011 -0.5423E+00  0.2637E+04
     11.063 -0.7971E-01  0.2637E+04
     11.115 -0.8117E-02  0.2637E+04
     11.166 -0.5558E-03  0.2637E+04
     11.218 -0.2404E-04  0.2637E+04
     11.270 -0.6278E-06  0.2637E+04
     11.322 -0.9680E-08  0.2637E+04
     11.374 -0.8729E-10  0.2637E+04
     11.426 -0.4685E-12  0.2637E+04
     11.478 -0.3063E-11  0.2637E+04
     11.530 -0.5016E-09  0.2637E+04
     11.582 -0.4739E-07  0.2637E+04
     11.634 -0.2571E-05  0.2637E+04
     11.686 -0.7941E-04  0.2637E+04
     11.737 -0.1375E-02  0.2637E+04
     11.789 -0.1292E-01  0.2637E+04
     11.841 -0.6021E-01  0.2637E+04
     11.893 -0.9069E-01  0.2637E+04
     11.945  0.2730E+00  0.2637E+04
     11.997  0.1334E+01  0.2637E+04
     12.049  0.2236E+01  0.2637E+04
     12.101  0.1867E+01  0.2638E+04
     12.153  0.8156E+00  0.2638E+04
     12.205  0.5159E+00  0.2638E+04
     12.257  0.1389E+01  0.2638E+04
     12.309  0.2888E+01  0.2638E+04
     12.360  0.3791E+01  0.2638E+04
     12.412  0.3260E+01  0.2638E+04
     12.464  0.2295E+01  0.2638E+04
     12.516  0.2080E+01  0.2638E+04
     12.568  0.2552E+01  0.2639E+04
     12.620  0.2795E+01  0.2639E+04
     12.672  0.3115E+01  0.2639E+04
     12.724  0.3876E+01  0.2639E+04
     12.776  0.3422E+01  0.2639E+04
     12.828  0.2247E+01  0.2639E+04
     12.880  0.2254E+01  0.2639E+04
     12.931  0.2420E+01  0.2640E+04
     12.983  0.1747E+01  0.2640E+04
     13.035  0.1140E+01  0.2640E+04
     13.087  0.8631E+00  0.2640E+04
     13.139  0.7818E+00  0.2640E+04
     13.191  0.9263E+00  0.2640E+04
     13.243  0.1036E+01  0.2640E+04
     13.295  0.1007E+01  0.2640E+04
     13.347  0.6598E+00  0.2640E+04
     13.399  0.1688E+00  0.2640E+04
     13.451 -0.4013E-01  0.2640E+04
     13.503 -0.3268E-01  0.2640E+04
     13.554 -0.7300E-02  0.2640E+04
     13.606 -0.7803E-03  0.2640E+04
     13.658 -0.4435E-04  0.2640E+04
     13.710 -0.1395E-05  0.2640E+04
     13.762 -0.2476E-07  0.2640E+04
     13.814 -0.2505E-09  0.2640E+04
     13.866 -0.1454E-11  0.2640E+04
     13.918 -0.5228E-14  0.2640E+04
     13.970  0.0000E+00  0.2640E+04
     14.022  0.0000E+00  0.2640E+04
     14.074  0.0000E+00  0.2640E+04
     14.125  0.0000E+00  0.2640E+04
     14.177  0.0000E+00  0.2640E+04
     14.229  0.0000E+00  0.2640E+04
     14.281  0.0000E+00  0.2640E+04
