       N       E                     dE             d eps       ncg     rms          rms(c)
RMM:   1     0.136790887162E+05    0.13679E+05   -0.47218E+05 25080   0.725E+02
RMM:   2     0.131336894515E+04   -0.12366E+05   -0.13120E+05 25080   0.260E+02
RMM:   3    -0.104570079749E+04   -0.23591E+04   -0.22855E+04 25080   0.111E+02
RMM:   4    -0.184600041290E+04   -0.80030E+03   -0.57407E+03 25080   0.768E+01
RMM:   5    -0.212911247061E+04   -0.28311E+03   -0.24896E+03 25080   0.451E+01
RMM:   6    -0.227483570222E+04   -0.14572E+03   -0.12952E+03 25080   0.349E+01
RMM:   7    -0.235270065483E+04   -0.77865E+02   -0.73855E+02 25080   0.236E+01
RMM:   8    -0.240019769372E+04   -0.47497E+02   -0.44556E+02 25080   0.195E+01
RMM:   9    -0.247908761452E+04   -0.78890E+02   -0.77970E+02 71868   0.137E+01
RMM:  10    -0.248863902410E+04   -0.95514E+01   -0.11975E+02 79646   0.283E+00
RMM:  11    -0.249088072502E+04   -0.22417E+01   -0.17851E+01 77256   0.687E-01
RMM:  12    -0.249118688316E+04   -0.30616E+00   -0.19813E+00 79543   0.198E-01    0.782E+01
RMM:  13    -0.241368640520E+04    0.77500E+02   -0.68513E+02 57188   0.246E+01    0.583E+01
RMM:  14    -0.236776958917E+04    0.45917E+02   -0.34134E+02 51435   0.174E+01    0.416E+01
RMM:  15    -0.233563869948E+04    0.32131E+02   -0.11848E+02 53316   0.101E+01    0.255E+01
RMM:  16    -0.232132594721E+04    0.14313E+02   -0.25855E+01 56009   0.434E+00    0.441E+00
RMM:  17    -0.232150441607E+04   -0.17847E+00   -0.64633E+00 73736   0.130E+00    0.437E+00
RMM:  18    -0.232112729604E+04    0.37712E+00   -0.11658E+00 64584   0.695E-01    0.341E+00
RMM:  19    -0.232074822730E+04    0.37907E+00   -0.65444E-01 59727   0.751E-01    0.166E+00
RMM:  20    -0.232069833144E+04    0.49896E-01   -0.24161E-01 63653   0.352E-01    0.157E+00
RMM:  21    -0.232065905254E+04    0.39279E-01   -0.11188E-01 62887   0.235E-01    0.123E+00
RMM:  22    -0.232063299447E+04    0.26058E-01   -0.48775E-02 60986   0.162E-01    0.701E-01
RMM:  23    -0.232062783995E+04    0.51545E-02   -0.13742E-02 66866   0.696E-02    0.476E-01
RMM:  24    -0.232062451409E+04    0.33259E-02   -0.10450E-02 62606   0.756E-02    0.242E-01
RMM:  25    -0.232062549289E+04   -0.97880E-03   -0.12479E-02 66428   0.766E-02    0.259E-01
RMM:  26    -0.232062562354E+04   -0.13066E-03   -0.32175E-03 74710   0.288E-02    0.266E-01
RMM:  27    -0.232062472370E+04    0.89984E-03   -0.70416E-04 60059   0.204E-02    0.177E-01
RMM:  28    -0.232062416159E+04    0.56212E-03   -0.10460E-03 63813   0.235E-02    0.763E-02
RMM:  29    -0.232062405923E+04    0.10236E-03   -0.58192E-04 70597   0.153E-02    0.279E-02
RMM:  30    -0.232062403496E+04    0.24264E-04   -0.10814E-04 67990   0.654E-03
   1 F= -.23206240E+04 E0= -.23206240E+04  d E =-.221454E-03
