  96  96   0   0
  0.1439516E+02  0.1183914E-08  0.1183913E-08  0.1183900E-08  0.5000000E-15
  1.000000000000000E-004
  CAR 
 Ir_Ru                                   
     15.40544160     -1.53556172  301      9.75773817      1.00000000
     -1.536  0.0000E+00  0.0000E+00
     -1.479  0.0000E+00  0.0000E+00
     -1.423  0.0000E+00  0.0000E+00
     -1.366 -0.7261E-30 -0.4100E-31
     -1.310 -0.5832E-26 -0.3294E-27
     -1.253 -0.2463E-22 -0.1391E-23
     -1.197 -0.5461E-19 -0.3085E-20
     -1.140 -0.6353E-16 -0.3591E-17
     -1.084 -0.3743E-13 -0.2117E-14
     -1.027 -0.1183E-10 -0.6702E-12
     -0.971 -0.1944E-08 -0.1104E-09
     -0.914 -0.1653E-06 -0.9446E-08
     -0.858 -0.7246E-05 -0.4186E-06
     -0.801 -0.1633E-03 -0.9640E-05
     -0.745 -0.1909E-02 -0.1174E-03
     -0.689 -0.1190E-01 -0.7897E-03
     -0.632 -0.3881E-01 -0.2981E-02
     -0.576 -0.2176E-01 -0.4210E-02
     -0.519  0.3407E+00  0.1503E-01
     -0.463  0.1189E+01  0.8218E-01
     -0.406  0.1727E+01  0.1797E+00
     -0.350  0.1924E+01  0.2883E+00
     -0.293  0.2815E+01  0.4473E+00
     -0.237  0.3503E+01  0.6451E+00
     -0.180  0.3307E+01  0.8319E+00
     -0.124  0.3549E+01  0.1032E+01
     -0.067  0.3824E+01  0.1248E+01
     -0.011  0.3822E+01  0.1464E+01
      0.046  0.4623E+01  0.1725E+01
      0.102  0.5494E+01  0.2035E+01
      0.159  0.5385E+01  0.2339E+01
      0.215  0.5612E+01  0.2656E+01
      0.271  0.5895E+01  0.2989E+01
      0.328  0.4950E+01  0.3269E+01
      0.384  0.4768E+01  0.3538E+01
      0.441  0.6118E+01  0.3884E+01
      0.497  0.7805E+01  0.4324E+01
      0.554  0.8988E+01  0.4832E+01
      0.610  0.8593E+01  0.5317E+01
      0.667  0.7344E+01  0.5732E+01
      0.723  0.6959E+01  0.6125E+01
      0.780  0.6148E+01  0.6472E+01
      0.836  0.5832E+01  0.6801E+01
      0.893  0.8730E+01  0.7294E+01
      0.949  0.1237E+02  0.7993E+01
      1.006  0.1321E+02  0.8739E+01
      1.062  0.1197E+02  0.9415E+01
      1.119  0.1023E+02  0.9993E+01
      1.175  0.8637E+01  0.1048E+02
      1.231  0.8560E+01  0.1096E+02
      1.288  0.1042E+02  0.1155E+02
      1.344  0.1361E+02  0.1232E+02
      1.401  0.1634E+02  0.1324E+02
      1.457  0.1676E+02  0.1419E+02
      1.514  0.1487E+02  0.1503E+02
      1.570  0.1048E+02  0.1562E+02
      1.627  0.7326E+01  0.1604E+02
      1.683  0.9443E+01  0.1657E+02
      1.740  0.1368E+02  0.1734E+02
      1.796  0.1608E+02  0.1825E+02
      1.853  0.1826E+02  0.1928E+02
      1.909  0.1831E+02  0.2031E+02
      1.966  0.1468E+02  0.2114E+02
      2.022  0.1567E+02  0.2203E+02
      2.079  0.2218E+02  0.2328E+02
      2.135  0.2830E+02  0.2488E+02
      2.191  0.3236E+02  0.2671E+02
      2.248  0.3707E+02  0.2880E+02
      2.304  0.5024E+02  0.3164E+02
      2.361  0.6992E+02  0.3558E+02
      2.417  0.7926E+02  0.4006E+02
      2.474  0.7552E+02  0.4432E+02
      2.530  0.7082E+02  0.4832E+02
      2.587  0.6727E+02  0.5212E+02
      2.643  0.6565E+02  0.5583E+02
      2.700  0.6982E+02  0.5977E+02
      2.756  0.7654E+02  0.6409E+02
      2.813  0.8380E+02  0.6883E+02
      2.869  0.9042E+02  0.7393E+02
      2.926  0.9279E+02  0.7917E+02
      2.982  0.9755E+02  0.8468E+02
      3.039  0.1091E+03  0.9084E+02
      3.095  0.1131E+03  0.9723E+02
      3.151  0.1061E+03  0.1032E+03
      3.208  0.1047E+03  0.1091E+03
      3.264  0.1098E+03  0.1153E+03
      3.321  0.1137E+03  0.1218E+03
      3.377  0.1213E+03  0.1286E+03
      3.434  0.1303E+03  0.1360E+03
      3.490  0.1276E+03  0.1432E+03
      3.547  0.1150E+03  0.1497E+03
      3.603  0.1080E+03  0.1558E+03
      3.660  0.1053E+03  0.1617E+03
      3.716  0.1021E+03  0.1675E+03
      3.773  0.9948E+02  0.1731E+03
      3.829  0.9394E+02  0.1784E+03
      3.886  0.9263E+02  0.1836E+03
      3.942  0.9216E+02  0.1888E+03
      3.998  0.8940E+02  0.1939E+03
      4.055  0.9919E+02  0.1995E+03
      4.111  0.1124E+03  0.2058E+03
      4.168  0.1218E+03  0.2127E+03
      4.224  0.1351E+03  0.2203E+03
      4.281  0.1426E+03  0.2284E+03
      4.337  0.1372E+03  0.2361E+03
      4.394  0.1263E+03  0.2433E+03
      4.450  0.1145E+03  0.2497E+03
      4.507  0.1009E+03  0.2554E+03
      4.563  0.9142E+02  0.2606E+03
      4.620  0.9159E+02  0.2658E+03
      4.676  0.9623E+02  0.2712E+03
      4.733  0.1092E+03  0.2774E+03
      4.789  0.1267E+03  0.2845E+03
      4.846  0.1325E+03  0.2920E+03
      4.902  0.1328E+03  0.2995E+03
      4.958  0.1358E+03  0.3072E+03
      5.015  0.1338E+03  0.3147E+03
      5.071  0.1338E+03  0.3223E+03
      5.128  0.1374E+03  0.3301E+03
      5.184  0.1285E+03  0.3373E+03
      5.241  0.1027E+03  0.3431E+03
      5.297  0.8174E+02  0.3477E+03
      5.354  0.7989E+02  0.3522E+03
      5.410  0.7930E+02  0.3567E+03
      5.467  0.6949E+02  0.3606E+03
      5.523  0.5917E+02  0.3640E+03
      5.580  0.5860E+02  0.3673E+03
      5.636  0.7583E+02  0.3716E+03
      5.693  0.1101E+03  0.3778E+03
      5.749  0.1458E+03  0.3860E+03
      5.806  0.1647E+03  0.3953E+03
      5.862  0.1641E+03  0.4046E+03
      5.918  0.1635E+03  0.4138E+03
      5.975  0.1634E+03  0.4230E+03
      6.031  0.1503E+03  0.4315E+03
      6.088  0.1341E+03  0.4391E+03
      6.144  0.1358E+03  0.4468E+03
      6.201  0.1495E+03  0.4552E+03
      6.257  0.1532E+03  0.4639E+03
      6.314  0.1486E+03  0.4723E+03
      6.370  0.1435E+03  0.4804E+03
      6.427  0.1369E+03  0.4881E+03
      6.483  0.1336E+03  0.4956E+03
      6.540  0.1406E+03  0.5036E+03
      6.596  0.1553E+03  0.5124E+03
      6.653  0.1653E+03  0.5217E+03
      6.709  0.1631E+03  0.5309E+03
      6.766  0.1596E+03  0.5399E+03
      6.822  0.1668E+03  0.5493E+03
      6.878  0.1638E+03  0.5586E+03
      6.935  0.1421E+03  0.5666E+03
      6.991  0.1339E+03  0.5742E+03
      7.048  0.1487E+03  0.5826E+03
      7.104  0.1653E+03  0.5919E+03
      7.161  0.1670E+03  0.6013E+03
      7.217  0.1506E+03  0.6098E+03
      7.274  0.1276E+03  0.6170E+03
      7.330  0.1127E+03  0.6234E+03
      7.387  0.1132E+03  0.6298E+03
      7.443  0.1250E+03  0.6369E+03
      7.500  0.1301E+03  0.6442E+03
      7.556  0.1250E+03  0.6513E+03
      7.613  0.1240E+03  0.6583E+03
      7.669  0.1221E+03  0.6652E+03
      7.726  0.1116E+03  0.6715E+03
      7.782  0.9606E+02  0.6769E+03
      7.838  0.8787E+02  0.6818E+03
      7.895  0.9242E+02  0.6871E+03
      7.951  0.9608E+02  0.6925E+03
      8.008  0.9487E+02  0.6978E+03
      8.064  0.9740E+02  0.7033E+03
      8.121  0.9604E+02  0.7088E+03
      8.177  0.8463E+02  0.7136E+03
      8.234  0.7767E+02  0.7179E+03
      8.290  0.8093E+02  0.7225E+03
      8.347  0.8533E+02  0.7273E+03
      8.403  0.8229E+02  0.7320E+03
      8.460  0.7403E+02  0.7362E+03
      8.516  0.7326E+02  0.7403E+03
      8.573  0.8017E+02  0.7448E+03
      8.629  0.8362E+02  0.7495E+03
      8.686  0.8024E+02  0.7541E+03
      8.742  0.6918E+02  0.7580E+03
      8.798  0.5895E+02  0.7613E+03
      8.855  0.6135E+02  0.7648E+03
      8.911  0.6828E+02  0.7686E+03
      8.968  0.7693E+02  0.7730E+03
      9.024  0.8376E+02  0.7777E+03
      9.081  0.7807E+02  0.7821E+03
      9.137  0.6381E+02  0.7857E+03
      9.194  0.6045E+02  0.7891E+03
      9.250  0.7192E+02  0.7932E+03
      9.307  0.8012E+02  0.7977E+03
      9.363  0.8314E+02  0.8024E+03
      9.420  0.9002E+02  0.8075E+03
      9.476  0.9818E+02  0.8130E+03
      9.533  0.1016E+03  0.8188E+03
      9.589  0.9438E+02  0.8241E+03
      9.646  0.8553E+02  0.8289E+03
      9.702  0.9107E+02  0.8341E+03
      9.758  0.1064E+03  0.8401E+03
      9.815  0.1180E+03  0.8467E+03
      9.871  0.1176E+03  0.8534E+03
      9.928  0.1158E+03  0.8599E+03
      9.984  0.1265E+03  0.8671E+03
     10.041  0.1400E+03  0.8750E+03
     10.097  0.1429E+03  0.8831E+03
     10.154  0.1396E+03  0.8909E+03
     10.210  0.1403E+03  0.8989E+03
     10.267  0.1461E+03  0.9071E+03
     10.323  0.1550E+03  0.9159E+03
     10.380  0.1673E+03  0.9253E+03
     10.436  0.1829E+03  0.9356E+03
     10.493  0.1991E+03  0.9469E+03
     10.549  0.2048E+03  0.9584E+03
     10.605  0.1877E+03  0.9690E+03
     10.662  0.1665E+03  0.9784E+03
     10.718  0.1581E+03  0.9874E+03
     10.775  0.1427E+03  0.9954E+03
     10.831  0.1135E+03  0.1002E+04
     10.888  0.8409E+02  0.1007E+04
     10.944  0.5805E+02  0.1010E+04
     11.001  0.3664E+02  0.1012E+04
     11.057  0.2300E+02  0.1013E+04
     11.114  0.1581E+02  0.1014E+04
     11.170  0.1156E+02  0.1015E+04
     11.227  0.8025E+01  0.1015E+04
     11.283  0.5667E+01  0.1016E+04
     11.340  0.4526E+01  0.1016E+04
     11.396  0.3968E+01  0.1016E+04
     11.453  0.3900E+01  0.1016E+04
     11.509  0.3725E+01  0.1016E+04
     11.565  0.3029E+01  0.1017E+04
     11.622  0.2268E+01  0.1017E+04
     11.678  0.1823E+01  0.1017E+04
     11.735  0.1839E+01  0.1017E+04
     11.791  0.2601E+01  0.1017E+04
     11.848  0.3525E+01  0.1017E+04
     11.904  0.3029E+01  0.1017E+04
     11.961  0.1962E+01  0.1018E+04
     12.017  0.2763E+01  0.1018E+04
     12.074  0.4253E+01  0.1018E+04
     12.130  0.4175E+01  0.1018E+04
     12.187  0.3392E+01  0.1018E+04
     12.243  0.3434E+01  0.1019E+04
     12.300  0.4097E+01  0.1019E+04
     12.356  0.4520E+01  0.1019E+04
     12.413  0.4380E+01  0.1019E+04
     12.469  0.4060E+01  0.1020E+04
     12.525  0.4028E+01  0.1020E+04
     12.582  0.4188E+01  0.1020E+04
     12.638  0.3862E+01  0.1020E+04
     12.695  0.3405E+01  0.1020E+04
     12.751  0.3330E+01  0.1021E+04
     12.808  0.3305E+01  0.1021E+04
     12.864  0.3533E+01  0.1021E+04
     12.921  0.3699E+01  0.1021E+04
     12.977  0.3555E+01  0.1021E+04
     13.034  0.3709E+01  0.1022E+04
     13.090  0.4130E+01  0.1022E+04
     13.147  0.4429E+01  0.1022E+04
     13.203  0.4144E+01  0.1022E+04
     13.260  0.3052E+01  0.1023E+04
     13.316  0.2329E+01  0.1023E+04
     13.373  0.2247E+01  0.1023E+04
     13.429  0.2123E+01  0.1023E+04
     13.485  0.2050E+01  0.1023E+04
     13.542  0.2129E+01  0.1023E+04
     13.598  0.2174E+01  0.1023E+04
     13.655  0.2124E+01  0.1023E+04
     13.711  0.1849E+01  0.1023E+04
     13.768  0.1122E+01  0.1024E+04
     13.824  0.4508E+00  0.1024E+04
     13.881  0.2923E+00  0.1024E+04
     13.937  0.4332E+00  0.1024E+04
     13.994  0.6809E+00  0.1024E+04
     14.050  0.8788E+00  0.1024E+04
     14.107  0.8253E+00  0.1024E+04
     14.163  0.6470E+00  0.1024E+04
     14.220  0.5185E+00  0.1024E+04
     14.276  0.5144E+00  0.1024E+04
     14.333  0.7624E+00  0.1024E+04
     14.389  0.9273E+00  0.1024E+04
     14.445  0.6693E+00  0.1024E+04
     14.502  0.2073E+00  0.1024E+04
     14.558 -0.2055E-01  0.1024E+04
     14.615 -0.2715E-01  0.1024E+04
     14.671 -0.5889E-02  0.1024E+04
     14.728 -0.5428E-03  0.1024E+04
     14.784 -0.2411E-04  0.1024E+04
     14.841 -0.5383E-06  0.1024E+04
     14.897 -0.6158E-08  0.1024E+04
     14.954 -0.3646E-10  0.1024E+04
     15.010 -0.1125E-12  0.1024E+04
     15.067 -0.1258E-15  0.1024E+04
     15.123  0.0000E+00  0.1024E+04
     15.180  0.0000E+00  0.1024E+04
     15.236  0.0000E+00  0.1024E+04
     15.293  0.0000E+00  0.1024E+04
     15.349  0.0000E+00  0.1024E+04
     15.405  0.0000E+00  0.1024E+04
