<?xml version="1.0" encoding="ISO-8859-1"?>
<modeling>
 <generator>
  <i name="program" type="string">vasp </i>
  <i name="version" type="string">5.4.1  </i>
  <i name="subversion" type="string">24Jun15 (build Dec 12 2017 15:24:27) complex                          parallel </i>
  <i name="platform" type="string">IFC91_ompi </i>
  <i name="date" type="string">2020 04 03 </i>
  <i name="time" type="string">20:00:41 </i>
 </generator>
 <incar>
  <i type="string" name="SYSTEM"> Ir_Ru</i>
  <i type="int" name="ISTART">     0</i>
  <i type="string" name="PREC">accurate</i>
  <i type="string" name="ALGO"> Very_Fast</i>
  <i type="int" name="ICHARG">     2</i>
  <i type="int" name="NELMIN">     5</i>
  <i type="int" name="IBRION">    -1</i>
  <i name="EDIFFG">      0.00001000</i>
  <i type="int" name="ISIF">     2</i>
  <i type="string" name="LREAL"> AUTO</i>
  <i type="int" name="ISMEAR">     1</i>
  <i name="SIGMA">      0.10000000</i>
  <v type="int" name="KPOINT_BSE">    -1     0     0     0</v>
 </incar>
 <kpoints>
  <generation param="Gamma">
   <v type="int" name="divisions">       5        5        5 </v>
   <v name="usershift">      0.00000000       0.00000000       0.00000000 </v>
   <v name="genvec1">      0.20000000       0.00000000       0.00000000 </v>
   <v name="genvec2">      0.00000000       0.20000000      -0.00000000 </v>
   <v name="genvec3">     -0.00000000      -0.00000000       0.20000000 </v>
   <v name="shift">      0.00000000       0.00000000       0.00000000 </v>
  </generation>
  <varray name="kpointlist" >
   <v>       0.00000000       0.00000000       0.00000000 </v>
   <v>       0.20000000       0.00000000       0.00000000 </v>
   <v>       0.40000000       0.00000000       0.00000000 </v>
   <v>       0.00000000       0.20000000      -0.00000000 </v>
   <v>       0.20000000       0.20000000       0.00000000 </v>
   <v>       0.40000000       0.20000000       0.00000000 </v>
   <v>      -0.40000000       0.20000000      -0.00000000 </v>
   <v>      -0.20000000       0.20000000      -0.00000000 </v>
   <v>       0.00000000       0.40000000      -0.00000000 </v>
   <v>       0.20000000       0.40000000       0.00000000 </v>
   <v>       0.40000000       0.40000000       0.00000000 </v>
   <v>      -0.40000000       0.40000000      -0.00000000 </v>
   <v>      -0.20000000       0.40000000      -0.00000000 </v>
   <v>       0.00000000       0.00000000       0.20000000 </v>
   <v>       0.20000000       0.00000000       0.20000000 </v>
   <v>       0.40000000       0.00000000       0.20000000 </v>
   <v>      -0.40000000       0.00000000       0.20000000 </v>
   <v>      -0.20000000       0.00000000       0.20000000 </v>
   <v>       0.00000000       0.20000000       0.20000000 </v>
   <v>       0.20000000       0.20000000       0.20000000 </v>
   <v>       0.40000000       0.20000000       0.20000000 </v>
   <v>      -0.40000000       0.20000000       0.20000000 </v>
   <v>      -0.20000000       0.20000000       0.20000000 </v>
   <v>       0.00000000       0.40000000       0.20000000 </v>
   <v>       0.20000000       0.40000000       0.20000000 </v>
   <v>       0.40000000       0.40000000       0.20000000 </v>
   <v>      -0.40000000       0.40000000       0.20000000 </v>
   <v>      -0.20000000       0.40000000       0.20000000 </v>
   <v>      -0.00000000      -0.40000000       0.20000000 </v>
   <v>       0.20000000      -0.40000000       0.20000000 </v>
   <v>       0.40000000      -0.40000000       0.20000000 </v>
   <v>      -0.40000000      -0.40000000       0.20000000 </v>
   <v>      -0.20000000      -0.40000000       0.20000000 </v>
   <v>      -0.00000000      -0.20000000       0.20000000 </v>
   <v>       0.20000000      -0.20000000       0.20000000 </v>
   <v>       0.40000000      -0.20000000       0.20000000 </v>
   <v>      -0.40000000      -0.20000000       0.20000000 </v>
   <v>      -0.20000000      -0.20000000       0.20000000 </v>
   <v>       0.00000000       0.00000000       0.40000000 </v>
   <v>       0.20000000       0.00000000       0.40000000 </v>
   <v>       0.40000000       0.00000000       0.40000000 </v>
   <v>      -0.40000000       0.00000000       0.40000000 </v>
   <v>      -0.20000000       0.00000000       0.40000000 </v>
   <v>       0.00000000       0.20000000       0.40000000 </v>
   <v>       0.20000000       0.20000000       0.40000000 </v>
   <v>       0.40000000       0.20000000       0.40000000 </v>
   <v>      -0.40000000       0.20000000       0.40000000 </v>
   <v>      -0.20000000       0.20000000       0.40000000 </v>
   <v>       0.00000000       0.40000000       0.40000000 </v>
   <v>       0.20000000       0.40000000       0.40000000 </v>
   <v>       0.40000000       0.40000000       0.40000000 </v>
   <v>      -0.40000000       0.40000000       0.40000000 </v>
   <v>      -0.20000000       0.40000000       0.40000000 </v>
   <v>      -0.00000000      -0.40000000       0.40000000 </v>
   <v>       0.20000000      -0.40000000       0.40000000 </v>
   <v>       0.40000000      -0.40000000       0.40000000 </v>
   <v>      -0.40000000      -0.40000000       0.40000000 </v>
   <v>      -0.20000000      -0.40000000       0.40000000 </v>
   <v>       0.00000000      -0.20000000       0.40000000 </v>
   <v>       0.20000000      -0.20000000       0.40000000 </v>
   <v>       0.40000000      -0.20000000       0.40000000 </v>
   <v>      -0.40000000      -0.20000000       0.40000000 </v>
   <v>      -0.20000000      -0.20000000       0.40000000 </v>
  </varray>
  <varray name="weights" >
   <v>       0.00800000 </v>
   <v>       0.01600000 </v>
   <v>       0.01600000 </v>
   <v>       0.01600000 </v>
   <v>       0.01600000 </v>
   <v>       0.01600000 </v>
   <v>       0.01600000 </v>
   <v>       0.01600000 </v>
   <v>       0.01600000 </v>
   <v>       0.01600000 </v>
   <v>       0.01600000 </v>
   <v>       0.01600000 </v>
   <v>       0.01600000 </v>
   <v>       0.01600000 </v>
   <v>       0.01600000 </v>
   <v>       0.01600000 </v>
   <v>       0.01600000 </v>
   <v>       0.01600000 </v>
   <v>       0.01600000 </v>
   <v>       0.01600000 </v>
   <v>       0.01600000 </v>
   <v>       0.01600000 </v>
   <v>       0.01600000 </v>
   <v>       0.01600000 </v>
   <v>       0.01600000 </v>
   <v>       0.01600000 </v>
   <v>       0.01600000 </v>
   <v>       0.01600000 </v>
   <v>       0.01600000 </v>
   <v>       0.01600000 </v>
   <v>       0.01600000 </v>
   <v>       0.01600000 </v>
   <v>       0.01600000 </v>
   <v>       0.01600000 </v>
   <v>       0.01600000 </v>
   <v>       0.01600000 </v>
   <v>       0.01600000 </v>
   <v>       0.01600000 </v>
   <v>       0.01600000 </v>
   <v>       0.01600000 </v>
   <v>       0.01600000 </v>
   <v>       0.01600000 </v>
   <v>       0.01600000 </v>
   <v>       0.01600000 </v>
   <v>       0.01600000 </v>
   <v>       0.01600000 </v>
   <v>       0.01600000 </v>
   <v>       0.01600000 </v>
   <v>       0.01600000 </v>
   <v>       0.01600000 </v>
   <v>       0.01600000 </v>
   <v>       0.01600000 </v>
   <v>       0.01600000 </v>
   <v>       0.01600000 </v>
   <v>       0.01600000 </v>
   <v>       0.01600000 </v>
   <v>       0.01600000 </v>
   <v>       0.01600000 </v>
   <v>       0.01600000 </v>
   <v>       0.01600000 </v>
   <v>       0.01600000 </v>
   <v>       0.01600000 </v>
   <v>       0.01600000 </v>
  </varray>
 </kpoints>
 <parameters>
  <separator name="general" >
   <i type="string" name="SYSTEM">Ir_Ru</i>
   <i type="logical" name="LCOMPAT"> F  </i>
  </separator>
  <separator name="electronic" >
   <i type="string" name="PREC">accura</i>
   <i name="ENMAX">    213.27600000</i>
   <i name="ENAUG">    333.49400000</i>
   <i name="EDIFF">      0.00010000</i>
   <i type="int" name="IALGO">    48</i>
   <i type="int" name="IWAVPR">    10</i>
   <i type="int" name="NBANDS">   512</i>
   <i name="NELECT">    840.00000000</i>
   <i type="int" name="TURBO">     0</i>
   <i type="int" name="IRESTART">     0</i>
   <i type="int" name="NREBOOT">     0</i>
   <i type="int" name="NMIN">     0</i>
   <i name="EREF">      0.00000000</i>
   <separator name="electronic smearing" >
    <i type="int" name="ISMEAR">     1</i>
    <i name="SIGMA">      0.10000000</i>
    <i name="KSPACING">      0.50000000</i>
    <i type="logical" name="KGAMMA"> T  </i>
   </separator>
   <separator name="electronic projectors" >
    <i type="logical" name="LREAL"> T  </i>
    <v name="ROPT">     -0.00025000     -0.00025000</v>
    <i type="int" name="LMAXPAW">  -100</i>
    <i type="int" name="LMAXMIX">     2</i>
    <i type="logical" name="NLSPLINE"> F  </i>
   </separator>
   <separator name="electronic startup" >
    <i type="int" name="ISTART">     0</i>
    <i type="int" name="ICHARG">     2</i>
    <i type="int" name="INIWAV">     1</i>
   </separator>
   <separator name="electronic spin" >
    <i type="int" name="ISPIN">     1</i>
    <i type="logical" name="LNONCOLLINEAR"> F  </i>
    <v name="MAGMOM">      1.00000000      1.00000000      1.00000000      1.00000000      1.00000000      1.00000000      1.00000000      1.00000000      1.00000000      1.00000000      1.00000000      1.00000000      1.00000000      1.00000000      1.00000000      1.00000000      1.00000000      1.00000000      1.00000000      1.00000000
      1.00000000      1.00000000      1.00000000      1.00000000      1.00000000      1.00000000      1.00000000      1.00000000      1.00000000      1.00000000      1.00000000      1.00000000      1.00000000      1.00000000      1.00000000      1.00000000      1.00000000      1.00000000      1.00000000      1.00000000
      1.00000000      1.00000000      1.00000000      1.00000000      1.00000000      1.00000000      1.00000000      1.00000000      1.00000000      1.00000000      1.00000000      1.00000000      1.00000000      1.00000000      1.00000000      1.00000000      1.00000000      1.00000000      1.00000000      1.00000000
      1.00000000      1.00000000      1.00000000      1.00000000      1.00000000      1.00000000      1.00000000      1.00000000      1.00000000      1.00000000      1.00000000      1.00000000      1.00000000      1.00000000      1.00000000      1.00000000      1.00000000      1.00000000      1.00000000      1.00000000
      1.00000000      1.00000000      1.00000000      1.00000000      1.00000000      1.00000000      1.00000000      1.00000000      1.00000000      1.00000000      1.00000000      1.00000000      1.00000000      1.00000000      1.00000000      1.00000000</v>
    <i name="NUPDOWN">     -1.00000000</i>
    <i type="logical" name="LSORBIT"> F  </i>
    <v name="SAXIS">      0.00000000      0.00000000      1.00000000</v>
    <i type="logical" name="LSPIRAL"> F  </i>
    <v name="QSPIRAL">      0.00000000      0.00000000      0.00000000</v>
    <i type="logical" name="LZEROZ"> F  </i>
   </separator>
   <separator name="electronic exchange-correlation" >
    <i type="logical" name="LASPH"> F  </i>
    <i type="logical" name="LMETAGGA"> F  </i>
   </separator>
   <separator name="electronic convergence" >
    <i type="int" name="NELM">    60</i>
    <i type="int" name="NELMDL">   -12</i>
    <i type="int" name="NELMIN">     5</i>
    <i name="ENINI">    213.27600000</i>
    <separator name="electronic convergence detail" >
     <i type="logical" name="LDIAG"> T  </i>
     <i type="logical" name="LSUBROT"> F  </i>
     <i name="WEIMIN">      0.00000000</i>
     <i name="EBREAK">      0.00000000</i>
     <i name="DEPER">      0.30000000</i>
     <i type="int" name="NRMM">     4</i>
     <i name="TIME">      0.40000000</i>
    </separator>
   </separator>
   <separator name="electronic mixer" >
    <i name="AMIX">      0.40000000</i>
    <i name="BMIX">      1.00000000</i>
    <i name="AMIN">      0.10000000</i>
    <i name="AMIX_MAG">      1.60000000</i>
    <i name="BMIX_MAG">      1.00000000</i>
    <separator name="electronic mixer details" >
     <i type="int" name="IMIX">     4</i>
     <i type="logical" name="MIXFIRST"> F  </i>
     <i type="int" name="MAXMIX">   -45</i>
     <i name="WC">    100.00000000</i>
     <i type="int" name="INIMIX">     1</i>
     <i type="int" name="MIXPRE">     1</i>
     <i type="int" name="MREMOVE">     5</i>
    </separator>
   </separator>
   <separator name="electronic dipolcorrection" >
    <i type="logical" name="LDIPOL"> F  </i>
    <i type="logical" name="LMONO"> F  </i>
    <i type="int" name="IDIPOL">     0</i>
    <i name="EPSILON">      1.00000000</i>
    <v name="DIPOL">   -100.00000000   -100.00000000   -100.00000000</v>
    <i name="EFIELD">      0.00000000</i>
   </separator>
  </separator>
  <separator name="grids" >
   <i type="int" name="NGX">    56</i>
   <i type="int" name="NGY">    56</i>
   <i type="int" name="NGZ">    56</i>
   <i type="int" name="NGXF">   112</i>
   <i type="int" name="NGYF">   112</i>
   <i type="int" name="NGZF">   112</i>
   <i type="logical" name="ADDGRID"> F  </i>
  </separator>
  <separator name="ionic" >
   <i type="int" name="NSW">     0</i>
   <i type="int" name="IBRION">    -1</i>
   <i type="int" name="ISIF">     2</i>
   <i name="PSTRESS">      0.00000000</i>
   <i name="EDIFFG">      0.00001000</i>
   <i type="int" name="NFREE">     0</i>
   <i name="POTIM">      0.50000000</i>
   <i name="SMASS">     -3.00000000</i>
   <i name="SCALEE">      1.00000000</i>
  </separator>
  <separator name="ionic md" >
   <i name="TEBEG">      0.00010000</i>
   <i name="TEEND">      0.00010000</i>
   <i type="int" name="NBLOCK">     1</i>
   <i type="int" name="KBLOCK">     1</i>
   <i type="int" name="NPACO">   256</i>
   <i name="APACO">     16.00000000</i>
  </separator>
  <separator name="symmetry" >
   <i type="int" name="ISYM">     2</i>
   <i name="SYMPREC">      0.00001000</i>
  </separator>
  <separator name="dos" >
   <i type="logical" name="LORBIT"> F  </i>
   <v name="RWIGS">     -1.00000000     -1.00000000</v>
   <i type="int" name="NEDOS">   301</i>
   <i name="EMIN">     10.00000000</i>
   <i name="EMAX">    -10.00000000</i>
   <i name="EFERMI">      0.00000000</i>
  </separator>
  <separator name="writing" >
   <i type="int" name="NWRITE">     2</i>
   <i type="logical" name="LWAVE"> T  </i>
   <i type="logical" name="LCHARG"> T  </i>
   <i type="logical" name="LPARD"> F  </i>
   <i type="logical" name="LVTOT"> F  </i>
   <i type="logical" name="LVHAR"> F  </i>
   <i type="logical" name="LELF"> F  </i>
   <i type="logical" name="LOPTICS"> F  </i>
   <v name="STM">      0.00000000      0.00000000      0.00000000      0.00000000      0.00000000      0.00000000      0.00000000</v>
  </separator>
  <separator name="performance" >
   <i type="int" name="NPAR">    64</i>
   <i type="int" name="NSIM">     4</i>
   <i type="int" name="NBLK">    -1</i>
   <i type="logical" name="LPLANE"> T  </i>
   <i type="logical" name="LSCALAPACK"> T  </i>
   <i type="logical" name="LSCAAWARE"> T  </i>
   <i type="logical" name="LSCALU"> F  </i>
   <i type="logical" name="LASYNC"> F  </i>
   <i type="logical" name="LORBITALREAL"> F  </i>
  </separator>
  <separator name="miscellaneous" >
   <i type="int" name="IDIOT">     3</i>
   <i type="logical" name="LMUSIC"> F  </i>
   <v name="POMASS">    192.22000000    101.07000000</v>
   <v name="DARWINR">      0.00000000      0.00000000</v>
   <v name="DARWINV">      1.00000000      1.00000000</v>
   <i type="logical" name="LCORR"> T  </i>
  </separator>
  <i type="logical" name="GGA_COMPAT"> T  </i>
  <i type="logical" name="LBERRY"> F  </i>
  <i type="int" name="ICORELEVEL">     0</i>
  <i type="logical" name="LDAU"> F  </i>
  <i type="int" name="I_CONSTRAINED_M">     0</i>
  <separator name="electronic exchange-correlation" >
   <i type="string" name="GGA">--</i>
   <i type="int" name="VOSKOWN">     0</i>
   <i type="logical" name="LHFCALC"> F  </i>
   <i type="string" name="PRECFOCK"></i>
   <i type="logical" name="LSYMGRAD"> F  </i>
   <i type="logical" name="LHFONE"> F  </i>
   <i type="logical" name="LRHFCALC"> F  </i>
   <i type="logical" name="LTHOMAS"> F  </i>
   <i type="logical" name="LMODELHF"> F  </i>
   <i name="ENCUT4O">     -1.00000000</i>
   <i type="int" name="EXXOEP">     0</i>
   <i type="int" name="FOURORBIT">     0</i>
   <i name="AEXX">      0.00000000</i>
   <i name="HFALPHA">      0.00000000</i>
   <i name="MCALPHA">      0.00000000</i>
   <i name="ALDAX">      1.00000000</i>
   <i name="AGGAX">      1.00000000</i>
   <i name="ALDAC">      1.00000000</i>
   <i name="AGGAC">      1.00000000</i>
   <i type="int" name="NKREDX">     1</i>
   <i type="int" name="NKREDY">     1</i>
   <i type="int" name="NKREDZ">     1</i>
   <i type="logical" name="SHIFTRED"> F  </i>
   <i type="logical" name="ODDONLY"> F  </i>
   <i type="logical" name="EVENONLY"> F  </i>
   <i type="int" name="LMAXFOCK">     0</i>
   <i type="int" name="NMAXFOCKAE">     0</i>
   <i type="logical" name="LFOCKAEDFT"> F  </i>
   <i name="HFSCREEN">      0.00000000</i>
   <i name="HFSCREENC">      0.00000000</i>
   <i type="int" name="NBANDSGWLOW">     0</i>
  </separator>
  <separator name="vdW DFT" >
   <i type="logical" name="LUSE_VDW"> F  </i>
   <i name="Zab_VDW">     -0.84910000</i>
   <i name="PARAM1">      0.12340000</i>
   <i name="PARAM2">      1.00000000</i>
   <i name="PARAM3">      0.00000000</i>
  </separator>
  <separator name="model GW" >
   <i type="int" name="MODEL_GW">     0</i>
   <i name="MODEL_EPS0">      8.63709588</i>
   <i name="MODEL_ALPHA">      1.00000000</i>
  </separator>
  <separator name="linear response parameters" >
   <i type="logical" name="LEPSILON"> F  </i>
   <i type="logical" name="LRPA"> F  </i>
   <i type="logical" name="LNABLA"> F  </i>
   <i type="logical" name="LVEL"> F  </i>
   <i type="int" name="KINTER">     0</i>
   <i name="CSHIFT">      0.10000000</i>
   <i name="OMEGAMAX">     -1.00000000</i>
   <i name="DEG_THRESHOLD">      0.00200000</i>
  </separator>
  <separator name="orbital magnetization" >
   <i type="logical" name="NUCIND"> F  </i>
   <v name="MAGPOS">      0.00000000      0.00000000      0.00000000</v>
   <i type="logical" name="LNICSALL"> T  </i>
   <i type="logical" name="ORBITALMAG"> F  </i>
   <i type="logical" name="LMAGBLOCH"> F  </i>
   <i type="logical" name="LCHIMAG"> F  </i>
   <i type="logical" name="LGAUGE"> T  </i>
   <i type="int" name="MAGATOM">     0</i>
   <v name="MAGDIPOL">      0.00000000      0.00000000      0.00000000</v>
   <v name="AVECCONST">      0.00000000      0.00000000      0.00000000</v>
  </separator>
  <separator name="response functions" >
   <i type="logical" name="LADDER"> F  </i>
   <i type="logical" name="LFXC"> F  </i>
   <i type="logical" name="LHARTREE"> T  </i>
   <i type="int" name="IBSE">     0</i>
   <v type="int" name="KPOINT">    -1     0     0     0</v>
   <i type="logical" name="LTCTE"> F  </i>
   <i type="logical" name="LTETE"> F  </i>
   <i type="logical" name="LTRIPLET"> F  </i>
   <i type="logical" name="LFXCEPS"> F  </i>
   <i type="logical" name="LFXHEG"> F  </i>
   <i type="int" name="NATURALO">     0</i>
   <i type="logical" name="L2ORDER"> F  </i>
   <i type="logical" name="LUSEW"> F  </i>
   <i name="ENCUTGW">     -2.00000000</i>
   <i name="ENCUTGWSOFT">     -2.00000000</i>
   <i name="ENCUTLF">     -1.00000000</i>
   <i type="int" name="LMAXMP2">    -1</i>
   <i name="SCISSOR">      0.00000000</i>
   <i type="int" name="NOMEGA">     0</i>
   <i type="int" name="NOMEGAR">     0</i>
   <i type="int" name="NBANDSGW">    -1</i>
   <i type="int" name="NBANDSO">    -1</i>
   <i type="int" name="NBANDSV">    -1</i>
   <i type="int" name="NELM">     1</i>
   <i type="int" name="NELMHF">     1</i>
   <i type="int" name="DIM">     3</i>
   <i type="int" name="ANTIRES">     0</i>
   <i name="OMEGAMAX">    -30.00000000</i>
   <i name="OMEGAMIN">    -30.00000000</i>
   <i name="OMEGATL">   -200.00000000</i>
   <i type="int" name="OMEGAGRID">     0</i>
   <i name="CSHIFT">     -0.10000000</i>
   <i type="logical" name="SELFENERGY"> F  </i>
   <i type="logical" name="LSPECTRAL"> F  </i>
   <i type="logical" name="LSPECTRALGW"> F  </i>
   <i type="logical" name="LSINGLES"> F  </i>
   <i type="logical" name="LFERMIGW"> F  </i>
   <i type="logical" name="ODDONLYGW"> F  </i>
   <i type="logical" name="EVENONLYGW"> F  </i>
   <i type="int" name="NKREDLFX">     1</i>
   <i type="int" name="NKREDLFY">     1</i>
   <i type="int" name="NKREDLFZ">     1</i>
   <i type="int" name="MAXMEM">  1800</i>
   <i type="int" name="TELESCOPE">     0</i>
   <i type="int" name="TAUPAR">     1</i>
   <i type="int" name="OMEGAPAR">    -1</i>
   <i name="LAMBDA">      1.00000000</i>
  </separator>
  <separator name="External order field" >
   <i name="OFIELD_KAPPA">      0.00000000</i>
   <v name="OFIELD_K">      0.00000000      0.00000000      0.00000000</v>
   <i name="OFIELD_Q6_NEAR">      0.00000000</i>
   <i name="OFIELD_Q6_FAR">      0.00000000</i>
   <i name="OFIELD_A">      0.00000000</i>
  </separator>
 </parameters>
 <atominfo>
  <atoms>      96 </atoms>
  <types>       2 </types>
  <array name="atoms" >
   <dimension dim="1">ion</dimension>
   <field type="string">element</field>
   <field type="int">atomtype</field>
   <set>
    <rc><c>Ir</c><c>   1</c></rc>
    <rc><c>Ir</c><c>   1</c></rc>
    <rc><c>Ir</c><c>   1</c></rc>
    <rc><c>Ir</c><c>   1</c></rc>
    <rc><c>Ir</c><c>   1</c></rc>
    <rc><c>Ir</c><c>   1</c></rc>
    <rc><c>Ir</c><c>   1</c></rc>
    <rc><c>Ir</c><c>   1</c></rc>
    <rc><c>Ir</c><c>   1</c></rc>
    <rc><c>Ir</c><c>   1</c></rc>
    <rc><c>Ir</c><c>   1</c></rc>
    <rc><c>Ir</c><c>   1</c></rc>
    <rc><c>Ir</c><c>   1</c></rc>
    <rc><c>Ir</c><c>   1</c></rc>
    <rc><c>Ir</c><c>   1</c></rc>
    <rc><c>Ir</c><c>   1</c></rc>
    <rc><c>Ir</c><c>   1</c></rc>
    <rc><c>Ir</c><c>   1</c></rc>
    <rc><c>Ir</c><c>   1</c></rc>
    <rc><c>Ir</c><c>   1</c></rc>
    <rc><c>Ir</c><c>   1</c></rc>
    <rc><c>Ir</c><c>   1</c></rc>
    <rc><c>Ir</c><c>   1</c></rc>
    <rc><c>Ir</c><c>   1</c></rc>
    <rc><c>Ir</c><c>   1</c></rc>
    <rc><c>Ir</c><c>   1</c></rc>
    <rc><c>Ir</c><c>   1</c></rc>
    <rc><c>Ir</c><c>   1</c></rc>
    <rc><c>Ir</c><c>   1</c></rc>
    <rc><c>Ir</c><c>   1</c></rc>
    <rc><c>Ir</c><c>   1</c></rc>
    <rc><c>Ir</c><c>   1</c></rc>
    <rc><c>Ir</c><c>   1</c></rc>
    <rc><c>Ir</c><c>   1</c></rc>
    <rc><c>Ir</c><c>   1</c></rc>
    <rc><c>Ir</c><c>   1</c></rc>
    <rc><c>Ir</c><c>   1</c></rc>
    <rc><c>Ir</c><c>   1</c></rc>
    <rc><c>Ir</c><c>   1</c></rc>
    <rc><c>Ir</c><c>   1</c></rc>
    <rc><c>Ir</c><c>   1</c></rc>
    <rc><c>Ir</c><c>   1</c></rc>
    <rc><c>Ir</c><c>   1</c></rc>
    <rc><c>Ir</c><c>   1</c></rc>
    <rc><c>Ir</c><c>   1</c></rc>
    <rc><c>Ir</c><c>   1</c></rc>
    <rc><c>Ir</c><c>   1</c></rc>
    <rc><c>Ir</c><c>   1</c></rc>
    <rc><c>Ir</c><c>   1</c></rc>
    <rc><c>Ir</c><c>   1</c></rc>
    <rc><c>Ir</c><c>   1</c></rc>
    <rc><c>Ir</c><c>   1</c></rc>
    <rc><c>Ir</c><c>   1</c></rc>
    <rc><c>Ir</c><c>   1</c></rc>
    <rc><c>Ir</c><c>   1</c></rc>
    <rc><c>Ir</c><c>   1</c></rc>
    <rc><c>Ir</c><c>   1</c></rc>
    <rc><c>Ir</c><c>   1</c></rc>
    <rc><c>Ir</c><c>   1</c></rc>
    <rc><c>Ir</c><c>   1</c></rc>
    <rc><c>Ir</c><c>   1</c></rc>
    <rc><c>Ir</c><c>   1</c></rc>
    <rc><c>Ir</c><c>   1</c></rc>
    <rc><c>Ir</c><c>   1</c></rc>
    <rc><c>Ir</c><c>   1</c></rc>
    <rc><c>Ir</c><c>   1</c></rc>
    <rc><c>Ir</c><c>   1</c></rc>
    <rc><c>Ir</c><c>   1</c></rc>
    <rc><c>Ir</c><c>   1</c></rc>
    <rc><c>Ir</c><c>   1</c></rc>
    <rc><c>Ir</c><c>   1</c></rc>
    <rc><c>Ir</c><c>   1</c></rc>
    <rc><c>Ru</c><c>   2</c></rc>
    <rc><c>Ru</c><c>   2</c></rc>
    <rc><c>Ru</c><c>   2</c></rc>
    <rc><c>Ru</c><c>   2</c></rc>
    <rc><c>Ru</c><c>   2</c></rc>
    <rc><c>Ru</c><c>   2</c></rc>
    <rc><c>Ru</c><c>   2</c></rc>
    <rc><c>Ru</c><c>   2</c></rc>
    <rc><c>Ru</c><c>   2</c></rc>
    <rc><c>Ru</c><c>   2</c></rc>
    <rc><c>Ru</c><c>   2</c></rc>
    <rc><c>Ru</c><c>   2</c></rc>
    <rc><c>Ru</c><c>   2</c></rc>
    <rc><c>Ru</c><c>   2</c></rc>
    <rc><c>Ru</c><c>   2</c></rc>
    <rc><c>Ru</c><c>   2</c></rc>
    <rc><c>Ru</c><c>   2</c></rc>
    <rc><c>Ru</c><c>   2</c></rc>
    <rc><c>Ru</c><c>   2</c></rc>
    <rc><c>Ru</c><c>   2</c></rc>
    <rc><c>Ru</c><c>   2</c></rc>
    <rc><c>Ru</c><c>   2</c></rc>
    <rc><c>Ru</c><c>   2</c></rc>
    <rc><c>Ru</c><c>   2</c></rc>
   </set>
  </array>
  <array name="atomtypes" >
   <dimension dim="1">type</dimension>
   <field type="int">atomspertype</field>
   <field type="string">element</field>
   <field>mass</field>
   <field>valence</field>
   <field type="string">pseudopotential</field>
   <set>
    <rc><c>  72</c><c>Ir</c><c>    192.22000000</c><c>      9.00000000</c><c> PAW_PBE Ir 06Sep2000                   </c></rc>
    <rc><c>  24</c><c>Ru</c><c>    101.07000000</c><c>      8.00000000</c><c> PAW_PBE Ru 06Sep2000                   </c></rc>
   </set>
  </array>
 </atominfo>
 <structure name="initialpos" >
  <crystal>
   <varray name="basis" >
    <v>     -10.98934000       0.00008000       4.40450000 </v>
    <v>       5.49474000      -9.51700000       4.40450000 </v>
    <v>       5.49460000       9.51692000       4.40450000 </v>
   </varray>
   <i name="volume">   1381.93534042 </i>
   <varray name="rec_basis" >
    <v>      -0.06066485      -0.00000045       0.07568018 </v>
    <v>       0.03033204      -0.05253756       0.07568018 </v>
    <v>       0.03033281       0.05253801       0.07568018 </v>
   </varray>
  </crystal>
  <varray name="positions" >
   <v>       0.91667167       0.00022667       0.33310167 </v>
   <v>       0.83357500       0.16642500       0.25000000 </v>
   <v>       0.99977000       0.08333000       0.16690000 </v>
   <v>       0.24999667       0.16643667       0.33356667 </v>
   <v>       0.16689333       0.08333833       0.49976833 </v>
   <v>       0.33309167       0.00024167       0.41666667 </v>
   <v>       0.41667167       0.50022667       0.33310167 </v>
   <v>       0.33357500       0.66642500       0.25000000 </v>
   <v>       0.49977000       0.58333000       0.16690000 </v>
   <v>       0.74999667       0.66643667       0.33356667 </v>
   <v>       0.66689333       0.58333833       0.49976833 </v>
   <v>       0.83309167       0.50024167       0.41666667 </v>
   <v>       0.08333833       0.66689333       0.49976833 </v>
   <v>       0.00024167       0.83309167       0.41666667 </v>
   <v>       0.16643667       0.74999667       0.33356667 </v>
   <v>       0.41666333       0.83310333       0.50023333 </v>
   <v>       0.33356000       0.75000500       0.66643500 </v>
   <v>       0.49975833       0.66690833       0.58333333 </v>
   <v>       0.58333833       0.16689333       0.49976833 </v>
   <v>       0.50024167       0.33309167       0.41666667 </v>
   <v>       0.66644000       0.24999500       0.33356500 </v>
   <v>       0.91666333       0.33310333       0.50023333 </v>
   <v>       0.83356333       0.25000333       0.66643333 </v>
   <v>       0.99975833       0.16690833       0.58333333 </v>
   <v>       0.25000500       0.33356000       0.66643500 </v>
   <v>       0.16690833       0.49975833       0.58333333 </v>
   <v>       0.33310333       0.41666333       0.50023333 </v>
   <v>       0.58333000       0.49977000       0.66690000 </v>
   <v>       0.50022667       0.41667167       0.83310167 </v>
   <v>       0.66642500       0.33357500       0.75000000 </v>
   <v>       0.91667167       0.50022667       0.83310167 </v>
   <v>       0.83357500       0.66642500       0.75000000 </v>
   <v>       0.99977000       0.58333000       0.66690000 </v>
   <v>       0.24999667       0.66643667       0.83356667 </v>
   <v>       0.16689667       0.58333667       0.99976667 </v>
   <v>       0.33309167       0.50024167       0.91666667 </v>
   <v>       0.41667167       0.00022667       0.83310167 </v>
   <v>       0.33357500       0.16642500       0.75000000 </v>
   <v>       0.49977333       0.08332833       0.66689833 </v>
   <v>       0.74999667       0.16643667       0.83356667 </v>
   <v>       0.66689667       0.08333667       0.99976667 </v>
   <v>       0.83309167       0.00024167       0.91666667 </v>
   <v>       0.08333833       0.16689333       0.99976833 </v>
   <v>       0.00024167       0.33309167       0.91666667 </v>
   <v>       0.16644000       0.24999500       0.83356500 </v>
   <v>       0.41666333       0.33310333       0.00023333 </v>
   <v>       0.33356000       0.25000500       0.16643500 </v>
   <v>       0.49975833       0.16690833       0.08333333 </v>
   <v>       0.75000500       0.83356000       0.66643500 </v>
   <v>       0.66690833       0.99975833       0.58333333 </v>
   <v>       0.83310667       0.91666167       0.50023167 </v>
   <v>       0.08333000       0.99977000       0.66690000 </v>
   <v>       0.00022667       0.91667167       0.83310167 </v>
   <v>       0.16642500       0.83357500       0.75000000 </v>
   <v>       0.58333833       0.66689333       0.99976833 </v>
   <v>       0.50024167       0.83309167       0.91666667 </v>
   <v>       0.66644000       0.74999500       0.83356500 </v>
   <v>       0.91666333       0.83310333       0.00023333 </v>
   <v>       0.83356000       0.75000500       0.16643500 </v>
   <v>       0.99975833       0.66690833       0.08333333 </v>
   <v>       0.25000500       0.83356000       0.16643500 </v>
   <v>       0.16690833       0.99975833       0.08333333 </v>
   <v>       0.33310333       0.91666333       0.00023333 </v>
   <v>       0.58333000       0.99977000       0.16690000 </v>
   <v>       0.50022667       0.91667167       0.33310167 </v>
   <v>       0.66642500       0.83357500       0.25000000 </v>
   <v>       0.75000500       0.33356000       0.16643500 </v>
   <v>       0.66690833       0.49975833       0.08333333 </v>
   <v>       0.83310333       0.41666333       0.00023333 </v>
   <v>       0.08333000       0.49977000       0.16690000 </v>
   <v>       0.00022667       0.41667167       0.33310167 </v>
   <v>       0.16642500       0.33357500       0.25000000 </v>
   <v>       0.08399500       0.92028500       0.25214000 </v>
   <v>       0.08332667       0.25000667       0.41666667 </v>
   <v>       0.58334000       0.41666000       0.25000000 </v>
   <v>       0.58332667       0.75000667       0.41666667 </v>
   <v>       0.25000667       0.58332667       0.41666667 </v>
   <v>       0.24999333       0.91667333       0.58333333 </v>
   <v>       0.75000667       0.08332667       0.41666667 </v>
   <v>       0.74999333       0.41667333       0.58333333 </v>
   <v>       0.41667333       0.24999333       0.58333333 </v>
   <v>       0.41666000       0.58334000       0.75000000 </v>
   <v>       0.08334000       0.41666000       0.75000000 </v>
   <v>       0.08332667       0.75000667       0.91666667 </v>
   <v>       0.58334000       0.91666000       0.75000000 </v>
   <v>       0.58332667       0.25000667       0.91666667 </v>
   <v>       0.25000667       0.08332667       0.91666667 </v>
   <v>       0.24999333       0.41667333       0.08333333 </v>
   <v>       0.91667333       0.74999333       0.58333333 </v>
   <v>       0.91666000       0.08334000       0.75000000 </v>
   <v>       0.75000667       0.58332667       0.91666667 </v>
   <v>       0.74999333       0.91667333       0.08333333 </v>
   <v>       0.41667333       0.74999333       0.08333333 </v>
   <v>       0.41666000       0.08334000       0.25000000 </v>
   <v>       0.91667333       0.24999333       0.08333333 </v>
   <v>       0.91666000       0.58334000       0.25000000 </v>
  </varray>
 </structure>
 <calculation>
  <scstep>
   <time name="diag">   19.72   19.78</time>
   <time name="diis">   29.35   29.39</time>
   <time name="orth">    6.87    6.88</time>
   <time name="total">   55.99   56.10</time>
   <energy>
    <i name="alphaZ">   7084.49813302 </i>
    <i name="ewald"> -62903.05355910 </i>
    <i name="hartreedc">  -3905.98274392 </i>
    <i name="XCdc">  -1992.88779155 </i>
    <i name="pawpsdc">  42085.03955087 </i>
    <i name="pawaedc"> -37971.12201991 </i>
    <i name="eentropy">      0.00486216 </i>
    <i name="bandstr">  11772.91458662 </i>
    <i name="atom">  51250.07572940 </i>
    <i name="e_fr_energy">   5419.48674760 </i>
    <i name="e_wo_entrp">   5419.48188543 </i>
    <i name="e_0_energy">   5419.48512688 </i>
   </energy>
  </scstep>
  <scstep>
   <time name="diag">   19.99   20.18</time>
   <time name="diis">   29.19   29.49</time>
   <time name="orth">    6.85    6.85</time>
   <time name="total">   56.03   56.54</time>
   <energy>
    <i name="e_fr_energy">    594.59445179 </i>
    <i name="e_wo_entrp">    594.59392146 </i>
    <i name="e_0_energy">    594.59427501 </i>
   </energy>
  </scstep>
  <scstep>
   <time name="diag">   20.65   20.68</time>
   <time name="diis">   29.24   29.28</time>
   <time name="orth">    6.88    6.89</time>
   <time name="total">   56.77   56.84</time>
   <energy>
    <i name="e_fr_energy">   -356.94471940 </i>
    <i name="e_wo_entrp">   -356.95632376 </i>
    <i name="e_0_energy">   -356.94858752 </i>
   </energy>
  </scstep>
  <scstep>
   <time name="diag">   21.13   21.20</time>
   <time name="diis">   29.17   29.51</time>
   <time name="orth">    7.56    7.59</time>
   <time name="total">   57.87   58.31</time>
   <energy>
    <i name="e_fr_energy">   -674.25962591 </i>
    <i name="e_wo_entrp">   -674.26546389 </i>
    <i name="e_0_energy">   -674.26157190 </i>
   </energy>
  </scstep>
  <scstep>
   <time name="diag">   23.13   23.39</time>
   <time name="diis">   29.33   29.70</time>
   <time name="orth">    7.51    7.53</time>
   <time name="total">   59.99   60.66</time>
   <energy>
    <i name="e_fr_energy">   -783.18484708 </i>
    <i name="e_wo_entrp">   -783.18108255 </i>
    <i name="e_0_energy">   -783.18359224 </i>
   </energy>
  </scstep>
  <scstep>
   <time name="diag">   24.81   25.00</time>
   <time name="diis">   29.25   29.44</time>
   <time name="orth">    7.61    7.65</time>
   <time name="total">   61.69   62.10</time>
   <energy>
    <i name="e_fr_energy">   -838.72901314 </i>
    <i name="e_wo_entrp">   -838.72712810 </i>
    <i name="e_0_energy">   -838.72838480 </i>
   </energy>
  </scstep>
  <scstep>
   <time name="diag">   23.51   23.85</time>
   <time name="diis">   29.07   29.58</time>
   <time name="orth">    9.24    9.28</time>
   <time name="total">   61.83   62.72</time>
   <energy>
    <i name="e_fr_energy">   -867.51632373 </i>
    <i name="e_wo_entrp">   -867.52001580 </i>
    <i name="e_0_energy">   -867.51755442 </i>
   </energy>
  </scstep>
  <scstep>
   <time name="diag">   23.63   23.75</time>
   <time name="diis">   29.42   29.66</time>
   <time name="orth">    9.10    9.10</time>
   <time name="total">   62.16   62.52</time>
   <energy>
    <i name="e_fr_energy">   -884.60258793 </i>
    <i name="e_wo_entrp">   -884.60549209 </i>
    <i name="e_0_energy">   -884.60355598 </i>
   </energy>
  </scstep>
  <scstep>
   <time name="diag">   24.69   24.83</time>
   <time name="diis">   83.74   84.67</time>
   <time name="orth">    6.89    6.89</time>
   <time name="total">  115.32  116.40</time>
   <energy>
    <i name="e_fr_energy">   -910.91334493 </i>
    <i name="e_wo_entrp">   -910.91243279 </i>
    <i name="e_0_energy">   -910.91304088 </i>
   </energy>
  </scstep>
  <scstep>
   <time name="diag">   21.04   21.08</time>
   <time name="diis">   95.82   96.06</time>
   <time name="orth">    6.90    6.90</time>
   <time name="total">  123.77  124.05</time>
   <energy>
    <i name="e_fr_energy">   -914.69726979 </i>
    <i name="e_wo_entrp">   -914.69594352 </i>
    <i name="e_0_energy">   -914.69682770 </i>
   </energy>
  </scstep>
  <scstep>
   <time name="diag">   20.32   20.65</time>
   <time name="diis">   96.32   96.76</time>
   <time name="orth">    7.75    7.76</time>
   <time name="total">  124.39  125.18</time>
   <energy>
    <i name="e_fr_energy">   -915.61653974 </i>
    <i name="e_wo_entrp">   -915.61639436 </i>
    <i name="e_0_energy">   -915.61649128 </i>
   </energy>
  </scstep>
  <scstep>
   <time name="diag">   19.69   19.71</time>
   <time name="diis">   96.89   97.22</time>
   <time name="orth">    8.28    8.43</time>
   <time name="total">  126.38  126.87</time>
   <energy>
    <i name="e_fr_energy">   -915.76524649 </i>
    <i name="e_wo_entrp">   -915.76491232 </i>
    <i name="e_0_energy">   -915.76513510 </i>
   </energy>
  </scstep>
  <scstep>
   <time name="diag">   18.74   18.74</time>
   <time name="diis">   64.87   65.56</time>
   <time name="orth">    7.74    7.74</time>
   <time name="total">   92.88   93.59</time>
   <energy>
    <i name="e_fr_energy">   -871.20427275 </i>
    <i name="e_wo_entrp">   -871.18355639 </i>
    <i name="e_0_energy">   -871.19736730 </i>
   </energy>
  </scstep>
  <scstep>
   <time name="diag">   19.24   19.31</time>
   <time name="diis">   65.04   66.14</time>
   <time name="orth">    6.95    6.97</time>
   <time name="total">   92.78   93.97</time>
   <energy>
    <i name="e_fr_energy">   -876.49745219 </i>
    <i name="e_wo_entrp">   -876.47736453 </i>
    <i name="e_0_energy">   -876.49075630 </i>
   </energy>
  </scstep>
  <scstep>
   <time name="diag">   25.12   25.34</time>
   <time name="diis">   66.39   66.95</time>
   <time name="orth">    6.93    6.94</time>
   <time name="total">   99.97  100.76</time>
   <energy>
    <i name="e_fr_energy">   -859.11750223 </i>
    <i name="e_wo_entrp">   -859.09789510 </i>
    <i name="e_0_energy">   -859.11096652 </i>
   </energy>
  </scstep>
  <scstep>
   <time name="diag">   24.04   24.19</time>
   <time name="diis">   84.52   85.69</time>
   <time name="orth">    8.04    8.10</time>
   <time name="total">  118.21  119.60</time>
   <energy>
    <i name="e_fr_energy">   -859.15442443 </i>
    <i name="e_wo_entrp">   -859.13849673 </i>
    <i name="e_0_energy">   -859.14911519 </i>
   </energy>
  </scstep>
  <scstep>
   <time name="diag">   24.53   24.71</time>
   <time name="diis">   76.67   77.65</time>
   <time name="orth">    6.91    6.91</time>
   <time name="total">  109.72  110.88</time>
   <energy>
    <i name="e_fr_energy">   -859.05665024 </i>
    <i name="e_wo_entrp">   -859.03977121 </i>
    <i name="e_0_energy">   -859.05102389 </i>
   </energy>
  </scstep>
  <scstep>
   <time name="diag">   20.78   20.97</time>
   <time name="diis">   74.67   74.93</time>
   <time name="orth">    7.51    7.52</time>
   <time name="total">  104.46  104.98</time>
   <energy>
    <i name="e_fr_energy">   -858.93783149 </i>
    <i name="e_wo_entrp">   -858.91982756 </i>
    <i name="e_0_energy">   -858.93183018 </i>
   </energy>
  </scstep>
  <scstep>
   <time name="diag">   19.79   19.84</time>
   <time name="diis">   80.20   80.29</time>
   <time name="orth">    6.74    6.74</time>
   <time name="total">  108.25  108.38</time>
   <energy>
    <i name="e_fr_energy">   -858.93879917 </i>
    <i name="e_wo_entrp">   -858.91975964 </i>
    <i name="e_0_energy">   -858.93245266 </i>
   </energy>
  </scstep>
  <scstep>
   <time name="diag">   20.17   20.29</time>
   <time name="diis">   85.10   85.27</time>
   <time name="orth">    7.17    7.17</time>
   <time name="total">  113.96  114.25</time>
   <energy>
    <i name="e_fr_energy">   -858.93624038 </i>
    <i name="e_wo_entrp">   -858.91729816 </i>
    <i name="e_0_energy">   -858.92992631 </i>
   </energy>
  </scstep>
  <scstep>
   <time name="diag">   19.20   19.30</time>
   <time name="diis">   75.72   75.84</time>
   <time name="orth">    6.74    6.75</time>
   <time name="total">  103.18  103.39</time>
   <energy>
    <i name="e_fr_energy">   -858.92704711 </i>
    <i name="e_wo_entrp">   -858.90871279 </i>
    <i name="e_0_energy">   -858.92093567 </i>
   </energy>
  </scstep>
  <scstep>
   <time name="diag">   20.19   20.21</time>
   <time name="diis">   85.67   86.42</time>
   <time name="orth">    8.10    8.43</time>
   <time name="total">  115.51  116.62</time>
   <energy>
    <i name="e_fr_energy">   -858.92731386 </i>
    <i name="e_wo_entrp">   -858.90912883 </i>
    <i name="e_0_energy">   -858.92125218 </i>
   </energy>
  </scstep>
  <scstep>
   <time name="diag">   21.35   21.47</time>
   <time name="diis">   78.14   79.23</time>
   <time name="orth">   10.60   10.66</time>
   <time name="total">  111.54  112.94</time>
   <energy>
    <i name="e_fr_energy">   -858.92727750 </i>
    <i name="e_wo_entrp">   -858.90907829 </i>
    <i name="e_0_energy">   -858.92121110 </i>
   </energy>
  </scstep>
  <scstep>
   <time name="diag">   22.73   23.28</time>
   <time name="diis">   74.64   75.85</time>
   <time name="orth">    8.25    8.27</time>
   <time name="total">  107.22  109.06</time>
   <energy>
    <i name="e_fr_energy">   -858.92709829 </i>
    <i name="e_wo_entrp">   -858.90884833 </i>
    <i name="e_0_energy">   -858.92101497 </i>
   </energy>
  </scstep>
  <scstep>
   <time name="diag">   22.62   23.28</time>
   <time name="diis">   78.85   79.22</time>
   <time name="orth">    7.61    7.61</time>
   <time name="total">  109.12  110.15</time>
   <energy>
    <i name="alphaZ">   7084.49813302 </i>
    <i name="ewald"> -62903.05355910 </i>
    <i name="hartreedc">  -3006.11106580 </i>
    <i name="XCdc">  -2001.77606896 </i>
    <i name="pawpsdc">  47513.09717094 </i>
    <i name="pawaedc"> -43673.29598005 </i>
    <i name="eentropy">     -0.01826528 </i>
    <i name="bandstr">   4877.65682109 </i>
    <i name="atom">  51250.07572940 </i>
    <i name="e_fr_energy">   -858.92708473 </i>
    <i name="e_wo_entrp">   -858.90881945 </i>
    <i name="e_0_energy">   -858.92099630 </i>
   </energy>
  </scstep>
  <structure>
   <crystal>
    <varray name="basis" >
     <v>     -10.98934000       0.00008000       4.40450000 </v>
     <v>       5.49474000      -9.51700000       4.40450000 </v>
     <v>       5.49460000       9.51692000       4.40450000 </v>
    </varray>
    <i name="volume">   1381.93534042 </i>
    <varray name="rec_basis" >
     <v>      -0.06066485      -0.00000045       0.07568018 </v>
     <v>       0.03033204      -0.05253756       0.07568018 </v>
     <v>       0.03033281       0.05253801       0.07568018 </v>
    </varray>
   </crystal>
   <varray name="positions" >
    <v>       0.91667167       0.00022667       0.33310167 </v>
    <v>       0.83357500       0.16642500       0.25000000 </v>
    <v>       0.99977000       0.08333000       0.16690000 </v>
    <v>       0.24999667       0.16643667       0.33356667 </v>
    <v>       0.16689333       0.08333833       0.49976833 </v>
    <v>       0.33309167       0.00024167       0.41666667 </v>
    <v>       0.41667167       0.50022667       0.33310167 </v>
    <v>       0.33357500       0.66642500       0.25000000 </v>
    <v>       0.49977000       0.58333000       0.16690000 </v>
    <v>       0.74999667       0.66643667       0.33356667 </v>
    <v>       0.66689333       0.58333833       0.49976833 </v>
    <v>       0.83309167       0.50024167       0.41666667 </v>
    <v>       0.08333833       0.66689333       0.49976833 </v>
    <v>       0.00024167       0.83309167       0.41666667 </v>
    <v>       0.16643667       0.74999667       0.33356667 </v>
    <v>       0.41666333       0.83310333       0.50023333 </v>
    <v>       0.33356000       0.75000500       0.66643500 </v>
    <v>       0.49975833       0.66690833       0.58333333 </v>
    <v>       0.58333833       0.16689333       0.49976833 </v>
    <v>       0.50024167       0.33309167       0.41666667 </v>
    <v>       0.66644000       0.24999500       0.33356500 </v>
    <v>       0.91666333       0.33310333       0.50023333 </v>
    <v>       0.83356333       0.25000333       0.66643333 </v>
    <v>       0.99975833       0.16690833       0.58333333 </v>
    <v>       0.25000500       0.33356000       0.66643500 </v>
    <v>       0.16690833       0.49975833       0.58333333 </v>
    <v>       0.33310333       0.41666333       0.50023333 </v>
    <v>       0.58333000       0.49977000       0.66690000 </v>
    <v>       0.50022667       0.41667167       0.83310167 </v>
    <v>       0.66642500       0.33357500       0.75000000 </v>
    <v>       0.91667167       0.50022667       0.83310167 </v>
    <v>       0.83357500       0.66642500       0.75000000 </v>
    <v>       0.99977000       0.58333000       0.66690000 </v>
    <v>       0.24999667       0.66643667       0.83356667 </v>
    <v>       0.16689667       0.58333667       0.99976667 </v>
    <v>       0.33309167       0.50024167       0.91666667 </v>
    <v>       0.41667167       0.00022667       0.83310167 </v>
    <v>       0.33357500       0.16642500       0.75000000 </v>
    <v>       0.49977333       0.08332833       0.66689833 </v>
    <v>       0.74999667       0.16643667       0.83356667 </v>
    <v>       0.66689667       0.08333667       0.99976667 </v>
    <v>       0.83309167       0.00024167       0.91666667 </v>
    <v>       0.08333833       0.16689333       0.99976833 </v>
    <v>       0.00024167       0.33309167       0.91666667 </v>
    <v>       0.16644000       0.24999500       0.83356500 </v>
    <v>       0.41666333       0.33310333       0.00023333 </v>
    <v>       0.33356000       0.25000500       0.16643500 </v>
    <v>       0.49975833       0.16690833       0.08333333 </v>
    <v>       0.75000500       0.83356000       0.66643500 </v>
    <v>       0.66690833       0.99975833       0.58333333 </v>
    <v>       0.83310667       0.91666167       0.50023167 </v>
    <v>       0.08333000       0.99977000       0.66690000 </v>
    <v>       0.00022667       0.91667167       0.83310167 </v>
    <v>       0.16642500       0.83357500       0.75000000 </v>
    <v>       0.58333833       0.66689333       0.99976833 </v>
    <v>       0.50024167       0.83309167       0.91666667 </v>
    <v>       0.66644000       0.74999500       0.83356500 </v>
    <v>       0.91666333       0.83310333       0.00023333 </v>
    <v>       0.83356000       0.75000500       0.16643500 </v>
    <v>       0.99975833       0.66690833       0.08333333 </v>
    <v>       0.25000500       0.83356000       0.16643500 </v>
    <v>       0.16690833       0.99975833       0.08333333 </v>
    <v>       0.33310333       0.91666333       0.00023333 </v>
    <v>       0.58333000       0.99977000       0.16690000 </v>
    <v>       0.50022667       0.91667167       0.33310167 </v>
    <v>       0.66642500       0.83357500       0.25000000 </v>
    <v>       0.75000500       0.33356000       0.16643500 </v>
    <v>       0.66690833       0.49975833       0.08333333 </v>
    <v>       0.83310333       0.41666333       0.00023333 </v>
    <v>       0.08333000       0.49977000       0.16690000 </v>
    <v>       0.00022667       0.41667167       0.33310167 </v>
    <v>       0.16642500       0.33357500       0.25000000 </v>
    <v>       0.08399500       0.92028500       0.25214000 </v>
    <v>       0.08332667       0.25000667       0.41666667 </v>
    <v>       0.58334000       0.41666000       0.25000000 </v>
    <v>       0.58332667       0.75000667       0.41666667 </v>
    <v>       0.25000667       0.58332667       0.41666667 </v>
    <v>       0.24999333       0.91667333       0.58333333 </v>
    <v>       0.75000667       0.08332667       0.41666667 </v>
    <v>       0.74999333       0.41667333       0.58333333 </v>
    <v>       0.41667333       0.24999333       0.58333333 </v>
    <v>       0.41666000       0.58334000       0.75000000 </v>
    <v>       0.08334000       0.41666000       0.75000000 </v>
    <v>       0.08332667       0.75000667       0.91666667 </v>
    <v>       0.58334000       0.91666000       0.75000000 </v>
    <v>       0.58332667       0.25000667       0.91666667 </v>
    <v>       0.25000667       0.08332667       0.91666667 </v>
    <v>       0.24999333       0.41667333       0.08333333 </v>
    <v>       0.91667333       0.74999333       0.58333333 </v>
    <v>       0.91666000       0.08334000       0.75000000 </v>
    <v>       0.75000667       0.58332667       0.91666667 </v>
    <v>       0.74999333       0.91667333       0.08333333 </v>
    <v>       0.41667333       0.74999333       0.08333333 </v>
    <v>       0.41666000       0.08334000       0.25000000 </v>
    <v>       0.91667333       0.24999333       0.08333333 </v>
    <v>       0.91666000       0.58334000       0.25000000 </v>
   </varray>
  </structure>
  <varray name="forces" >
   <v>       0.04881735       0.03510654      -0.00273458 </v>
   <v>       0.02695093      -0.01653089       0.00091188 </v>
   <v>      -0.00586115      -0.05942420      -0.00277244 </v>
   <v>       0.00091990      -0.09577222       0.08828676 </v>
   <v>       0.08148259       0.04761139       0.08755657 </v>
   <v>      -0.02143889       0.01258928      -0.00122716 </v>
   <v>       0.00013844       0.02232648      -0.00167448 </v>
   <v>       0.02740398      -0.01535641       0.00036349 </v>
   <v>      -0.02089173      -0.01144332      -0.00088028 </v>
   <v>      -0.00303279      -0.02195280      -0.00074019 </v>
   <v>       0.01846099       0.01261964      -0.00348861 </v>
   <v>      -0.01899934       0.01231480       0.00070892 </v>
   <v>       0.00554746       0.01659364       0.00086643 </v>
   <v>       0.01125135      -0.02685057      -0.00137997 </v>
   <v>       0.00641455      -0.02697735      -0.00181718 </v>
   <v>      -0.00043578      -0.02630953      -0.00143166 </v>
   <v>       0.01831588       0.01104910       0.00082683 </v>
   <v>      -0.02160426       0.01288186      -0.00231107 </v>
   <v>       0.00988975       0.02314215       0.00401155 </v>
   <v>       0.01369732      -0.01751193       0.00568006 </v>
   <v>      -0.01742930      -0.00980307      -0.00084348 </v>
   <v>      -0.00199500      -0.02155605       0.00016121 </v>
   <v>       0.01234162       0.01024194      -0.00553152 </v>
   <v>      -0.01041088       0.01465788       0.00279034 </v>
   <v>       0.00537670       0.01901620       0.00738621 </v>
   <v>       0.02076887      -0.00860870       0.00042063 </v>
   <v>      -0.01018994      -0.02343605       0.00771737 </v>
   <v>      -0.00100179      -0.02074222      -0.00060701 </v>
   <v>       0.01742851       0.01008505       0.00074528 </v>
   <v>      -0.02085410       0.01308354       0.00020009 </v>
   <v>       0.00908759       0.02541817       0.00762424 </v>
   <v>       0.02005449      -0.00926530       0.00527009 </v>
   <v>      -0.01802150      -0.01254054      -0.00017938 </v>
   <v>      -0.00182275      -0.02077140      -0.00027213 </v>
   <v>       0.02777506       0.00787861       0.00427851 </v>
   <v>      -0.02669169       0.01285382      -0.00584165 </v>
   <v>       0.00129962       0.01918047      -0.00055364 </v>
   <v>       0.02270567      -0.00564995       0.00610079 </v>
   <v>      -0.02146556      -0.01338005       0.00317984 </v>
   <v>      -0.00058923      -0.02026280      -0.00269041 </v>
   <v>       0.01781135       0.01001290       0.00043106 </v>
   <v>      -0.01591711       0.01005705       0.00082880 </v>
   <v>       0.00396194       0.01660821       0.00115308 </v>
   <v>       0.02047802      -0.01172301      -0.00187709 </v>
   <v>      -0.01592478      -0.00913306      -0.00117065 </v>
   <v>       0.00065439      -0.01834200      -0.00423440 </v>
   <v>       0.01879467       0.00639161       0.00436168 </v>
   <v>      -0.02018156       0.01288715      -0.00030752 </v>
   <v>       0.00016602       0.01926377      -0.00139797 </v>
   <v>       0.01918240      -0.01120297      -0.00112111 </v>
   <v>      -0.01218232      -0.01212794      -0.00025909 </v>
   <v>       0.00354046      -0.01952185       0.00466268 </v>
   <v>       0.01342467       0.01018575      -0.00095616 </v>
   <v>      -0.02177206       0.01033823      -0.00155268 </v>
   <v>       0.00841145       0.01883580       0.00294719 </v>
   <v>       0.02043821      -0.01380057      -0.00114835 </v>
   <v>      -0.01715359      -0.00705841       0.00213242 </v>
   <v>       0.00064218       0.00318043       0.02508336 </v>
   <v>      -0.00271772      -0.00131571       0.02421978 </v>
   <v>       0.04848841      -0.02871317       0.09214040 </v>
   <v>       0.02662398       0.00629859      -0.00217117 </v>
   <v>       0.03016629       0.00363101      -0.00182192 </v>
   <v>      -0.01339301      -0.01126865       0.00124018 </v>
   <v>      -0.00056104      -0.02083503      -0.00104459 </v>
   <v>       0.02293176       0.01261377       0.00025795 </v>
   <v>      -0.01761253       0.01090140       0.00259503 </v>
   <v>      -0.00124791       0.02231051      -0.00028251 </v>
   <v>       0.01782399      -0.01039705       0.00452466 </v>
   <v>      -0.01143964      -0.02680403       0.00780936 </v>
   <v>       0.00634304      -0.02410561       0.00283222 </v>
   <v>       0.01479535       0.01470863      -0.00214579 </v>
   <v>      -0.02250953       0.00584687       0.00107529 </v>
   <v>      -0.32743121       0.18908404      -0.38886099 </v>
   <v>       0.01535727      -0.00915007       0.01437721 </v>
   <v>       0.00228277      -0.00199425      -0.00248129 </v>
   <v>      -0.00049972       0.00007721       0.00550220 </v>
   <v>       0.00552332      -0.01021651      -0.00275855 </v>
   <v>      -0.00704251       0.00925399      -0.00333185 </v>
   <v>       0.00926007      -0.00268800      -0.00376853 </v>
   <v>      -0.00384085       0.00749033       0.00081695 </v>
   <v>      -0.00014583       0.00173682       0.01168773 </v>
   <v>       0.00121235      -0.00118702       0.00087606 </v>
   <v>      -0.00002697      -0.00136265      -0.00181513 </v>
   <v>       0.00841172       0.01258724       0.00875778 </v>
   <v>       0.00050978       0.00207187      -0.00304133 </v>
   <v>      -0.00743351      -0.00058936       0.00161131 </v>
   <v>       0.00083324      -0.00202128      -0.00317352 </v>
   <v>       0.00012363      -0.00002614       0.00573723 </v>
   <v>       0.00301477       0.00102315      -0.00330123 </v>
   <v>      -0.00023976       0.00029612       0.00564005 </v>
   <v>      -0.00135718      -0.00062024       0.01216045 </v>
   <v>      -0.00515214       0.00401563      -0.00909457 </v>
   <v>       0.01057640       0.00081526      -0.00328357 </v>
   <v>      -0.01006020       0.00115713      -0.00283464 </v>
   <v>       0.00726820      -0.00762776      -0.00264358 </v>
   <v>      -0.00660231      -0.01435333       0.00830745 </v>
  </varray>
  <varray name="stress" >
   <v>     -27.77329067       0.03396908       0.01794839 </v>
   <v>       0.03396900     -27.73063813      -0.00835819 </v>
   <v>       0.01794817      -0.00835826     -26.91758893 </v>
  </varray>
  <energy>
   <i name="e_fr_energy">   -858.92708473 </i>
   <i name="e_wo_entrp">   -858.92099630 </i>
   <i name="e_0_energy">     -0.01826528 </i>
  </energy>
  <time name="totalsc"> 2505.34 2525.33</time>
  <eigenvalues>
   <array>
    <dimension dim="1">band</dimension>
    <dimension dim="2">kpoint</dimension>
    <dimension dim="3">spin</dimension>
    <field>eigene</field>
    <field>occ</field>
    <set>
     <set comment="spin 1">
      <set comment="kpoint 1">
       <r>   -0.5356    1.0000 </r>
       <r>    1.2205    1.0000 </r>
       <r>    1.2212    1.0000 </r>
       <r>    1.2231    1.0000 </r>
       <r>    1.2299    1.0000 </r>
       <r>    1.2329    1.0000 </r>
       <r>    1.2330    1.0000 </r>
       <r>    1.2333    1.0000 </r>
       <r>    1.2335    1.0000 </r>
       <r>    1.2375    1.0000 </r>
       <r>    1.6851    1.0000 </r>
       <r>    1.6867    1.0000 </r>
       <r>    1.6869    1.0000 </r>
       <r>    2.1907    1.0000 </r>
       <r>    2.3238    1.0000 </r>
       <r>    2.3241    1.0000 </r>
       <r>    2.4732    1.0000 </r>
       <r>    2.4740    1.0000 </r>
       <r>    2.4749    1.0000 </r>
       <r>    2.4754    1.0000 </r>
       <r>    2.4760    1.0000 </r>
       <r>    2.4770    1.0000 </r>
       <r>    2.5003    1.0000 </r>
       <r>    2.5025    1.0000 </r>
       <r>    2.5028    1.0000 </r>
       <r>    2.5032    1.0000 </r>
       <r>    2.5035    1.0000 </r>
       <r>    2.5055    1.0000 </r>
       <r>    2.6739    1.0000 </r>
       <r>    2.7245    1.0000 </r>
       <r>    2.7258    1.0000 </r>
       <r>    2.7274    1.0000 </r>
       <r>    2.7283    1.0000 </r>
       <r>    2.7286    1.0000 </r>
       <r>    2.7291    1.0000 </r>
       <r>    2.7660    1.0000 </r>
       <r>    2.7662    1.0000 </r>
       <r>    2.7669    1.0000 </r>
       <r>    2.7675    1.0000 </r>
       <r>    2.7684    1.0000 </r>
       <r>    2.7688    1.0000 </r>
       <r>    2.8256    1.0000 </r>
       <r>    2.8258    1.0000 </r>
       <r>    3.1380    1.0000 </r>
       <r>    3.1391    1.0000 </r>
       <r>    3.1393    1.0000 </r>
       <r>    3.1405    1.0000 </r>
       <r>    3.1407    1.0000 </r>
       <r>    3.1422    1.0000 </r>
       <r>    3.1458    1.0000 </r>
       <r>    3.3017    1.0000 </r>
       <r>    3.3412    1.0000 </r>
       <r>    3.3435    1.0000 </r>
       <r>    3.3440    1.0000 </r>
       <r>    3.3452    1.0000 </r>
       <r>    3.3460    1.0000 </r>
       <r>    3.3469    1.0000 </r>
       <r>    3.3601    1.0000 </r>
       <r>    3.3603    1.0000 </r>
       <r>    3.3619    1.0000 </r>
       <r>    3.3742    1.0000 </r>
       <r>    3.3748    1.0000 </r>
       <r>    3.3758    1.0000 </r>
       <r>    3.4507    1.0000 </r>
       <r>    3.4532    1.0000 </r>
       <r>    3.4559    1.0000 </r>
       <r>    3.4565    1.0000 </r>
       <r>    3.4569    1.0000 </r>
       <r>    3.4577    1.0000 </r>
       <r>    3.4579    1.0000 </r>
       <r>    3.4589    1.0000 </r>
       <r>    3.5113    1.0000 </r>
       <r>    3.5126    1.0000 </r>
       <r>    3.5130    1.0000 </r>
       <r>    3.5560    1.0000 </r>
       <r>    3.5570    1.0000 </r>
       <r>    3.5576    1.0000 </r>
       <r>    3.6680    1.0000 </r>
       <r>    3.6686    1.0000 </r>
       <r>    3.6769    1.0000 </r>
       <r>    3.6805    1.0000 </r>
       <r>    3.6839    1.0000 </r>
       <r>    3.7149    1.0000 </r>
       <r>    3.7155    1.0000 </r>
       <r>    3.7162    1.0000 </r>
       <r>    3.7168    1.0000 </r>
       <r>    3.7173    1.0000 </r>
       <r>    3.7185    1.0000 </r>
       <r>    3.8833    1.0000 </r>
       <r>    3.8844    1.0000 </r>
       <r>    3.8847    1.0000 </r>
       <r>    3.9911    1.0000 </r>
       <r>    3.9914    1.0000 </r>
       <r>    3.9928    1.0000 </r>
       <r>    3.9933    1.0000 </r>
       <r>    4.0601    1.0000 </r>
       <r>    4.0610    1.0000 </r>
       <r>    4.0623    1.0000 </r>
       <r>    4.0629    1.0000 </r>
       <r>    4.0896    1.0000 </r>
       <r>    4.0903    1.0000 </r>
       <r>    4.0923    1.0000 </r>
       <r>    4.0932    1.0000 </r>
       <r>    4.0939    1.0000 </r>
       <r>    4.0956    1.0000 </r>
       <r>    4.1613    1.0000 </r>
       <r>    4.1641    1.0000 </r>
       <r>    4.1647    1.0000 </r>
       <r>    4.1656    1.0000 </r>
       <r>    4.1666    1.0000 </r>
       <r>    4.1694    1.0000 </r>
       <r>    4.1756    1.0000 </r>
       <r>    4.1793    1.0000 </r>
       <r>    4.2323    1.0000 </r>
       <r>    4.2362    1.0000 </r>
       <r>    4.2365    1.0000 </r>
       <r>    4.2366    1.0000 </r>
       <r>    4.2368    1.0000 </r>
       <r>    4.2402    1.0000 </r>
       <r>    4.2941    1.0000 </r>
       <r>    4.2951    1.0000 </r>
       <r>    4.2955    1.0000 </r>
       <r>    4.3134    1.0000 </r>
       <r>    4.3149    1.0000 </r>
       <r>    4.3159    1.0000 </r>
       <r>    4.4600    1.0000 </r>
       <r>    4.4609    1.0000 </r>
       <r>    4.5406    1.0000 </r>
       <r>    4.5431    1.0000 </r>
       <r>    4.5434    1.0000 </r>
       <r>    4.5461    1.0000 </r>
       <r>    4.6398    1.0000 </r>
       <r>    4.6398    1.0000 </r>
       <r>    4.6411    1.0000 </r>
       <r>    4.6879    1.0000 </r>
       <r>    4.6883    1.0000 </r>
       <r>    4.6901    1.0000 </r>
       <r>    4.8277    1.0000 </r>
       <r>    4.8299    1.0000 </r>
       <r>    4.8303    1.0000 </r>
       <r>    4.8318    1.0000 </r>
       <r>    4.8486    1.0000 </r>
       <r>    4.8507    1.0000 </r>
       <r>    4.8519    1.0000 </r>
       <r>    4.8630    1.0000 </r>
       <r>    4.8638    1.0000 </r>
       <r>    4.8788    1.0000 </r>
       <r>    4.8808    1.0000 </r>
       <r>    4.8813    1.0000 </r>
       <r>    4.8816    1.0000 </r>
       <r>    4.8821    1.0000 </r>
       <r>    4.8841    1.0000 </r>
       <r>    4.9013    1.0000 </r>
       <r>    4.9033    1.0000 </r>
       <r>    4.9036    1.0000 </r>
       <r>    4.9048    1.0000 </r>
       <r>    4.9052    1.0000 </r>
       <r>    4.9065    1.0000 </r>
       <r>    5.1027    1.0000 </r>
       <r>    5.1039    1.0000 </r>
       <r>    5.1042    1.0000 </r>
       <r>    5.1224    1.0000 </r>
       <r>    5.1238    1.0000 </r>
       <r>    5.1239    1.0000 </r>
       <r>    5.1513    1.0000 </r>
       <r>    5.1515    1.0000 </r>
       <r>    5.1519    1.0000 </r>
       <r>    5.1523    1.0000 </r>
       <r>    5.1523    1.0000 </r>
       <r>    5.1530    1.0000 </r>
       <r>    5.1764    1.0000 </r>
       <r>    5.1773    1.0000 </r>
       <r>    5.2506    1.0000 </r>
       <r>    5.2514    1.0000 </r>
       <r>    5.2519    1.0000 </r>
       <r>    5.2523    1.0000 </r>
       <r>    5.2528    1.0000 </r>
       <r>    5.2535    1.0000 </r>
       <r>    5.4360    1.0000 </r>
       <r>    5.4364    1.0000 </r>
       <r>    5.4372    1.0000 </r>
       <r>    5.4867    1.0000 </r>
       <r>    5.4878    1.0000 </r>
       <r>    5.4898    1.0000 </r>
       <r>    5.4907    1.0000 </r>
       <r>    5.4922    1.0000 </r>
       <r>    5.4935    1.0000 </r>
       <r>    5.6085    1.0000 </r>
       <r>    5.6102    1.0000 </r>
       <r>    5.6115    1.0000 </r>
       <r>    5.6351    1.0000 </r>
       <r>    5.6361    1.0000 </r>
       <r>    5.6369    1.0000 </r>
       <r>    5.6372    1.0000 </r>
       <r>    5.6379    1.0000 </r>
       <r>    5.6397    1.0000 </r>
       <r>    5.6853    1.0000 </r>
       <r>    5.6887    1.0000 </r>
       <r>    5.6911    1.0000 </r>
       <r>    5.7088    1.0000 </r>
       <r>    5.7568    1.0000 </r>
       <r>    5.7585    1.0000 </r>
       <r>    5.8011    1.0000 </r>
       <r>    5.8041    1.0000 </r>
       <r>    5.8045    1.0000 </r>
       <r>    5.8058    1.0000 </r>
       <r>    5.8060    1.0000 </r>
       <r>    5.8075    1.0000 </r>
       <r>    5.8138    1.0000 </r>
       <r>    5.8158    1.0000 </r>
       <r>    5.8172    1.0000 </r>
       <r>    5.8204    1.0000 </r>
       <r>    5.9061    1.0000 </r>
       <r>    5.9064    1.0000 </r>
       <r>    5.9582    1.0000 </r>
       <r>    5.9585    1.0000 </r>
       <r>    5.9594    1.0000 </r>
       <r>    5.9597    1.0000 </r>
       <r>    6.2481    1.0000 </r>
       <r>    6.2505    1.0000 </r>
       <r>    6.2533    1.0000 </r>
       <r>    6.2541    1.0000 </r>
       <r>    6.2741    1.0000 </r>
       <r>    6.2760    1.0000 </r>
       <r>    6.2766    1.0000 </r>
       <r>    6.2769    1.0000 </r>
       <r>    6.2785    1.0000 </r>
       <r>    6.2790    1.0000 </r>
       <r>    6.2826    1.0000 </r>
       <r>    6.2834    1.0000 </r>
       <r>    6.2844    1.0000 </r>
       <r>    6.2847    1.0000 </r>
       <r>    6.2848    1.0000 </r>
       <r>    6.3984    1.0000 </r>
       <r>    6.3997    1.0000 </r>
       <r>    6.3998    1.0000 </r>
       <r>    6.4069    1.0000 </r>
       <r>    6.4102    1.0000 </r>
       <r>    6.4110    1.0000 </r>
       <r>    6.4113    1.0000 </r>
       <r>    6.4120    1.0000 </r>
       <r>    6.4145    1.0000 </r>
       <r>    6.4456    1.0000 </r>
       <r>    6.4481    1.0000 </r>
       <r>    6.4486    1.0000 </r>
       <r>    6.4491    1.0000 </r>
       <r>    6.4499    1.0000 </r>
       <r>    6.4521    1.0000 </r>
       <r>    6.5345    1.0000 </r>
       <r>    6.5351    1.0000 </r>
       <r>    6.5389    1.0000 </r>
       <r>    6.5392    1.0000 </r>
       <r>    6.5396    1.0000 </r>
       <r>    6.5398    1.0000 </r>
       <r>    6.5435    1.0000 </r>
       <r>    6.6759    1.0000 </r>
       <r>    6.6764    1.0000 </r>
       <r>    6.6779    1.0000 </r>
       <r>    6.6814    1.0000 </r>
       <r>    6.6846    1.0000 </r>
       <r>    6.6995    1.0000 </r>
       <r>    6.7000    1.0000 </r>
       <r>    6.7014    1.0000 </r>
       <r>    6.7490    1.0000 </r>
       <r>    6.7505    1.0000 </r>
       <r>    6.7512    1.0000 </r>
       <r>    6.7943    1.0000 </r>
       <r>    6.7988    1.0000 </r>
       <r>    6.8040    1.0000 </r>
       <r>    6.8053    1.0000 </r>
       <r>    6.8059    1.0000 </r>
       <r>    6.8063    1.0000 </r>
       <r>    6.8070    1.0000 </r>
       <r>    6.8078    1.0000 </r>
       <r>    6.8475    1.0000 </r>
       <r>    6.8507    1.0000 </r>
       <r>    6.9469    1.0000 </r>
       <r>    6.9469    1.0000 </r>
       <r>    6.9626    1.0000 </r>
       <r>    6.9690    1.0000 </r>
       <r>    6.9721    1.0000 </r>
       <r>    6.9734    1.0000 </r>
       <r>    6.9736    1.0000 </r>
       <r>    6.9745    1.0000 </r>
       <r>    6.9760    1.0000 </r>
       <r>    6.9778    1.0000 </r>
       <r>    6.9790    1.0000 </r>
       <r>    6.9796    1.0000 </r>
       <r>    6.9834    1.0000 </r>
       <r>    7.0429    1.0000 </r>
       <r>    7.0441    1.0000 </r>
       <r>    7.0461    1.0000 </r>
       <r>    7.1020    1.0000 </r>
       <r>    7.1025    1.0000 </r>
       <r>    7.1040    1.0000 </r>
       <r>    7.1046    1.0000 </r>
       <r>    7.1053    1.0000 </r>
       <r>    7.1612    1.0000 </r>
       <r>    7.1627    1.0000 </r>
       <r>    7.1634    1.0000 </r>
       <r>    7.1638    1.0000 </r>
       <r>    7.1648    1.0000 </r>
       <r>    7.1655    1.0000 </r>
       <r>    7.1807    1.0000 </r>
       <r>    7.1813    1.0000 </r>
       <r>    7.1821    1.0000 </r>
       <r>    7.1830    1.0000 </r>
       <r>    7.1842    1.0000 </r>
       <r>    7.1848    1.0000 </r>
       <r>    7.2146    1.0000 </r>
       <r>    7.2159    1.0000 </r>
       <r>    7.2188    1.0000 </r>
       <r>    7.3629    1.0000 </r>
       <r>    7.3655    1.0000 </r>
       <r>    7.3691    1.0000 </r>
       <r>    7.4293    1.0000 </r>
       <r>    7.5121    1.0000 </r>
       <r>    7.5136    1.0000 </r>
       <r>    7.5141    1.0000 </r>
       <r>    7.5156    1.0000 </r>
       <r>    7.5170    1.0000 </r>
       <r>    7.5185    1.0000 </r>
       <r>    7.5768    1.0000 </r>
       <r>    7.5791    1.0000 </r>
       <r>    7.5884    1.0000 </r>
       <r>    7.5904    1.0000 </r>
       <r>    7.8766    1.0000 </r>
       <r>    7.8785    1.0000 </r>
       <r>    7.8798    1.0000 </r>
       <r>    7.8816    1.0000 </r>
       <r>    7.8821    1.0000 </r>
       <r>    7.8842    1.0000 </r>
       <r>    7.9375    1.0000 </r>
       <r>    7.9380    1.0000 </r>
       <r>    7.9399    1.0000 </r>
       <r>    7.9419    1.0000 </r>
       <r>    7.9425    1.0000 </r>
       <r>    7.9439    1.0000 </r>
       <r>    7.9540    1.0000 </r>
       <r>    7.9553    1.0000 </r>
       <r>    7.9558    1.0000 </r>
       <r>    8.0139    1.0000 </r>
       <r>    8.0142    1.0000 </r>
       <r>    8.0179    1.0000 </r>
       <r>    8.0546    1.0000 </r>
       <r>    8.0573    1.0000 </r>
       <r>    8.0574    1.0000 </r>
       <r>    8.0575    1.0000 </r>
       <r>    8.0577    1.0000 </r>
       <r>    8.0606    1.0000 </r>
       <r>    8.0692    1.0000 </r>
       <r>    8.0696    1.0000 </r>
       <r>    8.0996    1.0000 </r>
       <r>    8.1011    1.0000 </r>
       <r>    8.1023    1.0000 </r>
       <r>    8.1033    1.0000 </r>
       <r>    8.2015    1.0000 </r>
       <r>    8.2062    1.0000 </r>
       <r>    8.2089    1.0000 </r>
       <r>    8.3018    1.0000 </r>
       <r>    8.3024    1.0000 </r>
       <r>    8.3030    1.0000 </r>
       <r>    8.5439    1.0000 </r>
       <r>    8.5465    1.0000 </r>
       <r>    8.5473    1.0000 </r>
       <r>    8.5486    1.0000 </r>
       <r>    8.5492    1.0000 </r>
       <r>    8.5498    1.0000 </r>
       <r>    8.5501    1.0000 </r>
       <r>    8.5510    1.0000 </r>
       <r>    8.5532    1.0000 </r>
       <r>    8.5708    1.0000 </r>
       <r>    8.5711    1.0000 </r>
       <r>    8.6273    1.0000 </r>
       <r>    8.6286    1.0000 </r>
       <r>    8.6289    1.0000 </r>
       <r>    8.6297    1.0000 </r>
       <r>    8.6314    1.0000 </r>
       <r>    8.6315    1.0000 </r>
       <r>    8.6636    1.0000 </r>
       <r>    8.6641    1.0000 </r>
       <r>    8.6675    1.0000 </r>
       <r>    8.6983    1.0000 </r>
       <r>    8.6998    1.0000 </r>
       <r>    8.7008    1.0000 </r>
       <r>    8.7015    1.0000 </r>
       <r>    8.7027    1.0000 </r>
       <r>    8.7039    1.0000 </r>
       <r>    8.8347    1.0000 </r>
       <r>    8.8361    1.0000 </r>
       <r>    8.8382    1.0000 </r>
       <r>    8.8391    1.0000 </r>
       <r>    8.8417    1.0000 </r>
       <r>    8.8428    1.0000 </r>
       <r>    8.8876    1.0000 </r>
       <r>    8.8912    1.0000 </r>
       <r>    8.8919    1.0000 </r>
       <r>    9.0051    1.0000 </r>
       <r>    9.0065    1.0000 </r>
       <r>    9.0070    1.0000 </r>
       <r>    9.0075    1.0000 </r>
       <r>    9.0096    1.0000 </r>
       <r>    9.0103    1.0000 </r>
       <r>    9.0377    1.0000 </r>
       <r>    9.0383    1.0000 </r>
       <r>    9.0400    1.0000 </r>
       <r>    9.3576    1.0000 </r>
       <r>    9.3597    1.0000 </r>
       <r>    9.3884    1.0000 </r>
       <r>    9.3891    1.0000 </r>
       <r>    9.3896    1.0000 </r>
       <r>    9.3897    1.0000 </r>
       <r>    9.5191    1.0019 </r>
       <r>    9.5745    1.0132 </r>
       <r>    9.5761    1.0138 </r>
       <r>    9.5766    1.0140 </r>
       <r>    9.5779    1.0145 </r>
       <r>    9.6561    1.0268 </r>
       <r>    9.6563    1.0266 </r>
       <r>    9.7571    0.5057 </r>
       <r>    9.7577    0.5005 </r>
       <r>    9.7581    0.4969 </r>
       <r>    9.7586    0.4925 </r>
       <r>    9.7590    0.4894 </r>
       <r>    9.7595    0.4852 </r>
       <r>    9.8048    0.1463 </r>
       <r>    9.8056    0.1417 </r>
       <r>    9.8071    0.1336 </r>
       <r>    9.8079    0.1289 </r>
       <r>    9.8099    0.1184 </r>
       <r>    9.8121    0.1070 </r>
       <r>   10.0140   -0.0009 </r>
       <r>   10.0142   -0.0009 </r>
       <r>   10.0153   -0.0008 </r>
       <r>   10.0158   -0.0008 </r>
       <r>   10.0163   -0.0008 </r>
       <r>   10.0170   -0.0008 </r>
       <r>   10.1152   -0.0000 </r>
       <r>   10.1161   -0.0000 </r>
       <r>   10.1173   -0.0000 </r>
       <r>   10.1173   -0.0000 </r>
       <r>   10.1184   -0.0000 </r>
       <r>   10.1197   -0.0000 </r>
       <r>   10.1484   -0.0000 </r>
       <r>   10.1487   -0.0000 </r>
       <r>   10.1514   -0.0000 </r>
       <r>   10.1520   -0.0000 </r>
       <r>   10.1784   -0.0000 </r>
       <r>   10.1808   -0.0000 </r>
       <r>   10.3279   -0.0000 </r>
       <r>   10.3283   -0.0000 </r>
       <r>   10.3587   -0.0000 </r>
       <r>   10.3595   -0.0000 </r>
       <r>   10.3605   -0.0000 </r>
       <r>   10.3613   -0.0000 </r>
       <r>   10.3786   -0.0000 </r>
       <r>   10.3798   -0.0000 </r>
       <r>   10.3813   -0.0000 </r>
       <r>   10.3994   -0.0000 </r>
       <r>   10.4002   -0.0000 </r>
       <r>   10.4008   -0.0000 </r>
       <r>   10.4134   -0.0000 </r>
       <r>   10.4679   -0.0000 </r>
       <r>   10.4689   -0.0000 </r>
       <r>   10.4702   -0.0000 </r>
       <r>   10.4704   -0.0000 </r>
       <r>   10.4717   -0.0000 </r>
       <r>   10.4720   -0.0000 </r>
       <r>   10.4772   -0.0000 </r>
       <r>   10.4783   -0.0000 </r>
       <r>   10.4798   -0.0000 </r>
       <r>   10.5225   -0.0000 </r>
       <r>   10.5250   -0.0000 </r>
       <r>   10.5254   -0.0000 </r>
       <r>   10.5262   -0.0000 </r>
       <r>   10.5272   -0.0000 </r>
       <r>   10.5296   -0.0000 </r>
       <r>   10.5483   -0.0000 </r>
       <r>   10.5497   -0.0000 </r>
       <r>   10.5711   -0.0000 </r>
       <r>   10.5726   -0.0000 </r>
       <r>   10.5773   -0.0000 </r>
       <r>   10.6401   -0.0000 </r>
       <r>   10.6453   -0.0000 </r>
       <r>   10.6665   -0.0000 </r>
       <r>   10.6780   -0.0000 </r>
       <r>   10.6983   -0.0000 </r>
       <r>   10.7297   -0.0000 </r>
       <r>   10.7610   -0.0000 </r>
       <r>   10.7742   -0.0000 </r>
       <r>   10.7930   -0.0000 </r>
       <r>   10.8111   -0.0000 </r>
       <r>   10.8574   -0.0000 </r>
       <r>   10.8706   -0.0000 </r>
       <r>   10.8721   -0.0000 </r>
       <r>   10.9061   -0.0000 </r>
       <r>   10.9133   -0.0000 </r>
       <r>   10.9237   -0.0000 </r>
       <r>   10.9294   -0.0000 </r>
       <r>   10.9420   -0.0000 </r>
       <r>   10.9564   -0.0000 </r>
       <r>   10.9690   -0.0000 </r>
       <r>   10.9809   -0.0000 </r>
       <r>   10.9983   -0.0000 </r>
       <r>   12.5557    0.0000 </r>
       <r>   12.6076    0.0000 </r>
       <r>   12.7118    0.0000 </r>
       <r>   12.8166    0.0000 </r>
       <r>   13.0068    0.0000 </r>
       <r>   13.1229    0.0000 </r>
       <r>   13.2794    0.0000 </r>
       <r>   13.6967    0.0000 </r>
      </set>
      <set comment="kpoint 2">
       <r>   -0.4560    1.0000 </r>
       <r>    0.6517    1.0000 </r>
       <r>    1.0338    1.0000 </r>
       <r>    1.0349    1.0000 </r>
       <r>    1.1085    1.0000 </r>
       <r>    1.1097    1.0000 </r>
       <r>    1.2809    1.0000 </r>
       <r>    1.5173    1.0000 </r>
       <r>    1.5184    1.0000 </r>
       <r>    1.7381    1.0000 </r>
       <r>    1.8503    1.0000 </r>
       <r>    1.8551    1.0000 </r>
       <r>    1.8561    1.0000 </r>
       <r>    2.0341    1.0000 </r>
       <r>    2.2158    1.0000 </r>
       <r>    2.3645    1.0000 </r>
       <r>    2.3658    1.0000 </r>
       <r>    2.3891    1.0000 </r>
       <r>    2.4030    1.0000 </r>
       <r>    2.4254    1.0000 </r>
       <r>    2.4299    1.0000 </r>
       <r>    2.4302    1.0000 </r>
       <r>    2.5029    1.0000 </r>
       <r>    2.5345    1.0000 </r>
       <r>    2.5359    1.0000 </r>
       <r>    2.5891    1.0000 </r>
       <r>    2.6373    1.0000 </r>
       <r>    2.6527    1.0000 </r>
       <r>    2.6569    1.0000 </r>
       <r>    2.6581    1.0000 </r>
       <r>    2.6818    1.0000 </r>
       <r>    2.7114    1.0000 </r>
       <r>    2.7304    1.0000 </r>
       <r>    2.7312    1.0000 </r>
       <r>    2.7330    1.0000 </r>
       <r>    2.7659    1.0000 </r>
       <r>    2.7709    1.0000 </r>
       <r>    2.7796    1.0000 </r>
       <r>    2.8397    1.0000 </r>
       <r>    2.8985    1.0000 </r>
       <r>    2.8988    1.0000 </r>
       <r>    2.9325    1.0000 </r>
       <r>    2.9418    1.0000 </r>
       <r>    2.9527    1.0000 </r>
       <r>    3.0108    1.0000 </r>
       <r>    3.0595    1.0000 </r>
       <r>    3.0603    1.0000 </r>
       <r>    3.0897    1.0000 </r>
       <r>    3.0909    1.0000 </r>
       <r>    3.2375    1.0000 </r>
       <r>    3.2386    1.0000 </r>
       <r>    3.2503    1.0000 </r>
       <r>    3.2540    1.0000 </r>
       <r>    3.2627    1.0000 </r>
       <r>    3.2707    1.0000 </r>
       <r>    3.2718    1.0000 </r>
       <r>    3.3424    1.0000 </r>
       <r>    3.3435    1.0000 </r>
       <r>    3.3543    1.0000 </r>
       <r>    3.3754    1.0000 </r>
       <r>    3.3764    1.0000 </r>
       <r>    3.3921    1.0000 </r>
       <r>    3.3942    1.0000 </r>
       <r>    3.4107    1.0000 </r>
       <r>    3.4126    1.0000 </r>
       <r>    3.4135    1.0000 </r>
       <r>    3.4617    1.0000 </r>
       <r>    3.4628    1.0000 </r>
       <r>    3.4637    1.0000 </r>
       <r>    3.4675    1.0000 </r>
       <r>    3.4683    1.0000 </r>
       <r>    3.4693    1.0000 </r>
       <r>    3.4805    1.0000 </r>
       <r>    3.4843    1.0000 </r>
       <r>    3.4854    1.0000 </r>
       <r>    3.4876    1.0000 </r>
       <r>    3.5694    1.0000 </r>
       <r>    3.6101    1.0000 </r>
       <r>    3.6114    1.0000 </r>
       <r>    3.6323    1.0000 </r>
       <r>    3.6373    1.0000 </r>
       <r>    3.6754    1.0000 </r>
       <r>    3.7057    1.0000 </r>
       <r>    3.7170    1.0000 </r>
       <r>    3.7194    1.0000 </r>
       <r>    3.7403    1.0000 </r>
       <r>    3.7636    1.0000 </r>
       <r>    3.7933    1.0000 </r>
       <r>    3.8807    1.0000 </r>
       <r>    3.8814    1.0000 </r>
       <r>    3.8849    1.0000 </r>
       <r>    3.8852    1.0000 </r>
       <r>    3.9283    1.0000 </r>
       <r>    3.9341    1.0000 </r>
       <r>    3.9361    1.0000 </r>
       <r>    4.0218    1.0000 </r>
       <r>    4.0401    1.0000 </r>
       <r>    4.0892    1.0000 </r>
       <r>    4.0905    1.0000 </r>
       <r>    4.0988    1.0000 </r>
       <r>    4.1196    1.0000 </r>
       <r>    4.1569    1.0000 </r>
       <r>    4.1579    1.0000 </r>
       <r>    4.1821    1.0000 </r>
       <r>    4.1876    1.0000 </r>
       <r>    4.1896    1.0000 </r>
       <r>    4.2086    1.0000 </r>
       <r>    4.2140    1.0000 </r>
       <r>    4.2151    1.0000 </r>
       <r>    4.2351    1.0000 </r>
       <r>    4.2366    1.0000 </r>
       <r>    4.2388    1.0000 </r>
       <r>    4.2405    1.0000 </r>
       <r>    4.2730    1.0000 </r>
       <r>    4.2741    1.0000 </r>
       <r>    4.2768    1.0000 </r>
       <r>    4.3129    1.0000 </r>
       <r>    4.3143    1.0000 </r>
       <r>    4.3160    1.0000 </r>
       <r>    4.3205    1.0000 </r>
       <r>    4.3636    1.0000 </r>
       <r>    4.3643    1.0000 </r>
       <r>    4.3779    1.0000 </r>
       <r>    4.4072    1.0000 </r>
       <r>    4.4269    1.0000 </r>
       <r>    4.4293    1.0000 </r>
       <r>    4.4469    1.0000 </r>
       <r>    4.4909    1.0000 </r>
       <r>    4.5530    1.0000 </r>
       <r>    4.5777    1.0000 </r>
       <r>    4.6242    1.0000 </r>
       <r>    4.6534    1.0000 </r>
       <r>    4.6555    1.0000 </r>
       <r>    4.6774    1.0000 </r>
       <r>    4.6966    1.0000 </r>
       <r>    4.7175    1.0000 </r>
       <r>    4.7183    1.0000 </r>
       <r>    4.7237    1.0000 </r>
       <r>    4.7443    1.0000 </r>
       <r>    4.7452    1.0000 </r>
       <r>    4.7589    1.0000 </r>
       <r>    4.7792    1.0000 </r>
       <r>    4.7832    1.0000 </r>
       <r>    4.7940    1.0000 </r>
       <r>    4.7953    1.0000 </r>
       <r>    4.8014    1.0000 </r>
       <r>    4.8414    1.0000 </r>
       <r>    4.8506    1.0000 </r>
       <r>    4.8511    1.0000 </r>
       <r>    4.8694    1.0000 </r>
       <r>    4.8701    1.0000 </r>
       <r>    4.8706    1.0000 </r>
       <r>    4.8796    1.0000 </r>
       <r>    4.8885    1.0000 </r>
       <r>    4.9170    1.0000 </r>
       <r>    4.9356    1.0000 </r>
       <r>    4.9366    1.0000 </r>
       <r>    4.9437    1.0000 </r>
       <r>    4.9445    1.0000 </r>
       <r>    4.9664    1.0000 </r>
       <r>    4.9683    1.0000 </r>
       <r>    4.9921    1.0000 </r>
       <r>    5.0448    1.0000 </r>
       <r>    5.0477    1.0000 </r>
       <r>    5.0706    1.0000 </r>
       <r>    5.0876    1.0000 </r>
       <r>    5.1091    1.0000 </r>
       <r>    5.1098    1.0000 </r>
       <r>    5.1186    1.0000 </r>
       <r>    5.1374    1.0000 </r>
       <r>    5.2271    1.0000 </r>
       <r>    5.2276    1.0000 </r>
[...]
       <r>     0.2150     5.6119     2.6564 </r>
       <r>     0.2715     5.8950     2.9893 </r>
       <r>     0.3279     4.9503     3.2688 </r>
       <r>     0.3844     4.7678     3.5381 </r>
       <r>     0.4409     6.1182     3.8836 </r>
       <r>     0.4974     7.8053     4.3243 </r>
       <r>     0.5538     8.9876     4.8319 </r>
       <r>     0.6103     8.5925     5.3171 </r>
       <r>     0.6668     7.3443     5.7318 </r>
       <r>     0.7232     6.9587     6.1248 </r>
       <r>     0.7797     6.1482     6.4720 </r>
       <r>     0.8362     5.8322     6.8013 </r>
       <r>     0.8926     8.7299     7.2943 </r>
       <r>     0.9491    12.3729     7.9930 </r>
       <r>     1.0056    13.2095     8.7389 </r>
       <r>     1.0621    11.9721     9.4150 </r>
       <r>     1.1185    10.2321     9.9928 </r>
       <r>     1.1750     8.6370    10.4805 </r>
       <r>     1.2315     8.5597    10.9639 </r>
       <r>     1.2879    10.4208    11.5524 </r>
       <r>     1.3444    13.6140    12.3211 </r>
       <r>     1.4009    16.3397    13.2438 </r>
       <r>     1.4573    16.7586    14.1902 </r>
       <r>     1.5138    14.8669    15.0297 </r>
       <r>     1.5703    10.4807    15.6216 </r>
       <r>     1.6268     7.3258    16.0353 </r>
       <r>     1.6832     9.4427    16.5685 </r>
       <r>     1.7397    13.6825    17.3412 </r>
       <r>     1.7962    16.0812    18.2493 </r>
       <r>     1.8526    18.2578    19.2803 </r>
       <r>     1.9091    18.3059    20.3140 </r>
       <r>     1.9656    14.6774    21.1428 </r>
       <r>     2.0220    15.6687    22.0277 </r>
       <r>     2.0785    22.1832    23.2803 </r>
       <r>     2.1350    28.2960    24.8782 </r>
       <r>     2.1915    32.3649    26.7059 </r>
       <r>     2.2479    37.0661    28.7990 </r>
       <r>     2.3044    50.2415    31.6361 </r>
       <r>     2.3609    69.9167    35.5843 </r>
       <r>     2.4173    79.2570    40.0600 </r>
       <r>     2.4738    75.5212    44.3247 </r>
       <r>     2.5303    70.8163    48.3236 </r>
       <r>     2.5867    67.2736    52.1226 </r>
       <r>     2.6432    65.6474    55.8297 </r>
       <r>     2.6997    69.8227    59.7726 </r>
       <r>     2.7562    76.5372    64.0946 </r>
       <r>     2.8126    83.8044    68.8271 </r>
       <r>     2.8691    90.4159    73.9329 </r>
       <r>     2.9256    92.7865    79.1725 </r>
       <r>     2.9820    97.5484    84.6811 </r>
       <r>     3.0385   109.1303    90.8437 </r>
       <r>     3.0950   113.0958    97.2302 </r>
       <r>     3.1514   106.1140   103.2225 </r>
       <r>     3.2079   104.6812   109.1338 </r>
       <r>     3.2644   109.8349   115.3362 </r>
       <r>     3.3209   113.7447   121.7593 </r>
       <r>     3.3773   121.3000   128.6092 </r>
       <r>     3.4338   130.2988   135.9671 </r>
       <r>     3.4903   127.6124   143.1734 </r>
       <r>     3.5467   114.9667   149.6656 </r>
       <r>     3.6032   108.0459   155.7669 </r>
       <r>     3.6597   105.3257   161.7147 </r>
       <r>     3.7161   102.1291   167.4819 </r>
       <r>     3.7726    99.4754   173.0993 </r>
       <r>     3.8291    93.9433   178.4043 </r>
       <r>     3.8856    92.6276   183.6349 </r>
       <r>     3.9420    92.1592   188.8392 </r>
       <r>     3.9985    89.4009   193.8876 </r>
       <r>     4.0550    99.1891   199.4889 </r>
       <r>     4.1114   112.4121   205.8368 </r>
       <r>     4.1679   121.7992   212.7148 </r>
       <r>     4.2244   135.1328   220.3457 </r>
       <r>     4.2808   142.5729   228.3968 </r>
       <r>     4.3373   137.1751   236.1431 </r>
       <r>     4.3938   126.2841   243.2744 </r>
       <r>     4.4503   114.5220   249.7414 </r>
       <r>     4.5067   100.9450   255.4418 </r>
       <r>     4.5632    91.4237   260.6045 </r>
       <r>     4.6197    91.5916   265.7767 </r>
       <r>     4.6761    96.2344   271.2110 </r>
       <r>     4.7326   109.1953   277.3773 </r>
       <r>     4.7891   126.6843   284.5311 </r>
       <r>     4.8455   132.4558   292.0109 </r>
       <r>     4.9020   132.7754   299.5087 </r>
       <r>     4.9585   135.8386   307.1796 </r>
       <r>     5.0150   133.8290   314.7369 </r>
       <r>     5.0714   133.8050   322.2929 </r>
       <r>     5.1279   137.4491   330.0546 </r>
       <r>     5.1844   128.4924   337.3106 </r>
       <r>     5.2408   102.6788   343.1088 </r>
       <r>     5.2973    81.7352   347.7244 </r>
       <r>     5.3538    79.8924   352.2360 </r>
       <r>     5.4102    79.2976   356.7139 </r>
       <r>     5.4667    69.4855   360.6377 </r>
       <r>     5.5232    59.1656   363.9788 </r>
       <r>     5.5797    58.6029   367.2881 </r>
       <r>     5.6361    75.8256   371.5700 </r>
       <r>     5.6926   110.1133   377.7881 </r>
       <r>     5.7491   145.7749   386.0200 </r>
       <r>     5.8055   164.7255   395.3221 </r>
       <r>     5.8620   164.0784   404.5876 </r>
       <r>     5.9185   163.4929   413.8200 </r>
       <r>     5.9749   163.4032   423.0474 </r>
       <r>     6.0314   150.2510   431.5321 </r>
       <r>     6.0879   134.0848   439.1038 </r>
       <r>     6.1444   135.7507   446.7697 </r>
       <r>     6.2008   149.5053   455.2122 </r>
       <r>     6.2573   153.2387   463.8656 </r>
       <r>     6.3138   148.6304   472.2588 </r>
       <r>     6.3702   143.5313   480.3640 </r>
       <r>     6.4267   136.9278   488.0963 </r>
       <r>     6.4832   133.6211   495.6419 </r>
       <r>     6.5396   140.6050   503.5819 </r>
       <r>     6.5961   155.2942   512.3513 </r>
       <r>     6.6526   165.2776   521.6846 </r>
       <r>     6.7091   163.1353   530.8968 </r>
       <r>     6.7655   159.6271   539.9110 </r>
       <r>     6.8220   166.8444   549.3327 </r>
       <r>     6.8785   163.7776   558.5812 </r>
       <r>     6.9349   142.0627   566.6035 </r>
       <r>     6.9914   133.8615   574.1626 </r>
       <r>     7.0479   148.6702   582.5580 </r>
       <r>     7.1043   165.2735   591.8910 </r>
       <r>     7.1608   167.0093   601.3221 </r>
       <r>     7.2173   150.6499   609.8293 </r>
       <r>     7.2738   127.6320   617.0366 </r>
       <r>     7.3302   112.6712   623.3992 </r>
       <r>     7.3867   113.2441   629.7941 </r>
       <r>     7.4432   125.0383   636.8550 </r>
       <r>     7.4996   130.0667   644.1999 </r>
       <r>     7.5561   125.0460   651.2612 </r>
       <r>     7.6126   123.9929   658.2631 </r>
       <r>     7.6691   122.1005   665.1581 </r>
       <r>     7.7255   111.5853   671.4593 </r>
       <r>     7.7820    96.0580   676.8837 </r>
       <r>     7.8385    87.8742   681.8460 </r>
       <r>     7.8949    92.4233   687.0651 </r>
       <r>     7.9514    96.0753   692.4905 </r>
       <r>     8.0079    94.8690   697.8478 </r>
       <r>     8.0643    97.3957   703.3477 </r>
       <r>     8.1208    96.0419   708.7712 </r>
       <r>     8.1773    84.6315   713.5503 </r>
       <r>     8.2338    77.6701   717.9364 </r>
       <r>     8.2902    80.9298   722.5065 </r>
       <r>     8.3467    85.3306   727.3251 </r>
       <r>     8.4032    82.2862   731.9718 </r>
       <r>     8.4596    74.0288   736.1522 </r>
       <r>     8.5161    73.2621   740.2893 </r>
       <r>     8.5726    80.1744   744.8168 </r>
       <r>     8.6290    83.6185   749.5387 </r>
       <r>     8.6855    80.2421   754.0700 </r>
       <r>     8.7420    69.1847   757.9768 </r>
       <r>     8.7985    58.9521   761.3058 </r>
       <r>     8.8549    61.3519   764.7704 </r>
       <r>     8.9114    68.2812   768.6262 </r>
       <r>     8.9679    76.9307   772.9705 </r>
       <r>     9.0243    83.7560   777.7002 </r>
       <r>     9.0808    78.0700   782.1088 </r>
       <r>     9.1373    63.8076   785.7120 </r>
       <r>     9.1937    60.4491   789.1256 </r>
       <r>     9.2502    71.9193   793.1869 </r>
       <r>     9.3067    80.1175   797.7111 </r>
       <r>     9.3632    83.1417   802.4061 </r>
       <r>     9.4196    90.0171   807.4894 </r>
       <r>     9.4761    98.1770   813.0335 </r>
       <r>     9.5326   101.5557   818.7683 </r>
       <r>     9.5890    94.3756   824.0977 </r>
       <r>     9.6455    85.5260   828.9274 </r>
       <r>     9.7020    91.0703   834.0701 </r>
       <r>     9.7584   106.4248   840.0799 </r>
       <r>     9.8149   117.9887   846.7427 </r>
       <r>     9.8714   117.6408   853.3859 </r>
       <r>     9.9279   115.8162   859.9260 </r>
       <r>     9.9843   126.5282   867.0711 </r>
       <r>    10.0408   140.0271   874.9784 </r>
       <r>    10.0973   142.9370   883.0501 </r>
       <r>    10.1537   139.5675   890.9315 </r>
       <r>    10.2102   140.2970   898.8540 </r>
       <r>    10.2667   146.1211   907.1055 </r>
       <r>    10.3231   155.0219   915.8596 </r>
       <r>    10.3796   167.3440   925.3095 </r>
       <r>    10.4361   182.9056   935.6382 </r>
       <r>    10.4926   199.0539   946.8788 </r>
       <r>    10.5490   204.7843   958.4429 </r>
       <r>    10.6055   187.7240   969.0437 </r>
       <r>    10.6620   166.4858   978.4452 </r>
       <r>    10.7184   158.1303   987.3748 </r>
       <r>    10.7749   142.7446   995.4356 </r>
       <r>    10.8314   113.4537  1001.8423 </r>
       <r>    10.8878    84.0862  1006.5906 </r>
       <r>    10.9443    58.0472  1009.8686 </r>
       <r>    11.0008    36.6423  1011.9378 </r>
       <r>    11.0573    23.0039  1013.2368 </r>
       <r>    11.1137    15.8091  1014.1295 </r>
       <r>    11.1702    11.5607  1014.7824 </r>
       <r>    11.2267     8.0248  1015.2355 </r>
       <r>    11.2831     5.6675  1015.5556 </r>
       <r>    11.3396     4.5258  1015.8111 </r>
       <r>    11.3961     3.9685  1016.0352 </r>
       <r>    11.4525     3.9000  1016.2555 </r>
       <r>    11.5090     3.7245  1016.4658 </r>
       <r>    11.5655     3.0285  1016.6368 </r>
       <r>    11.6220     2.2680  1016.7649 </r>
       <r>    11.6784     1.8234  1016.8679 </r>
       <r>    11.7349     1.8394  1016.9717 </r>
       <r>    11.7914     2.6012  1017.1186 </r>
       <r>    11.8478     3.5250  1017.3177 </r>
       <r>    11.9043     3.0288  1017.4887 </r>
       <r>    11.9608     1.9625  1017.5995 </r>
       <r>    12.0172     2.7629  1017.7556 </r>
       <r>    12.0737     4.2526  1017.9957 </r>
       <r>    12.1302     4.1749  1018.2315 </r>
       <r>    12.1867     3.3918  1018.4230 </r>
       <r>    12.2431     3.4342  1018.6169 </r>
       <r>    12.2996     4.0971  1018.8483 </r>
       <r>    12.3561     4.5203  1019.1035 </r>
       <r>    12.4125     4.3798  1019.3509 </r>
       <r>    12.4690     4.0603  1019.5802 </r>
       <r>    12.5255     4.0277  1019.8076 </r>
       <r>    12.5819     4.1878  1020.0441 </r>
       <r>    12.6384     3.8624  1020.2622 </r>
       <r>    12.6949     3.4052  1020.4545 </r>
       <r>    12.7514     3.3297  1020.6425 </r>
       <r>    12.8078     3.3053  1020.8292 </r>
       <r>    12.8643     3.5332  1021.0287 </r>
       <r>    12.9208     3.6985  1021.2375 </r>
       <r>    12.9772     3.5553  1021.4383 </r>
       <r>    13.0337     3.7086  1021.6477 </r>
       <r>    13.0902     4.1296  1021.8809 </r>
       <r>    13.1466     4.4292  1022.1310 </r>
       <r>    13.2031     4.1440  1022.3651 </r>
       <r>    13.2596     3.0516  1022.5374 </r>
       <r>    13.3161     2.3295  1022.6689 </r>
       <r>    13.3725     2.2466  1022.7958 </r>
       <r>    13.4290     2.1226  1022.9157 </r>
       <r>    13.4855     2.0504  1023.0314 </r>
       <r>    13.5419     2.1292  1023.1517 </r>
       <r>    13.5984     2.1743  1023.2745 </r>
       <r>    13.6549     2.1243  1023.3944 </r>
       <r>    13.7113     1.8492  1023.4988 </r>
       <r>    13.7678     1.1216  1023.5622 </r>
       <r>    13.8243     0.4508  1023.5876 </r>
       <r>    13.8808     0.2923  1023.6041 </r>
       <r>    13.9372     0.4332  1023.6286 </r>
       <r>    13.9937     0.6809  1023.6671 </r>
       <r>    14.0502     0.8788  1023.7167 </r>
       <r>    14.1066     0.8253  1023.7633 </r>
       <r>    14.1631     0.6470  1023.7998 </r>
       <r>    14.2196     0.5185  1023.8291 </r>
       <r>    14.2760     0.5144  1023.8581 </r>
       <r>    14.3325     0.7624  1023.9012 </r>
       <r>    14.3890     0.9273  1023.9536 </r>
       <r>    14.4455     0.6693  1023.9914 </r>
       <r>    14.5019     0.2073  1024.0031 </r>
       <r>    14.5584    -0.0206  1024.0019 </r>
       <r>    14.6149    -0.0271  1024.0004 </r>
       <r>    14.6713    -0.0059  1024.0000 </r>
       <r>    14.7278    -0.0005  1024.0000 </r>
       <r>    14.7843    -0.0000  1024.0000 </r>
       <r>    14.8407    -0.0000  1024.0000 </r>
       <r>    14.8972    -0.0000  1024.0000 </r>
       <r>    14.9537    -0.0000  1024.0000 </r>
       <r>    15.0102    -0.0000  1024.0000 </r>
       <r>    15.0666    -0.0000  1024.0000 </r>
       <r>    15.1231     0.0000  1024.0000 </r>
       <r>    15.1796     0.0000  1024.0000 </r>
       <r>    15.2360     0.0000  1024.0000 </r>
       <r>    15.2925     0.0000  1024.0000 </r>
       <r>    15.3490     0.0000  1024.0000 </r>
       <r>    15.4054     0.0000  1024.0000 </r>
      </set>
     </set>
    </array>
   </total>
  </dos>
 </calculation>
 <structure name="finalpos" >
  <crystal>
   <varray name="basis" >
    <v>     -10.98934000       0.00008000       4.40450000 </v>
    <v>       5.49474000      -9.51700000       4.40450000 </v>
    <v>       5.49460000       9.51692000       4.40450000 </v>
   </varray>
   <i name="volume">   1381.93534042 </i>
   <varray name="rec_basis" >
    <v>      -0.06066485      -0.00000045       0.07568018 </v>
    <v>       0.03033204      -0.05253756       0.07568018 </v>
    <v>       0.03033281       0.05253801       0.07568018 </v>
   </varray>
  </crystal>
  <varray name="positions" >
   <v>       0.91667167       0.00022667       0.33310167 </v>
   <v>       0.83357500       0.16642500       0.25000000 </v>
   <v>       0.99977000       0.08333000       0.16690000 </v>
   <v>       0.24999667       0.16643667       0.33356667 </v>
   <v>       0.16689333       0.08333833       0.49976833 </v>
   <v>       0.33309167       0.00024167       0.41666667 </v>
   <v>       0.41667167       0.50022667       0.33310167 </v>
   <v>       0.33357500       0.66642500       0.25000000 </v>
   <v>       0.49977000       0.58333000       0.16690000 </v>
   <v>       0.74999667       0.66643667       0.33356667 </v>
   <v>       0.66689333       0.58333833       0.49976833 </v>
   <v>       0.83309167       0.50024167       0.41666667 </v>
   <v>       0.08333833       0.66689333       0.49976833 </v>
   <v>       0.00024167       0.83309167       0.41666667 </v>
   <v>       0.16643667       0.74999667       0.33356667 </v>
   <v>       0.41666333       0.83310333       0.50023333 </v>
   <v>       0.33356000       0.75000500       0.66643500 </v>
   <v>       0.49975833       0.66690833       0.58333333 </v>
   <v>       0.58333833       0.16689333       0.49976833 </v>
   <v>       0.50024167       0.33309167       0.41666667 </v>
   <v>       0.66644000       0.24999500       0.33356500 </v>
   <v>       0.91666333       0.33310333       0.50023333 </v>
   <v>       0.83356333       0.25000333       0.66643333 </v>
   <v>       0.99975833       0.16690833       0.58333333 </v>
   <v>       0.25000500       0.33356000       0.66643500 </v>
   <v>       0.16690833       0.49975833       0.58333333 </v>
   <v>       0.33310333       0.41666333       0.50023333 </v>
   <v>       0.58333000       0.49977000       0.66690000 </v>
   <v>       0.50022667       0.41667167       0.83310167 </v>
   <v>       0.66642500       0.33357500       0.75000000 </v>
   <v>       0.91667167       0.50022667       0.83310167 </v>
   <v>       0.83357500       0.66642500       0.75000000 </v>
   <v>       0.99977000       0.58333000       0.66690000 </v>
   <v>       0.24999667       0.66643667       0.83356667 </v>
   <v>       0.16689667       0.58333667       0.99976667 </v>
   <v>       0.33309167       0.50024167       0.91666667 </v>
   <v>       0.41667167       0.00022667       0.83310167 </v>
   <v>       0.33357500       0.16642500       0.75000000 </v>
   <v>       0.49977333       0.08332833       0.66689833 </v>
   <v>       0.74999667       0.16643667       0.83356667 </v>
   <v>       0.66689667       0.08333667       0.99976667 </v>
   <v>       0.83309167       0.00024167       0.91666667 </v>
   <v>       0.08333833       0.16689333       0.99976833 </v>
   <v>       0.00024167       0.33309167       0.91666667 </v>
   <v>       0.16644000       0.24999500       0.83356500 </v>
   <v>       0.41666333       0.33310333       0.00023333 </v>
   <v>       0.33356000       0.25000500       0.16643500 </v>
   <v>       0.49975833       0.16690833       0.08333333 </v>
   <v>       0.75000500       0.83356000       0.66643500 </v>
   <v>       0.66690833       0.99975833       0.58333333 </v>
   <v>       0.83310667       0.91666167       0.50023167 </v>
   <v>       0.08333000       0.99977000       0.66690000 </v>
   <v>       0.00022667       0.91667167       0.83310167 </v>
   <v>       0.16642500       0.83357500       0.75000000 </v>
   <v>       0.58333833       0.66689333       0.99976833 </v>
   <v>       0.50024167       0.83309167       0.91666667 </v>
   <v>       0.66644000       0.74999500       0.83356500 </v>
   <v>       0.91666333       0.83310333       0.00023333 </v>
   <v>       0.83356000       0.75000500       0.16643500 </v>
   <v>       0.99975833       0.66690833       0.08333333 </v>
   <v>       0.25000500       0.83356000       0.16643500 </v>
   <v>       0.16690833       0.99975833       0.08333333 </v>
   <v>       0.33310333       0.91666333       0.00023333 </v>
   <v>       0.58333000       0.99977000       0.16690000 </v>
   <v>       0.50022667       0.91667167       0.33310167 </v>
   <v>       0.66642500       0.83357500       0.25000000 </v>
   <v>       0.75000500       0.33356000       0.16643500 </v>
   <v>       0.66690833       0.49975833       0.08333333 </v>
   <v>       0.83310333       0.41666333       0.00023333 </v>
   <v>       0.08333000       0.49977000       0.16690000 </v>
   <v>       0.00022667       0.41667167       0.33310167 </v>
   <v>       0.16642500       0.33357500       0.25000000 </v>
   <v>       0.08399500       0.92028500       0.25214000 </v>
   <v>       0.08332667       0.25000667       0.41666667 </v>
   <v>       0.58334000       0.41666000       0.25000000 </v>
   <v>       0.58332667       0.75000667       0.41666667 </v>
   <v>       0.25000667       0.58332667       0.41666667 </v>
   <v>       0.24999333       0.91667333       0.58333333 </v>
   <v>       0.75000667       0.08332667       0.41666667 </v>
   <v>       0.74999333       0.41667333       0.58333333 </v>
   <v>       0.41667333       0.24999333       0.58333333 </v>
   <v>       0.41666000       0.58334000       0.75000000 </v>
   <v>       0.08334000       0.41666000       0.75000000 </v>
   <v>       0.08332667       0.75000667       0.91666667 </v>
   <v>       0.58334000       0.91666000       0.75000000 </v>
   <v>       0.58332667       0.25000667       0.91666667 </v>
   <v>       0.25000667       0.08332667       0.91666667 </v>
   <v>       0.24999333       0.41667333       0.08333333 </v>
   <v>       0.91667333       0.74999333       0.58333333 </v>
   <v>       0.91666000       0.08334000       0.75000000 </v>
   <v>       0.75000667       0.58332667       0.91666667 </v>
   <v>       0.74999333       0.91667333       0.08333333 </v>
   <v>       0.41667333       0.74999333       0.08333333 </v>
   <v>       0.41666000       0.08334000       0.25000000 </v>
   <v>       0.91667333       0.24999333       0.08333333 </v>
   <v>       0.91666000       0.58334000       0.25000000 </v>
  </varray>
 </structure>
</modeling>
