       N       E                     dE             d eps       ncg     rms          rms(c)
DAV:   1     0.112830279466E+05    0.11283E+05   -0.55466E+05 95400   0.810E+02
DAV:   2    -0.143890657473E+04   -0.12722E+05   -0.12145E+05 95800   0.337E+02
DAV:   3    -0.241086797562E+04   -0.97196E+03   -0.89395E+03135220   0.780E+01
DAV:   4    -0.248226851107E+04   -0.71401E+02   -0.68970E+02132140   0.209E+01
DAV:   5    -0.248511374104E+04   -0.28452E+01   -0.27891E+01139800   0.332E+00    0.779E+01
RMM:   6    -0.241641968554E+04    0.68694E+02   -0.68065E+02105907   0.245E+01    0.622E+01
RMM:   7    -0.236998796032E+04    0.46432E+02   -0.35225E+02 97765   0.172E+01    0.455E+01
RMM:   8    -0.233985902978E+04    0.30129E+02   -0.15703E+02 97682   0.114E+01    0.321E+01
RMM:   9    -0.231562863279E+04    0.24230E+02   -0.34489E+01 98738   0.532E+00    0.619E+00
RMM:  10    -0.231542594421E+04    0.20269E+00   -0.73759E+00136512   0.153E+00    0.351E+00
RMM:  11    -0.231530253783E+04    0.12341E+00   -0.13309E+00120695   0.787E-01    0.393E+00
RMM:  12    -0.231489731718E+04    0.40522E+00   -0.51430E-01115823   0.579E-01    0.208E+00
RMM:  13    -0.231477745750E+04    0.11986E+00   -0.25561E-01111923   0.438E-01    0.131E+00
RMM:  14    -0.231475363745E+04    0.23820E-01   -0.15375E-01112107   0.325E-01    0.140E+00
RMM:  15    -0.231472990089E+04    0.23737E-01   -0.48838E-02120363   0.138E-01    0.972E-01
RMM:  16    -0.231471501173E+04    0.14889E-01   -0.19497E-02112719   0.111E-01    0.471E-01
RMM:  17    -0.231471198714E+04    0.30246E-02   -0.15177E-02120226   0.879E-02    0.204E-01
RMM:  18    -0.231471292613E+04   -0.93899E-03   -0.94892E-03132001   0.610E-02    0.235E-01
RMM:  19    -0.231471275081E+04    0.17532E-03   -0.17739E-03138492   0.211E-02    0.220E-01
RMM:  20    -0.231471205983E+04    0.69097E-03   -0.57518E-04113112   0.184E-02    0.137E-01
RMM:  21    -0.231471166756E+04    0.39228E-03   -0.10682E-03120861   0.234E-02    0.393E-02
RMM:  22    -0.231471164089E+04    0.26664E-04   -0.29193E-04138156   0.970E-03
   1 F= -.23147116E+04 E0= -.23147193E+04  d E =0.228876E-01
