 256 256   0   0
  0.1418917E+02  0.1588033E-08  0.1692661E-08  0.1693229E-08  0.5000000E-15
  1.000000000000000E-004
  CAR 
 Ir_Ru                                   
     14.28144698     -1.29172397  301      9.45680566      1.00000000
     -1.292  0.0000E+00  0.0000E+00
     -1.240  0.0000E+00  0.0000E+00
     -1.188  0.0000E+00  0.0000E+00
     -1.136 -0.2820E-30 -0.1464E-31
     -1.084 -0.1295E-26 -0.6725E-28
     -1.032 -0.3456E-23 -0.1795E-24
     -0.980 -0.5352E-20 -0.2780E-21
     -0.928 -0.4808E-17 -0.2499E-18
     -0.876 -0.2443E-14 -0.1271E-15
     -0.825 -0.7278E-12 -0.3791E-13
     -0.773 -0.1257E-09 -0.6563E-11
     -0.721 -0.1248E-07 -0.6545E-09
     -0.669 -0.7098E-06 -0.3750E-07
     -0.617 -0.2299E-04 -0.1231E-05
     -0.565 -0.4209E-03 -0.2308E-04
     -0.513 -0.4315E-02 -0.2471E-03
     -0.461 -0.2450E-01 -0.1519E-02
     -0.409 -0.7554E-01 -0.5440E-02
     -0.357 -0.1016E+00 -0.1071E-01
     -0.305  0.2109E+00  0.2321E-03
     -0.254  0.1656E+01  0.8620E-01
     -0.202  0.4421E+01  0.3157E+00
     -0.150  0.6361E+01  0.6459E+00
     -0.098  0.6422E+01  0.9792E+00
     -0.046  0.6974E+01  0.1341E+01
      0.006  0.8878E+01  0.1802E+01
      0.058  0.1120E+02  0.2384E+01
      0.110  0.1363E+02  0.3091E+01
      0.162  0.1433E+02  0.3835E+01
      0.214  0.1167E+02  0.4441E+01
      0.266  0.1008E+02  0.4964E+01
      0.318  0.1433E+02  0.5708E+01
      0.369  0.2039E+02  0.6767E+01
      0.421  0.2253E+02  0.7936E+01
      0.473  0.2272E+02  0.9115E+01
      0.525  0.2352E+02  0.1034E+02
      0.577  0.2250E+02  0.1150E+02
      0.629  0.2043E+02  0.1256E+02
      0.681  0.2103E+02  0.1366E+02
      0.733  0.2034E+02  0.1471E+02
      0.785  0.1449E+02  0.1546E+02
      0.837  0.8810E+01  0.1592E+02
      0.889  0.8030E+01  0.1634E+02
      0.940  0.1176E+02  0.1695E+02
      0.992  0.1902E+02  0.1794E+02
      1.044  0.2797E+02  0.1939E+02
      1.096  0.3340E+02  0.2112E+02
      1.148  0.3304E+02  0.2284E+02
      1.200  0.2875E+02  0.2433E+02
      1.252  0.2279E+02  0.2551E+02
      1.304  0.1949E+02  0.2652E+02
      1.356  0.2174E+02  0.2765E+02
      1.408  0.2724E+02  0.2907E+02
      1.460  0.3038E+02  0.3064E+02
      1.511  0.2983E+02  0.3219E+02
      1.563  0.2934E+02  0.3372E+02
      1.615  0.3041E+02  0.3529E+02
      1.667  0.3112E+02  0.3691E+02
      1.719  0.3209E+02  0.3858E+02
      1.771  0.3509E+02  0.4040E+02
      1.823  0.3915E+02  0.4243E+02
      1.875  0.4562E+02  0.4480E+02
      1.927  0.5484E+02  0.4764E+02
      1.979  0.5937E+02  0.5073E+02
      2.031  0.5464E+02  0.5356E+02
      2.082  0.5054E+02  0.5619E+02
      2.134  0.6197E+02  0.5940E+02
      2.186  0.8738E+02  0.6394E+02
      2.238  0.1091E+03  0.6960E+02
      2.290  0.1199E+03  0.7583E+02
      2.342  0.1259E+03  0.8236E+02
      2.394  0.1316E+03  0.8919E+02
      2.446  0.1376E+03  0.9633E+02
      2.498  0.1474E+03  0.1040E+03
      2.550  0.1647E+03  0.1125E+03
      2.602  0.1832E+03  0.1220E+03
      2.653  0.1952E+03  0.1322E+03
      2.705  0.2072E+03  0.1429E+03
      2.757  0.2241E+03  0.1546E+03
      2.809  0.2306E+03  0.1665E+03
      2.861  0.2243E+03  0.1782E+03
      2.913  0.2279E+03  0.1900E+03
      2.965  0.2456E+03  0.2028E+03
      3.017  0.2581E+03  0.2162E+03
      3.069  0.2599E+03  0.2297E+03
      3.121  0.2606E+03  0.2432E+03
      3.173  0.2644E+03  0.2569E+03
      3.224  0.2736E+03  0.2711E+03
      3.276  0.2888E+03  0.2861E+03
      3.328  0.3081E+03  0.3021E+03
      3.380  0.3250E+03  0.3190E+03
      3.432  0.3311E+03  0.3361E+03
      3.484  0.3278E+03  0.3532E+03
      3.536  0.3214E+03  0.3698E+03
      3.588  0.3183E+03  0.3864E+03
      3.640  0.3163E+03  0.4028E+03
      3.692  0.3105E+03  0.4189E+03
      3.744  0.3047E+03  0.4347E+03
      3.796  0.3009E+03  0.4503E+03
      3.847  0.2967E+03  0.4658E+03
      3.899  0.2932E+03  0.4810E+03
      3.951  0.2882E+03  0.4959E+03
      4.003  0.2756E+03  0.5102E+03
      4.055  0.2664E+03  0.5241E+03
      4.107  0.2763E+03  0.5384E+03
      4.159  0.2946E+03  0.5537E+03
      4.211  0.3028E+03  0.5694E+03
      4.263  0.3053E+03  0.5853E+03
      4.315  0.3125E+03  0.6015E+03
      4.367  0.3190E+03  0.6181E+03
      4.418  0.3215E+03  0.6347E+03
      4.470  0.3238E+03  0.6516E+03
      4.522  0.3208E+03  0.6682E+03
      4.574  0.3090E+03  0.6842E+03
      4.626  0.2967E+03  0.6996E+03
      4.678  0.2935E+03  0.7149E+03
      4.730  0.2985E+03  0.7304E+03
      4.782  0.3063E+03  0.7463E+03
      4.834  0.3185E+03  0.7628E+03
      4.886  0.3319E+03  0.7800E+03
      4.938  0.3379E+03  0.7976E+03
      4.989  0.3457E+03  0.8155E+03
      5.041  0.3589E+03  0.8342E+03
      5.093  0.3659E+03  0.8532E+03
      5.145  0.3640E+03  0.8720E+03
      5.197  0.3543E+03  0.8904E+03
      5.249  0.3333E+03  0.9077E+03
      5.301  0.3007E+03  0.9234E+03
      5.353  0.2594E+03  0.9368E+03
      5.405  0.2162E+03  0.9480E+03
      5.457  0.1829E+03  0.9575E+03
      5.509  0.1725E+03  0.9665E+03
      5.560  0.1907E+03  0.9764E+03
      5.612  0.2297E+03  0.9883E+03
      5.664  0.2784E+03  0.1003E+04
      5.716  0.3284E+03  0.1020E+04
      5.768  0.3698E+03  0.1039E+04
      5.820  0.3964E+03  0.1060E+04
      5.872  0.4110E+03  0.1081E+04
      5.924  0.4195E+03  0.1103E+04
      5.976  0.4259E+03  0.1125E+04
      6.028  0.4277E+03  0.1147E+04
      6.080  0.4150E+03  0.1169E+04
      6.131  0.3905E+03  0.1189E+04
      6.183  0.3711E+03  0.1208E+04
      6.235  0.3608E+03  0.1227E+04
      6.287  0.3552E+03  0.1245E+04
      6.339  0.3568E+03  0.1264E+04
      6.391  0.3701E+03  0.1283E+04
      6.443  0.3823E+03  0.1303E+04
      6.495  0.3844E+03  0.1323E+04
      6.547  0.3925E+03  0.1343E+04
      6.599  0.4111E+03  0.1365E+04
      6.651  0.4247E+03  0.1387E+04
      6.703  0.4282E+03  0.1409E+04
      6.754  0.4246E+03  0.1431E+04
      6.806  0.4119E+03  0.1452E+04
      6.858  0.3906E+03  0.1472E+04
      6.910  0.3727E+03  0.1492E+04
      6.962  0.3665E+03  0.1511E+04
      7.014  0.3639E+03  0.1530E+04
      7.066  0.3691E+03  0.1549E+04
      7.118  0.3930E+03  0.1569E+04
      7.170  0.4156E+03  0.1591E+04
      7.222  0.4222E+03  0.1613E+04
      7.274  0.4220E+03  0.1635E+04
      7.325  0.4121E+03  0.1656E+04
      7.377  0.3860E+03  0.1676E+04
      7.429  0.3573E+03  0.1695E+04
      7.481  0.3396E+03  0.1712E+04
      7.533  0.3325E+03  0.1730E+04
      7.585  0.3284E+03  0.1747E+04
      7.637  0.3159E+03  0.1763E+04
      7.689  0.2943E+03  0.1778E+04
      7.741  0.2767E+03  0.1793E+04
      7.793  0.2683E+03  0.1807E+04
      7.845  0.2634E+03  0.1820E+04
      7.896  0.2570E+03  0.1834E+04
      7.948  0.2478E+03  0.1846E+04
      8.000  0.2428E+03  0.1859E+04
      8.052  0.2432E+03  0.1872E+04
      8.104  0.2386E+03  0.1884E+04
      8.156  0.2307E+03  0.1896E+04
      8.208  0.2290E+03  0.1908E+04
      8.260  0.2337E+03  0.1920E+04
      8.312  0.2379E+03  0.1932E+04
      8.364  0.2391E+03  0.1945E+04
      8.416  0.2366E+03  0.1957E+04
      8.467  0.2280E+03  0.1969E+04
      8.519  0.2178E+03  0.1980E+04
      8.571  0.2118E+03  0.1991E+04
      8.623  0.2068E+03  0.2002E+04
      8.675  0.1992E+03  0.2012E+04
      8.727  0.1907E+03  0.2022E+04
      8.779  0.1826E+03  0.2032E+04
      8.831  0.1795E+03  0.2041E+04
      8.883  0.1896E+03  0.2051E+04
      8.935  0.2152E+03  0.2062E+04
      8.987  0.2364E+03  0.2074E+04
      9.038  0.2356E+03  0.2087E+04
      9.090  0.2223E+03  0.2098E+04
      9.142  0.2050E+03  0.2109E+04
      9.194  0.1858E+03  0.2118E+04
      9.246  0.1793E+03  0.2128E+04
      9.298  0.1998E+03  0.2138E+04
      9.350  0.2305E+03  0.2150E+04
      9.402  0.2433E+03  0.2163E+04
      9.454  0.2428E+03  0.2175E+04
      9.506  0.2449E+03  0.2188E+04
      9.558  0.2441E+03  0.2201E+04
      9.609  0.2474E+03  0.2213E+04
      9.661  0.2779E+03  0.2228E+04
      9.713  0.3203E+03  0.2245E+04
      9.765  0.3354E+03  0.2262E+04
      9.817  0.3252E+03  0.2279E+04
      9.869  0.3162E+03  0.2295E+04
      9.921  0.3156E+03  0.2312E+04
      9.973  0.3228E+03  0.2328E+04
     10.025  0.3456E+03  0.2346E+04
     10.077  0.3830E+03  0.2366E+04
     10.129  0.4149E+03  0.2388E+04
     10.181  0.4291E+03  0.2410E+04
     10.232  0.4368E+03  0.2433E+04
     10.284  0.4498E+03  0.2456E+04
     10.336  0.4683E+03  0.2480E+04
     10.388  0.4858E+03  0.2506E+04
     10.440  0.4945E+03  0.2531E+04
     10.492  0.4842E+03  0.2556E+04
     10.544  0.4449E+03  0.2579E+04
     10.596  0.3850E+03  0.2599E+04
     10.648  0.3171E+03  0.2616E+04
     10.700  0.2337E+03  0.2628E+04
     10.752  0.1340E+03  0.2635E+04
     10.803  0.4760E+02  0.2637E+04
     10.855  0.3362E+01  0.2638E+04
     10.907 -0.5282E+01  0.2637E+04
     10.959 -0.2560E+01  0.2637E+04
     11.011 -0.5876E+00  0.2637E+04
     11.063 -0.8486E-01  0.2637E+04
     11.115 -0.8763E-02  0.2637E+04
     11.167 -0.6509E-03  0.2637E+04
     11.219 -0.3201E-04  0.2637E+04
     11.271 -0.9658E-06  0.2637E+04
     11.323 -0.1719E-07  0.2637E+04
     11.374 -0.1778E-09  0.2637E+04
     11.426 -0.1200E-11  0.2637E+04
     11.478 -0.3071E-10  0.2637E+04
     11.530 -0.4023E-08  0.2637E+04
     11.582 -0.3045E-06  0.2637E+04
     11.634 -0.1325E-04  0.2637E+04
     11.686 -0.3283E-03  0.2637E+04
     11.738 -0.4532E-02  0.2637E+04
     11.790 -0.3318E-01  0.2637E+04
     11.842 -0.1099E+00  0.2637E+04
     11.894 -0.1859E-01  0.2637E+04
     11.945  0.8639E+00  0.2637E+04
     11.997  0.2287E+01  0.2637E+04
     12.049  0.2440E+01  0.2638E+04
     12.101  0.1038E+01  0.2638E+04
     12.153 -0.8103E-01  0.2638E+04
     12.205  0.2653E-01  0.2638E+04
     12.257  0.1301E+01  0.2638E+04
     12.309  0.2985E+01  0.2638E+04
     12.361  0.3749E+01  0.2638E+04
     12.413  0.3278E+01  0.2638E+04
     12.465  0.2411E+01  0.2638E+04
     12.516  0.1928E+01  0.2638E+04
     12.568  0.2142E+01  0.2638E+04
     12.620  0.3054E+01  0.2639E+04
     12.672  0.4222E+01  0.2639E+04
     12.724  0.4412E+01  0.2639E+04
     12.776  0.3012E+01  0.2639E+04
     12.828  0.1836E+01  0.2639E+04
     12.880  0.2153E+01  0.2639E+04
     12.932  0.2418E+01  0.2640E+04
     12.984  0.1804E+01  0.2640E+04
     13.036  0.1184E+01  0.2640E+04
     13.088  0.7636E+00  0.2640E+04
     13.139  0.6139E+00  0.2640E+04
     13.191  0.8843E+00  0.2640E+04
     13.243  0.1125E+01  0.2640E+04
     13.295  0.1077E+01  0.2640E+04
     13.347  0.6689E+00  0.2640E+04
     13.399  0.1630E+00  0.2640E+04
     13.451 -0.4227E-01  0.2640E+04
     13.503 -0.3295E-01  0.2640E+04
     13.555 -0.7313E-02  0.2640E+04
     13.607 -0.7800E-03  0.2640E+04
     13.659 -0.4431E-04  0.2640E+04
     13.710 -0.1393E-05  0.2640E+04
     13.762 -0.2473E-07  0.2640E+04
     13.814 -0.2501E-09  0.2640E+04
     13.866 -0.1451E-11  0.2640E+04
     13.918 -0.5228E-14  0.2640E+04
     13.970  0.0000E+00  0.2640E+04
     14.022  0.0000E+00  0.2640E+04
     14.074  0.0000E+00  0.2640E+04
     14.126  0.0000E+00  0.2640E+04
     14.178  0.0000E+00  0.2640E+04
     14.230  0.0000E+00  0.2640E+04
     14.281  0.0000E+00  0.2640E+04
