       N       E                     dE             d eps       ncg     rms          rms(c)
RMM:   1     0.136790134266E+05    0.13679E+05   -0.47218E+05 25080   0.725E+02
RMM:   2     0.131332622897E+04   -0.12366E+05   -0.13120E+05 25080   0.260E+02
RMM:   3    -0.104567693317E+04   -0.23590E+04   -0.22856E+04 25080   0.111E+02
RMM:   4    -0.184600679123E+04   -0.80033E+03   -0.57406E+03 25080   0.768E+01
RMM:   5    -0.212911692143E+04   -0.28311E+03   -0.24896E+03 25080   0.451E+01
RMM:   6    -0.227483564428E+04   -0.14572E+03   -0.12952E+03 25080   0.349E+01
RMM:   7    -0.235269824969E+04   -0.77863E+02   -0.73852E+02 25080   0.235E+01
RMM:   8    -0.240019562253E+04   -0.47497E+02   -0.44555E+02 25080   0.195E+01
RMM:   9    -0.247909083166E+04   -0.78895E+02   -0.77975E+02 71867   0.137E+01
RMM:  10    -0.248863836622E+04   -0.95475E+01   -0.11971E+02 79673   0.283E+00
RMM:  11    -0.249088136989E+04   -0.22430E+01   -0.17860E+01 77272   0.686E-01
RMM:  12    -0.249118732628E+04   -0.30596E+00   -0.19797E+00 79558   0.198E-01    0.782E+01
RMM:  13    -0.241367729771E+04    0.77510E+02   -0.68501E+02 57189   0.246E+01    0.583E+01
RMM:  14    -0.236775648434E+04    0.45921E+02   -0.34125E+02 51439   0.174E+01    0.416E+01
RMM:  15    -0.233562008401E+04    0.32136E+02   -0.11847E+02 53325   0.101E+01    0.255E+01
RMM:  16    -0.232132440074E+04    0.14296E+02   -0.25835E+01 56026   0.434E+00    0.440E+00
RMM:  17    -0.232149180900E+04   -0.16741E+00   -0.64507E+00 73683   0.131E+00    0.434E+00
RMM:  18    -0.232112259425E+04    0.36921E+00   -0.11610E+00 64587   0.700E-01    0.341E+00
RMM:  19    -0.232075176386E+04    0.37083E+00   -0.64319E-01 59890   0.736E-01    0.168E+00
RMM:  20    -0.232070405545E+04    0.47708E-01   -0.24217E-01 64123   0.346E-01    0.160E+00
RMM:  21    -0.232066054566E+04    0.43510E-01   -0.11431E-01 62679   0.241E-01    0.121E+00
RMM:  22    -0.232063537859E+04    0.25167E-01   -0.49628E-02 60935   0.164E-01    0.710E-01
RMM:  23    -0.232063006159E+04    0.53170E-02   -0.13819E-02 67076   0.694E-02    0.483E-01
RMM:  24    -0.232062657407E+04    0.34875E-02   -0.10667E-02 62311   0.770E-02    0.240E-01
RMM:  25    -0.232062762463E+04   -0.10506E-02   -0.12847E-02 66422   0.777E-02    0.261E-01
RMM:  26    -0.232062773240E+04   -0.10778E-03   -0.32025E-03 74982   0.283E-02    0.268E-01
RMM:  27    -0.232062681094E+04    0.92146E-03   -0.71936E-04 60015   0.207E-02    0.177E-01
RMM:  28    -0.232062623936E+04    0.57158E-03   -0.11198E-03 63774   0.244E-02    0.726E-02
RMM:  29    -0.232062615160E+04    0.87763E-04   -0.56064E-04 71223   0.147E-02
   1 F= -.23206262E+04 E0= -.23206262E+04  d E =0.189121E-03
