   2   2   0   0
  0.1375385E+02  0.2718744E-09  0.2718744E-09  0.4297216E-09  0.5000000E-15
  1.000000000000000E-004
  CAR 
 Ir_Ru                                   
     40.73831900     -0.99459333  301      8.77916094      1.00000000
     -0.995  0.0000E+00  0.0000E+00
     -0.855  0.0000E+00  0.0000E+00
     -0.716  0.0000E+00  0.0000E+00
     -0.577  0.0000E+00  0.0000E+00
     -0.438  0.0000E+00  0.0000E+00
     -0.299  0.0000E+00  0.0000E+00
     -0.160  0.0000E+00  0.0000E+00
     -0.021  0.0000E+00  0.0000E+00
      0.118  0.0000E+00  0.0000E+00
      0.257  0.0000E+00  0.0000E+00
      0.397  0.0000E+00  0.0000E+00
      0.536  0.0000E+00  0.0000E+00
      0.675  0.0000E+00  0.0000E+00
      0.814  0.0000E+00  0.0000E+00
      0.953  0.9124E-02  0.1538E-03
      1.092  0.4489E-01  0.4871E-02
      1.231  0.7152E-01  0.1297E-01
      1.370  0.8461E-01  0.2381E-01
      1.509  0.1023E+00  0.3680E-01
      1.648  0.1188E+00  0.5229E-01
      1.788  0.1341E+00  0.6988E-01
      1.927  0.1521E+00  0.8973E-01
      2.066  0.1720E+00  0.1123E+00
      2.205  0.1922E+00  0.1375E+00
      2.344  0.2174E+00  0.1660E+00
      2.483  0.2468E+00  0.1982E+00
      2.622  0.5695E+00  0.2417E+00
      2.761  0.1190E+01  0.3595E+00
      2.900  0.1871E+01  0.5870E+00
      3.040  0.2721E+01  0.9136E+00
      3.179  0.2808E+01  0.1301E+01
      3.318  0.3288E+01  0.1703E+01
      3.457  0.3457E+01  0.2188E+01
      3.596  0.3306E+01  0.2678E+01
      3.735  0.2577E+01  0.3085E+01
      3.874  0.2344E+01  0.3420E+01
      4.013  0.2297E+01  0.3775E+01
      4.152  0.1471E+01  0.4032E+01
      4.292  0.2676E+01  0.4284E+01
      4.431  0.3446E+01  0.4715E+01
      4.570  0.2759E+01  0.5164E+01
      4.709  0.2091E+01  0.5468E+01
      4.848  0.2672E+01  0.5790E+01
      4.987  0.2965E+01  0.6189E+01
      5.126  0.3130E+01  0.6616E+01
      5.265  0.3027E+01  0.7041E+01
      5.404  0.1880E+01  0.7385E+01
      5.544  0.9590E+00  0.7559E+01
      5.683  0.1297E+01  0.7706E+01
      5.822  0.3580E+01  0.8054E+01
      5.961  0.3858E+01  0.8559E+01
      6.100  0.3582E+01  0.9137E+01
      6.239  0.2793E+01  0.9565E+01
      6.378  0.2545E+01  0.9929E+01
      6.517  0.3744E+01  0.1034E+02
      6.656  0.3987E+01  0.1091E+02
      6.796  0.2955E+01  0.1134E+02
      6.935  0.2543E+01  0.1172E+02
      7.074  0.3169E+01  0.1213E+02
      7.213  0.3440E+01  0.1259E+02
      7.352  0.3248E+01  0.1309E+02
      7.491  0.2809E+01  0.1349E+02
      7.630  0.2281E+01  0.1387E+02
      7.769  0.1900E+01  0.1415E+02
      7.908  0.2499E+01  0.1442E+02
      8.048  0.1862E+01  0.1469E+02
      8.187  0.1883E+01  0.1495E+02
      8.326  0.1826E+01  0.1520E+02
      8.465  0.1806E+01  0.1546E+02
      8.604  0.1723E+01  0.1570E+02
      8.743  0.1679E+01  0.1594E+02
      8.882  0.1685E+01  0.1617E+02
      9.021  0.1692E+01  0.1641E+02
      9.160  0.1775E+01  0.1665E+02
      9.300  0.1744E+01  0.1690E+02
      9.439  0.2021E+01  0.1716E+02
      9.578  0.2544E+01  0.1748E+02
      9.717  0.2736E+01  0.1785E+02
      9.856  0.2950E+01  0.1825E+02
      9.995  0.3477E+01  0.1869E+02
     10.134  0.4061E+01  0.1923E+02
     10.273  0.4474E+01  0.1981E+02
     10.412  0.3933E+01  0.2042E+02
     10.552  0.2251E+01  0.2086E+02
     10.691  0.5652E+00  0.2099E+02
     10.830  0.5668E+00  0.2107E+02
     10.969  0.5533E+00  0.2115E+02
     11.108  0.5206E+00  0.2122E+02
     11.247  0.5136E+00  0.2129E+02
     11.386  0.5134E+00  0.2137E+02
     11.525  0.5165E+00  0.2144E+02
     11.664  0.5165E+00  0.2151E+02
     11.803  0.5171E+00  0.2158E+02
     11.943  0.5197E+00  0.2165E+02
     12.082  0.5223E+00  0.2173E+02
     12.221  0.5237E+00  0.2180E+02
     12.360  0.5215E+00  0.2187E+02
     12.499  0.5238E+00  0.2194E+02
     12.638  0.5052E+00  0.2202E+02
     12.777  0.4957E+00  0.2208E+02
     12.916  0.4748E+00  0.2215E+02
     13.055  0.4745E+00  0.2222E+02
     13.195  0.4666E+00  0.2229E+02
     13.334  0.4570E+00  0.2235E+02
     13.473  0.4475E+00  0.2241E+02
     13.612  0.4393E+00  0.2247E+02
     13.751  0.4411E+00  0.2254E+02
     13.890  0.4420E+00  0.2260E+02
     14.029  0.4323E+00  0.2266E+02
     14.168  0.4246E+00  0.2272E+02
     14.307  0.4230E+00  0.2278E+02
     14.447  0.4221E+00  0.2284E+02
     14.586  0.4195E+00  0.2289E+02
     14.725  0.4214E+00  0.2295E+02
     14.864  0.4295E+00  0.2301E+02
     15.003  0.4575E+00  0.2307E+02
     15.142  0.4505E+00  0.2314E+02
     15.281  0.4440E+00  0.2320E+02
     15.420  0.4272E+00  0.2326E+02
     15.559  0.4248E+00  0.2332E+02
     15.699  0.4245E+00  0.2338E+02
     15.838  0.4339E+00  0.2345E+02
     15.977  0.4107E+00  0.2351E+02
     16.116  0.4018E+00  0.2356E+02
     16.255  0.3972E+00  0.2362E+02
     16.394  0.3839E+00  0.2367E+02
     16.533  0.3884E+00  0.2373E+02
     16.672  0.2953E+00  0.2378E+02
     16.811  0.2565E+00  0.2382E+02
     16.951  0.2105E+00  0.2385E+02
     17.090  0.1950E+00  0.2388E+02
     17.229  0.1773E+00  0.2390E+02
     17.368  0.1625E+00  0.2393E+02
     17.507  0.1539E+00  0.2395E+02
     17.646  0.1442E+00  0.2397E+02
     17.785  0.1368E+00  0.2399E+02
     17.924  0.1277E+00  0.2401E+02
     18.063  0.1184E+00  0.2402E+02
     18.203  0.1068E+00  0.2404E+02
     18.342  0.9600E-01  0.2405E+02
     18.481  0.9275E-01  0.2407E+02
     18.620  0.1059E+00  0.2408E+02
     18.759  0.1672E+00  0.2410E+02
     18.898  0.3029E+00  0.2413E+02
     19.037  0.3887E+00  0.2418E+02
     19.176  0.4318E+00  0.2424E+02
     19.315  0.1397E+01  0.2436E+02
     19.455  0.1587E+01  0.2457E+02
     19.594  0.1208E+01  0.2477E+02
     19.733  0.1024E+01  0.2492E+02
     19.872  0.1003E+01  0.2506E+02
     20.011  0.1122E+01  0.2521E+02
     20.150  0.1038E+01  0.2535E+02
     20.289  0.1028E+01  0.2550E+02
     20.428  0.1062E+01  0.2564E+02
     20.567  0.1145E+01  0.2580E+02
     20.707  0.1046E+01  0.2595E+02
     20.846  0.9680E+00  0.2609E+02
     20.985  0.8681E+00  0.2622E+02
     21.124  0.8845E+00  0.2634E+02
     21.263  0.9261E+00  0.2646E+02
     21.402  0.9469E+00  0.2659E+02
     21.541  0.9078E+00  0.2672E+02
     21.680  0.8762E+00  0.2685E+02
     21.819  0.8624E+00  0.2697E+02
     21.959  0.8587E+00  0.2709E+02
     22.098  0.8650E+00  0.2721E+02
     22.237  0.8536E+00  0.2733E+02
     22.376  0.8351E+00  0.2745E+02
     22.515  0.8119E+00  0.2756E+02
     22.654  0.7992E+00  0.2767E+02
     22.793  0.7615E+00  0.2778E+02
     22.932  0.7237E+00  0.2788E+02
     23.071  0.7290E+00  0.2798E+02
     23.210  0.6849E+00  0.2808E+02
     23.350  0.6743E+00  0.2818E+02
     23.489  0.6672E+00  0.2827E+02
     23.628  0.6647E+00  0.2836E+02
     23.767  0.7502E+00  0.2846E+02
     23.906  0.8685E+00  0.2857E+02
     24.045  0.1037E+01  0.2870E+02
     24.184  0.1234E+01  0.2886E+02
     24.323  0.1400E+01  0.2905E+02
     24.462  0.1665E+01  0.2926E+02
     24.602  0.1849E+01  0.2951E+02
     24.741  0.1795E+01  0.2976E+02
     24.880  0.1888E+01  0.3001E+02
     25.019  0.1830E+01  0.3028E+02
     25.158  0.1338E+01  0.3050E+02
     25.297  0.1213E+01  0.3068E+02
     25.436  0.1082E+01  0.3083E+02
     25.575  0.1068E+01  0.3098E+02
     25.714  0.1079E+01  0.3113E+02
     25.854  0.1113E+01  0.3128E+02
     25.993  0.1105E+01  0.3144E+02
     26.132  0.1091E+01  0.3159E+02
     26.271  0.1150E+01  0.3175E+02
     26.410  0.1303E+01  0.3191E+02
     26.549  0.1556E+01  0.3211E+02
     26.688  0.1445E+01  0.3233E+02
     26.827  0.1372E+01  0.3252E+02
     26.966  0.1296E+01  0.3271E+02
     27.106  0.1253E+01  0.3289E+02
     27.245  0.1267E+01  0.3306E+02
     27.384  0.1309E+01  0.3324E+02
     27.523  0.1351E+01  0.3342E+02
     27.662  0.1356E+01  0.3361E+02
     27.801  0.1367E+01  0.3380E+02
     27.940  0.1365E+01  0.3399E+02
     28.079  0.1318E+01  0.3418E+02
     28.218  0.1326E+01  0.3436E+02
     28.358  0.1148E+01  0.3454E+02
     28.497  0.1110E+01  0.3469E+02
     28.636  0.1092E+01  0.3485E+02
     28.775  0.1029E+01  0.3499E+02
     28.914  0.9692E+00  0.3513E+02
     29.053  0.9502E+00  0.3526E+02
     29.192  0.8758E+00  0.3540E+02
     29.331  0.8354E+00  0.3552E+02
     29.470  0.7978E+00  0.3563E+02
     29.610  0.8001E+00  0.3574E+02
     29.749  0.8381E+00  0.3585E+02
     29.888  0.8999E+00  0.3597E+02
     30.027  0.1006E+01  0.3611E+02
     30.166  0.1025E+01  0.3625E+02
     30.305  0.9789E+00  0.3639E+02
     30.444  0.8645E+00  0.3651E+02
     30.583  0.8358E+00  0.3663E+02
     30.722  0.8955E+00  0.3675E+02
     30.862  0.9183E+00  0.3688E+02
     31.001  0.8861E+00  0.3700E+02
     31.140  0.8666E+00  0.3713E+02
     31.279  0.9213E+00  0.3725E+02
     31.418  0.1077E+01  0.3739E+02
     31.557  0.1158E+01  0.3755E+02
     31.696  0.1088E+01  0.3771E+02
     31.835  0.1087E+01  0.3786E+02
     31.974  0.1064E+01  0.3800E+02
     32.114  0.9457E+00  0.3814E+02
     32.253  0.8604E+00  0.3827E+02
     32.392  0.7767E+00  0.3838E+02
     32.531  0.7697E+00  0.3849E+02
     32.670  0.7474E+00  0.3859E+02
     32.809  0.6932E+00  0.3869E+02
     32.948  0.6512E+00  0.3878E+02
     33.087  0.6531E+00  0.3887E+02
     33.226  0.6771E+00  0.3897E+02
     33.366  0.7368E+00  0.3907E+02
     33.505  0.8095E+00  0.3917E+02
     33.644  0.6950E+00  0.3928E+02
     33.783  0.6202E+00  0.3937E+02
     33.922  0.5649E+00  0.3945E+02
     34.061  0.5201E+00  0.3953E+02
     34.200  0.4466E+00  0.3960E+02
     34.339  0.3798E+00  0.3966E+02
     34.478  0.3176E+00  0.3970E+02
     34.617  0.2776E+00  0.3974E+02
     34.757  0.2491E+00  0.3978E+02
     34.896  0.2284E+00  0.3981E+02
     35.035  0.1976E+00  0.3984E+02
     35.174  0.1715E+00  0.3987E+02
     35.313  0.1403E+00  0.3989E+02
     35.452  0.1172E+00  0.3991E+02
     35.591  0.1039E+00  0.3992E+02
     35.730  0.9738E-01  0.3994E+02
     35.869  0.9871E-01  0.3995E+02
     36.009  0.9519E-01  0.3997E+02
     36.148  0.7816E-01  0.3998E+02
     36.287  0.5131E-01  0.3999E+02
     36.426  0.1943E-01  0.3999E+02
     36.565  0.1468E-01  0.3999E+02
     36.704  0.1064E-01  0.4000E+02
     36.843  0.7308E-02  0.4000E+02
     36.982  0.4669E-02  0.4000E+02
     37.121  0.2564E-02  0.4000E+02
     37.261  0.2264E-02  0.4000E+02
     37.400  0.1985E-02  0.4000E+02
     37.539  0.1721E-02  0.4000E+02
     37.678  0.1473E-02  0.4000E+02
     37.817  0.1240E-02  0.4000E+02
     37.956  0.1022E-02  0.4000E+02
     38.095  0.8204E-03  0.4000E+02
     38.234  0.6338E-03  0.4000E+02
     38.373  0.4627E-03  0.4000E+02
     38.513  0.3069E-03  0.4000E+02
     38.652  0.1665E-03  0.4000E+02
     38.791  0.4161E-04  0.4000E+02
     38.930  0.0000E+00  0.4000E+02
     39.069  0.0000E+00  0.4000E+02
     39.208  0.0000E+00  0.4000E+02
     39.347  0.0000E+00  0.4000E+02
     39.486  0.0000E+00  0.4000E+02
     39.625  0.0000E+00  0.4000E+02
     39.765  0.0000E+00  0.4000E+02
     39.904  0.0000E+00  0.4000E+02
     40.043  0.0000E+00  0.4000E+02
     40.182  0.0000E+00  0.4000E+02
     40.321  0.0000E+00  0.4000E+02
     40.460  0.0000E+00  0.4000E+02
     40.599  0.0000E+00  0.4000E+02
     40.738  0.0000E+00  0.4000E+02
