 256 256   0   0
  0.1418917E+02  0.1588033E-08  0.1692661E-08  0.1693229E-08  0.5000000E-15
  1.000000000000000E-004
  CAR 
 Ir_Ru                                   
     14.27082569     -1.29192609  301      9.45692949      1.00000000
     -1.292  0.0000E+00  0.0000E+00
     -1.240  0.0000E+00  0.0000E+00
     -1.188  0.0000E+00  0.0000E+00
     -1.136 -0.2773E-30 -0.1439E-31
     -1.084 -0.1268E-26 -0.6580E-28
     -1.033 -0.3371E-23 -0.1750E-24
     -0.981 -0.5206E-20 -0.2702E-21
     -0.929 -0.4666E-17 -0.2423E-18
     -0.877 -0.2366E-14 -0.1230E-15
     -0.825 -0.7049E-12 -0.3669E-13
     -0.773 -0.1217E-09 -0.6352E-11
     -0.721 -0.1210E-07 -0.6340E-09
     -0.669 -0.6891E-06 -0.3638E-07
     -0.618 -0.2237E-04 -0.1197E-05
     -0.566 -0.4110E-03 -0.2252E-04
     -0.514 -0.4230E-02 -0.2419E-03
     -0.462 -0.2414E-01 -0.1494E-02
     -0.410 -0.7489E-01 -0.5379E-02
     -0.358 -0.1022E+00 -0.1068E-01
     -0.306  0.2020E+00 -0.2030E-03
     -0.254  0.1627E+01  0.8420E-01
     -0.203  0.4382E+01  0.3115E+00
     -0.151  0.6349E+01  0.6409E+00
     -0.099  0.6424E+01  0.9742E+00
     -0.047  0.6954E+01  0.1335E+01
      0.005  0.8845E+01  0.1794E+01
      0.057  0.1116E+02  0.2373E+01
      0.109  0.1360E+02  0.3078E+01
      0.161  0.1435E+02  0.3823E+01
      0.212  0.1172E+02  0.4431E+01
      0.264  0.1006E+02  0.4953E+01
      0.316  0.1423E+02  0.5691E+01
      0.368  0.2032E+02  0.6745E+01
      0.420  0.2252E+02  0.7913E+01
      0.472  0.2269E+02  0.9090E+01
      0.524  0.2350E+02  0.1031E+02
      0.576  0.2255E+02  0.1148E+02
      0.627  0.2046E+02  0.1254E+02
      0.679  0.2099E+02  0.1363E+02
      0.731  0.2040E+02  0.1469E+02
      0.783  0.1465E+02  0.1545E+02
      0.835  0.8889E+01  0.1591E+02
      0.887  0.7974E+01  0.1632E+02
      0.939  0.1161E+02  0.1693E+02
      0.991  0.1877E+02  0.1790E+02
      1.042  0.2772E+02  0.1934E+02
      1.094  0.3333E+02  0.2107E+02
      1.146  0.3315E+02  0.2279E+02
      1.198  0.2893E+02  0.2429E+02
      1.250  0.2292E+02  0.2547E+02
      1.302  0.1948E+02  0.2649E+02
      1.354  0.2160E+02  0.2761E+02
      1.406  0.2709E+02  0.2901E+02
      1.457  0.3033E+02  0.3058E+02
      1.509  0.2985E+02  0.3213E+02
      1.561  0.2934E+02  0.3366E+02
      1.613  0.3041E+02  0.3523E+02
      1.665  0.3111E+02  0.3685E+02
      1.717  0.3198E+02  0.3851E+02
      1.769  0.3494E+02  0.4032E+02
      1.821  0.3902E+02  0.4234E+02
      1.873  0.4534E+02  0.4469E+02
      1.924  0.5448E+02  0.4752E+02
      1.976  0.5933E+02  0.5060E+02
      2.028  0.5488E+02  0.5345E+02
      2.080  0.5043E+02  0.5606E+02
      2.132  0.6106E+02  0.5923E+02
      2.184  0.8620E+02  0.6370E+02
      2.236  0.1083E+03  0.6932E+02
      2.288  0.1195E+03  0.7552E+02
      2.339  0.1257E+03  0.8204E+02
      2.391  0.1314E+03  0.8885E+02
      2.443  0.1373E+03  0.9598E+02
      2.495  0.1468E+03  0.1036E+03
      2.547  0.1639E+03  0.1121E+03
      2.599  0.1825E+03  0.1216E+03
      2.651  0.1946E+03  0.1317E+03
      2.703  0.2063E+03  0.1424E+03
      2.754  0.2233E+03  0.1539E+03
      2.806  0.2309E+03  0.1659E+03
      2.858  0.2248E+03  0.1776E+03
      2.910  0.2273E+03  0.1894E+03
      2.962  0.2446E+03  0.2021E+03
      3.014  0.2577E+03  0.2154E+03
      3.066  0.2599E+03  0.2289E+03
      3.118  0.2603E+03  0.2424E+03
      3.169  0.2636E+03  0.2561E+03
      3.221  0.2724E+03  0.2702E+03
      3.273  0.2874E+03  0.2851E+03
      3.325  0.3068E+03  0.3010E+03
      3.377  0.3240E+03  0.3179E+03
      3.429  0.3308E+03  0.3350E+03
      3.481  0.3282E+03  0.3520E+03
      3.533  0.3218E+03  0.3687E+03
      3.584  0.3184E+03  0.3853E+03
      3.636  0.3167E+03  0.4017E+03
      3.688  0.3112E+03  0.4178E+03
      3.740  0.3053E+03  0.4337E+03
      3.792  0.3012E+03  0.4493E+03
      3.844  0.2970E+03  0.4647E+03
      3.896  0.2934E+03  0.4799E+03
      3.948  0.2888E+03  0.4949E+03
      3.999  0.2765E+03  0.5092E+03
      4.051  0.2664E+03  0.5231E+03
      4.103  0.2750E+03  0.5373E+03
      4.155  0.2937E+03  0.5526E+03
      4.207  0.3027E+03  0.5683E+03
      4.259  0.3050E+03  0.5841E+03
      4.311  0.3119E+03  0.6003E+03
      4.363  0.3187E+03  0.6168E+03
      4.414  0.3212E+03  0.6335E+03
      4.466  0.3235E+03  0.6502E+03
      4.518  0.3213E+03  0.6669E+03
      4.570  0.3102E+03  0.6830E+03
      4.622  0.2976E+03  0.6984E+03
      4.674  0.2934E+03  0.7137E+03
      4.726  0.2978E+03  0.7291E+03
      4.778  0.3055E+03  0.7450E+03
      4.829  0.3173E+03  0.7614E+03
      4.881  0.3311E+03  0.7786E+03
      4.933  0.3376E+03  0.7961E+03
      4.985  0.3446E+03  0.8140E+03
      5.037  0.3577E+03  0.8325E+03
      5.089  0.3656E+03  0.8515E+03
      5.141  0.3644E+03  0.8704E+03
      5.193  0.3554E+03  0.8888E+03
      5.244  0.3354E+03  0.9062E+03
      5.296  0.3037E+03  0.9220E+03
      5.348  0.2631E+03  0.9357E+03
      5.400  0.2199E+03  0.9471E+03
      5.452  0.1854E+03  0.9567E+03
      5.504  0.1726E+03  0.9656E+03
      5.556  0.1882E+03  0.9754E+03
      5.608  0.2258E+03  0.9871E+03
      5.659  0.2738E+03  0.1001E+04
      5.711  0.3238E+03  0.1018E+04
      5.763  0.3662E+03  0.1037E+04
      5.815  0.3942E+03  0.1058E+04
      5.867  0.4099E+03  0.1079E+04
      5.919  0.4190E+03  0.1101E+04
      5.971  0.4258E+03  0.1123E+04
      6.023  0.4285E+03  0.1145E+04
      6.074  0.4172E+03  0.1167E+04
      6.126  0.3927E+03  0.1187E+04
      6.178  0.3721E+03  0.1206E+04
      6.230  0.3613E+03  0.1225E+04
      6.282  0.3556E+03  0.1243E+04
      6.334  0.3563E+03  0.1262E+04
      6.386  0.3686E+03  0.1281E+04
      6.438  0.3817E+03  0.1301E+04
      6.489  0.3842E+03  0.1321E+04
      6.541  0.3909E+03  0.1341E+04
      6.593  0.4090E+03  0.1362E+04
      6.645  0.4236E+03  0.1384E+04
      6.697  0.4282E+03  0.1406E+04
      6.749  0.4256E+03  0.1428E+04
      6.801  0.4139E+03  0.1450E+04
      6.853  0.3930E+03  0.1470E+04
      6.904  0.3740E+03  0.1490E+04
      6.956  0.3667E+03  0.1509E+04
      7.008  0.3638E+03  0.1528E+04
      7.060  0.3674E+03  0.1547E+04
      7.112  0.3898E+03  0.1567E+04
      7.164  0.4140E+03  0.1588E+04
      7.216  0.4221E+03  0.1610E+04
      7.268  0.4225E+03  0.1632E+04
      7.319  0.4144E+03  0.1654E+04
      7.371  0.3898E+03  0.1674E+04
      7.423  0.3602E+03  0.1693E+04
      7.475  0.3408E+03  0.1710E+04
      7.527  0.3327E+03  0.1728E+04
      7.579  0.3290E+03  0.1745E+04
      7.631  0.3179E+03  0.1761E+04
      7.683  0.2969E+03  0.1777E+04
      7.734  0.2783E+03  0.1791E+04
      7.786  0.2690E+03  0.1805E+04
      7.838  0.2638E+03  0.1819E+04
      7.890  0.2579E+03  0.1832E+04
      7.942  0.2490E+03  0.1845E+04
      7.994  0.2430E+03  0.1857E+04
      8.046  0.2433E+03  0.1870E+04
      8.098  0.2397E+03  0.1883E+04
      8.149  0.2317E+03  0.1895E+04
      8.201  0.2289E+03  0.1906E+04
      8.253  0.2331E+03  0.1919E+04
      8.305  0.2376E+03  0.1931E+04
      8.357  0.2390E+03  0.1943E+04
      8.409  0.2372E+03  0.1956E+04
      8.461  0.2295E+03  0.1967E+04
      8.513  0.2191E+03  0.1979E+04
      8.564  0.2123E+03  0.1990E+04
      8.616  0.2075E+03  0.2001E+04
      8.668  0.2004E+03  0.2011E+04
      8.720  0.1920E+03  0.2021E+04
      8.772  0.1835E+03  0.2030E+04
      8.824  0.1793E+03  0.2040E+04
      8.876  0.1871E+03  0.2049E+04
      8.928  0.2113E+03  0.2060E+04
      8.979  0.2346E+03  0.2073E+04
      9.031  0.2369E+03  0.2085E+04
      9.083  0.2245E+03  0.2097E+04
      9.135  0.2076E+03  0.2107E+04
      9.187  0.1881E+03  0.2117E+04
      9.239  0.1787E+03  0.2126E+04
      9.291  0.1955E+03  0.2136E+04
      9.343  0.2265E+03  0.2148E+04
      9.394  0.2426E+03  0.2161E+04
      9.446  0.2429E+03  0.2173E+04
      9.498  0.2448E+03  0.2186E+04
      9.550  0.2446E+03  0.2199E+04
      9.602  0.2455E+03  0.2212E+04
      9.654  0.2717E+03  0.2226E+04
      9.706  0.3151E+03  0.2242E+04
      9.758  0.3355E+03  0.2259E+04
      9.810  0.3273E+03  0.2276E+04
      9.861  0.3170E+03  0.2293E+04
      9.913  0.3152E+03  0.2309E+04
      9.965  0.3210E+03  0.2326E+04
     10.017  0.3411E+03  0.2344E+04
     10.069  0.3773E+03  0.2363E+04
     10.121  0.4113E+03  0.2384E+04
     10.173  0.4279E+03  0.2407E+04
     10.225  0.4356E+03  0.2429E+04
     10.276  0.4475E+03  0.2452E+04
     10.328  0.4653E+03  0.2477E+04
     10.380  0.4834E+03  0.2502E+04
     10.432  0.4940E+03  0.2527E+04
     10.484  0.4875E+03  0.2553E+04
     10.536  0.4528E+03  0.2576E+04
     10.588  0.3952E+03  0.2597E+04
     10.640  0.3288E+03  0.2614E+04
     10.691  0.2484E+03  0.2626E+04
     10.743  0.1498E+03  0.2634E+04
     10.795  0.5891E+02  0.2637E+04
     10.847  0.7376E+01  0.2638E+04
     10.899 -0.5362E+01  0.2637E+04
     10.951 -0.3132E+01  0.2637E+04
     11.003 -0.7780E+00  0.2637E+04
     11.055 -0.1122E+00  0.2637E+04
     11.106 -0.1045E-01  0.2637E+04
     11.158 -0.6570E-03  0.2637E+04
     11.210 -0.2744E-04  0.2637E+04
     11.262 -0.7268E-06  0.2637E+04
     11.314 -0.1171E-07  0.2637E+04
     11.366 -0.1120E-09  0.2637E+04
     11.418 -0.7230E-12  0.2637E+04
     11.470 -0.2308E-10  0.2637E+04
     11.521 -0.3163E-08  0.2637E+04
     11.573 -0.2505E-06  0.2637E+04
     11.625 -0.1140E-04  0.2637E+04
     11.677 -0.2949E-03  0.2637E+04
     11.729 -0.4242E-02  0.2637E+04
     11.781 -0.3229E-01  0.2637E+04
     11.833 -0.1117E+00  0.2637E+04
     11.885 -0.3339E-01  0.2637E+04
     11.936  0.8382E+00  0.2637E+04
     11.988  0.2265E+01  0.2637E+04
     12.040  0.2486E+01  0.2638E+04
     12.092  0.1451E+01  0.2638E+04
     12.144  0.8167E+00  0.2638E+04
     12.196  0.6284E+00  0.2638E+04
     12.248  0.7298E+00  0.2638E+04
     12.300  0.1508E+01  0.2638E+04
     12.351  0.2630E+01  0.2638E+04
     12.403  0.3527E+01  0.2638E+04
     12.455  0.3396E+01  0.2638E+04
     12.507  0.2237E+01  0.2638E+04
     12.559  0.1744E+01  0.2638E+04
     12.611  0.2544E+01  0.2639E+04
     12.663  0.3779E+01  0.2639E+04
     12.715  0.4427E+01  0.2639E+04
     12.766  0.3453E+01  0.2639E+04
     12.818  0.2206E+01  0.2639E+04
     12.870  0.2663E+01  0.2639E+04
     12.922  0.3341E+01  0.2640E+04
     12.974  0.2313E+01  0.2640E+04
     13.026  0.6459E+00  0.2640E+04
     13.078 -0.1365E+00  0.2640E+04
     13.130 -0.2355E-01  0.2640E+04
     13.181  0.6330E+00  0.2640E+04
     13.233  0.1363E+01  0.2640E+04
     13.285  0.1436E+01  0.2640E+04
     13.337  0.7855E+00  0.2640E+04
     13.389  0.1451E+00  0.2640E+04
     13.441 -0.5814E-01  0.2640E+04
     13.493 -0.3580E-01  0.2640E+04
     13.545 -0.7486E-02  0.2640E+04
     13.596 -0.7773E-03  0.2640E+04
     13.648 -0.4355E-04  0.2640E+04
     13.700 -0.1359E-05  0.2640E+04
     13.752 -0.2402E-07  0.2640E+04
     13.804 -0.2425E-09  0.2640E+04
     13.856 -0.1407E-11  0.2640E+04
     13.908 -0.4756E-14  0.2640E+04
     13.960  0.0000E+00  0.2640E+04
     14.011  0.0000E+00  0.2640E+04
     14.063  0.0000E+00  0.2640E+04
     14.115  0.0000E+00  0.2640E+04
     14.167  0.0000E+00  0.2640E+04
     14.219  0.0000E+00  0.2640E+04
     14.271  0.0000E+00  0.2640E+04
