 256 256   0   0
  0.1419206E+02  0.1537080E-08  0.1537218E-08  0.1537636E-08  0.5000000E-15
  1.000000000000000E-004
  CAR 
 Ir_Ru                                   
     12.68696060     -1.29495476  301      9.24209282      1.00000000
     -1.295  0.0000E+00  0.0000E+00
     -1.248  0.0000E+00  0.0000E+00
     -1.202  0.0000E+00  0.0000E+00
     -1.155  0.0000E+00  0.0000E+00
     -1.109 -0.2761E-28 -0.1287E-29
     -1.062 -0.4122E-25 -0.1923E-26
     -1.015 -0.3970E-22 -0.1852E-23
     -0.969 -0.2467E-19 -0.1151E-20
     -0.922 -0.9886E-17 -0.4619E-18
     -0.875 -0.2481E-14 -0.1161E-15
     -0.829 -0.4114E-12 -0.1929E-13
     -0.782 -0.4394E-10 -0.2067E-11
     -0.736 -0.3023E-08 -0.1430E-09
     -0.689 -0.1341E-06 -0.6393E-08
     -0.642 -0.3842E-05 -0.1854E-06
     -0.596 -0.7124E-04 -0.3506E-05
     -0.549 -0.8578E-03 -0.4348E-04
     -0.503 -0.6709E-02 -0.3561E-03
     -0.456 -0.3367E-01 -0.1925E-02
     -0.409 -0.1022E+00 -0.6691E-02
     -0.363 -0.1375E+00 -0.1310E-01
     -0.316  0.2261E+00 -0.2564E-02
     -0.270  0.1515E+01  0.6802E-01
     -0.223  0.3545E+01  0.2332E+00
     -0.176  0.5074E+01  0.4697E+00
     -0.130  0.5735E+01  0.7370E+00
     -0.083  0.7335E+01  0.1079E+01
     -0.037  0.1021E+02  0.1554E+01
      0.010  0.1102E+02  0.2068E+01
      0.057  0.9145E+01  0.2494E+01
      0.103  0.9391E+01  0.2932E+01
      0.150  0.1317E+02  0.3546E+01
      0.196  0.1592E+02  0.4287E+01
      0.243  0.1605E+02  0.5035E+01
      0.290  0.1674E+02  0.5815E+01
      0.336  0.1850E+02  0.6677E+01
      0.383  0.1833E+02  0.7532E+01
      0.429  0.1742E+02  0.8344E+01
      0.476  0.1981E+02  0.9267E+01
      0.523  0.2337E+02  0.1036E+02
      0.569  0.2405E+02  0.1148E+02
      0.616  0.2227E+02  0.1252E+02
      0.663  0.1872E+02  0.1339E+02
      0.709  0.1407E+02  0.1404E+02
      0.756  0.1113E+02  0.1456E+02
      0.802  0.1071E+02  0.1506E+02
      0.849  0.1115E+02  0.1558E+02
      0.896  0.1218E+02  0.1615E+02
      0.942  0.1467E+02  0.1683E+02
      0.989  0.1836E+02  0.1769E+02
      1.035  0.2290E+02  0.1875E+02
      1.082  0.2809E+02  0.2006E+02
      1.129  0.3125E+02  0.2152E+02
      1.175  0.2972E+02  0.2291E+02
      1.222  0.2589E+02  0.2411E+02
      1.268  0.2304E+02  0.2519E+02
      1.315  0.2095E+02  0.2616E+02
      1.362  0.2001E+02  0.2710E+02
      1.408  0.2162E+02  0.2810E+02
      1.455  0.2407E+02  0.2922E+02
      1.501  0.2567E+02  0.3042E+02
      1.548  0.2899E+02  0.3177E+02
      1.595  0.3512E+02  0.3341E+02
      1.641  0.3874E+02  0.3522E+02
      1.688  0.3786E+02  0.3698E+02
      1.734  0.3927E+02  0.3881E+02
      1.781  0.4553E+02  0.4093E+02
      1.828  0.4933E+02  0.4323E+02
      1.874  0.4780E+02  0.4546E+02
      1.921  0.4727E+02  0.4766E+02
      1.967  0.5089E+02  0.5003E+02
      2.014  0.5408E+02  0.5255E+02
      2.061  0.5545E+02  0.5514E+02
      2.107  0.6140E+02  0.5800E+02
      2.154  0.7465E+02  0.6148E+02
      2.201  0.8952E+02  0.6565E+02
      2.247  0.1032E+03  0.7046E+02
      2.294  0.1179E+03  0.7596E+02
      2.340  0.1311E+03  0.8207E+02
      2.387  0.1383E+03  0.8851E+02
      2.434  0.1433E+03  0.9519E+02
      2.480  0.1524E+03  0.1023E+03
      2.527  0.1610E+03  0.1098E+03
      2.573  0.1616E+03  0.1173E+03
      2.620  0.1613E+03  0.1248E+03
      2.667  0.1690E+03  0.1327E+03
      2.713  0.1785E+03  0.1410E+03
      2.760  0.1849E+03  0.1497E+03
      2.806  0.1980E+03  0.1589E+03
      2.853  0.2231E+03  0.1693E+03
      2.900  0.2477E+03  0.1808E+03
      2.946  0.2563E+03  0.1928E+03
      2.993  0.2498E+03  0.2044E+03
      3.039  0.2470E+03  0.2159E+03
      3.086  0.2624E+03  0.2282E+03
      3.133  0.2867E+03  0.2415E+03
      3.179  0.3013E+03  0.2556E+03
      3.226  0.3038E+03  0.2697E+03
      3.272  0.3050E+03  0.2839E+03
      3.319  0.3084E+03  0.2983E+03
      3.366  0.3112E+03  0.3128E+03
      3.412  0.3146E+03  0.3275E+03
      3.459  0.3219E+03  0.3425E+03
      3.506  0.3336E+03  0.3580E+03
      3.552  0.3442E+03  0.3741E+03
      3.599  0.3470E+03  0.3902E+03
      3.645  0.3449E+03  0.4063E+03
      3.692  0.3489E+03  0.4226E+03
      3.739  0.3578E+03  0.4392E+03
      3.785  0.3593E+03  0.4560E+03
      3.832  0.3522E+03  0.4724E+03
      3.878  0.3479E+03  0.4886E+03
      3.925  0.3498E+03  0.5049E+03
      3.972  0.3506E+03  0.5213E+03
      4.018  0.3413E+03  0.5372E+03
      4.065  0.3225E+03  0.5522E+03
      4.111  0.3065E+03  0.5665E+03
      4.158  0.2975E+03  0.5803E+03
      4.205  0.2872E+03  0.5937E+03
      4.251  0.2709E+03  0.6064E+03
      4.298  0.2534E+03  0.6182E+03
      4.344  0.2426E+03  0.6295E+03
      4.391  0.2454E+03  0.6409E+03
      4.438  0.2579E+03  0.6529E+03
      4.484  0.2616E+03  0.6651E+03
      4.531  0.2504E+03  0.6768E+03
      4.577  0.2477E+03  0.6883E+03
      4.624  0.2676E+03  0.7008E+03
      4.671  0.2924E+03  0.7144E+03
      4.717  0.3071E+03  0.7287E+03
      4.764  0.3138E+03  0.7434E+03
      4.810  0.3134E+03  0.7580E+03
      4.857  0.3047E+03  0.7722E+03
      4.904  0.2899E+03  0.7857E+03
      4.950  0.2784E+03  0.7987E+03
      4.997  0.2813E+03  0.8118E+03
      5.044  0.2955E+03  0.8255E+03
      5.090  0.3081E+03  0.8399E+03
      5.137  0.3092E+03  0.8543E+03
      5.183  0.2974E+03  0.8682E+03
      5.230  0.2854E+03  0.8815E+03
      5.277  0.2844E+03  0.8947E+03
      5.323  0.2905E+03  0.9083E+03
      5.370  0.2975E+03  0.9221E+03
      5.416  0.3019E+03  0.9362E+03
      5.463  0.2985E+03  0.9501E+03
      5.510  0.2886E+03  0.9636E+03
      5.556  0.2868E+03  0.9769E+03
      5.603  0.3031E+03  0.9911E+03
      5.649  0.3218E+03  0.1006E+04
      5.696  0.3252E+03  0.1021E+04
      5.743  0.3201E+03  0.1036E+04
      5.789  0.3200E+03  0.1051E+04
      5.836  0.3264E+03  0.1066E+04
      5.882  0.3370E+03  0.1082E+04
      5.929  0.3504E+03  0.1098E+04
      5.976  0.3656E+03  0.1115E+04
      6.022  0.3792E+03  0.1133E+04
      6.069  0.3856E+03  0.1151E+04
      6.115  0.3876E+03  0.1169E+04
      6.162  0.3917E+03  0.1187E+04
      6.209  0.3986E+03  0.1206E+04
      6.255  0.4097E+03  0.1225E+04
      6.302  0.4275E+03  0.1245E+04
      6.348  0.4468E+03  0.1266E+04
      6.395  0.4575E+03  0.1287E+04
      6.442  0.4572E+03  0.1308E+04
      6.488  0.4532E+03  0.1329E+04
      6.535  0.4500E+03  0.1350E+04
      6.582  0.4456E+03  0.1371E+04
      6.628  0.4391E+03  0.1392E+04
      6.675  0.4317E+03  0.1412E+04
      6.721  0.4246E+03  0.1432E+04
      6.768  0.4166E+03  0.1451E+04
      6.815  0.4010E+03  0.1470E+04
      6.861  0.3761E+03  0.1487E+04
      6.908  0.3540E+03  0.1504E+04
      6.954  0.3442E+03  0.1520E+04
      7.001  0.3391E+03  0.1536E+04
      7.048  0.3273E+03  0.1551E+04
      7.094  0.3146E+03  0.1565E+04
      7.141  0.3136E+03  0.1580E+04
      7.187  0.3195E+03  0.1595E+04
      7.234  0.3131E+03  0.1610E+04
      7.281  0.2868E+03  0.1623E+04
      7.327  0.2552E+03  0.1635E+04
      7.374  0.2400E+03  0.1646E+04
      7.420  0.2492E+03  0.1658E+04
      7.467  0.2718E+03  0.1670E+04
      7.514  0.2847E+03  0.1684E+04
      7.560  0.2761E+03  0.1696E+04
      7.607  0.2581E+03  0.1708E+04
      7.653  0.2482E+03  0.1720E+04
      7.700  0.2576E+03  0.1732E+04
      7.747  0.2835E+03  0.1745E+04
      7.793  0.3058E+03  0.1760E+04
      7.840  0.3120E+03  0.1774E+04
      7.887  0.3087E+03  0.1788E+04
      7.933  0.3029E+03  0.1803E+04
      7.980  0.2959E+03  0.1816E+04
      8.026  0.2911E+03  0.1830E+04
      8.073  0.2961E+03  0.1844E+04
      8.120  0.3096E+03  0.1858E+04
      8.166  0.3172E+03  0.1873E+04
      8.213  0.3178E+03  0.1888E+04
      8.259  0.3303E+03  0.1903E+04
      8.306  0.3542E+03  0.1920E+04
      8.353  0.3621E+03  0.1937E+04
      8.399  0.3388E+03  0.1952E+04
      8.446  0.2989E+03  0.1966E+04
      8.492  0.2663E+03  0.1979E+04
      8.539  0.2558E+03  0.1991E+04
      8.586  0.2716E+03  0.2003E+04
      8.632  0.2960E+03  0.2017E+04
      8.679  0.2999E+03  0.2031E+04
      8.725  0.2835E+03  0.2044E+04
      8.772  0.2672E+03  0.2057E+04
      8.819  0.2567E+03  0.2069E+04
      8.865  0.2489E+03  0.2080E+04
      8.912  0.2450E+03  0.2092E+04
      8.958  0.2453E+03  0.2103E+04
      9.005  0.2539E+03  0.2115E+04
      9.052  0.2741E+03  0.2128E+04
      9.098  0.2839E+03  0.2141E+04
      9.145  0.2652E+03  0.2153E+04
      9.191  0.2402E+03  0.2164E+04
      9.238  0.2280E+03  0.2175E+04
      9.285  0.2197E+03  0.2185E+04
      9.331  0.2138E+03  0.2195E+04
      9.378  0.2223E+03  0.2206E+04
      9.425  0.2431E+03  0.2217E+04
      9.471  0.2628E+03  0.2229E+04
      9.518  0.2738E+03  0.2242E+04
      9.564  0.2773E+03  0.2255E+04
      9.611  0.2761E+03  0.2268E+04
      9.658  0.2707E+03  0.2280E+04
      9.704  0.2606E+03  0.2293E+04
      9.751  0.2433E+03  0.2304E+04
      9.797  0.2239E+03  0.2314E+04
      9.844  0.2197E+03  0.2325E+04
      9.891  0.2373E+03  0.2336E+04
      9.937  0.2650E+03  0.2348E+04
      9.984  0.2960E+03  0.2362E+04
     10.030  0.3282E+03  0.2377E+04
     10.077  0.3495E+03  0.2393E+04
     10.124  0.3459E+03  0.2409E+04
     10.170  0.3232E+03  0.2425E+04
     10.217  0.3102E+03  0.2439E+04
     10.263  0.3303E+03  0.2454E+04
     10.310  0.3894E+03  0.2473E+04
     10.357  0.4686E+03  0.2494E+04
     10.403  0.5193E+03  0.2519E+04
     10.450  0.5080E+03  0.2542E+04
     10.496  0.4482E+03  0.2563E+04
     10.543  0.3715E+03  0.2580E+04
     10.590  0.3000E+03  0.2594E+04
     10.636  0.2468E+03  0.2606E+04
     10.683  0.2114E+03  0.2616E+04
     10.729  0.1797E+03  0.2624E+04
     10.776  0.1406E+03  0.2631E+04
     10.823  0.9586E+02  0.2635E+04
     10.869  0.5515E+02  0.2638E+04
     10.916  0.2613E+02  0.2639E+04
     10.963  0.9767E+01  0.2639E+04
     11.009  0.3020E+01  0.2640E+04
     11.056  0.1845E+01  0.2640E+04
     11.102  0.2271E+01  0.2640E+04
     11.149  0.1853E+01  0.2640E+04
     11.196  0.7043E+00  0.2640E+04
     11.242 -0.2235E-01  0.2640E+04
     11.289 -0.1288E+00  0.2640E+04
     11.335 -0.5265E-01  0.2640E+04
     11.382 -0.1094E-01  0.2640E+04
     11.429 -0.3504E-02  0.2640E+04
     11.475 -0.1370E-01  0.2640E+04
     11.522 -0.4317E-01  0.2640E+04
     11.568 -0.3319E-01  0.2640E+04
     11.615  0.2114E+00  0.2640E+04
     11.662  0.7298E+00  0.2640E+04
     11.708  0.1025E+01  0.2640E+04
     11.755  0.7077E+00  0.2640E+04
     11.801  0.1941E+00  0.2640E+04
     11.848 -0.3671E-01  0.2640E+04
     11.895 -0.4183E-01  0.2640E+04
     11.941 -0.1276E-01  0.2640E+04
     11.988 -0.2042E-02  0.2640E+04
     12.034 -0.1921E-03  0.2640E+04
     12.081 -0.1108E-04  0.2640E+04
     12.128 -0.3998E-06  0.2640E+04
     12.174 -0.9125E-08  0.2640E+04
     12.221 -0.1326E-09  0.2640E+04
     12.268 -0.1233E-11  0.2640E+04
     12.314 -0.7444E-14  0.2640E+04
     12.361  0.0000E+00  0.2640E+04
     12.407  0.0000E+00  0.2640E+04
     12.454  0.0000E+00  0.2640E+04
     12.501  0.0000E+00  0.2640E+04
     12.547  0.0000E+00  0.2640E+04
     12.594  0.0000E+00  0.2640E+04
     12.640  0.0000E+00  0.2640E+04
     12.687  0.0000E+00  0.2640E+04
