  64  64   0   0
  0.1453063E+02  0.1095620E-08  0.1095620E-08  0.1095620E-08  0.5000000E-15
  1.000000000000000E-004
  CAR 
 Ir_Ru                                   
     17.89007229     -1.82084755  301      9.89657612      1.00000000
     -1.821  0.0000E+00  0.0000E+00
     -1.755  0.0000E+00  0.0000E+00
     -1.689  0.0000E+00  0.0000E+00
     -1.624 -0.5565E-28 -0.3657E-29
     -1.558 -0.1267E-23 -0.8328E-25
     -1.492 -0.1208E-19 -0.7936E-21
     -1.427 -0.4806E-16 -0.3158E-17
     -1.361 -0.7700E-13 -0.5063E-14
     -1.295 -0.5250E-10 -0.3454E-11
     -1.230 -0.1471E-07 -0.9699E-09
     -1.164 -0.1674E-05 -0.1109E-06
     -1.098 -0.7561E-04 -0.5079E-05
     -1.032 -0.1300E-02 -0.9047E-04
     -0.967 -0.7867E-02 -0.6074E-03
     -0.901 -0.1525E-01 -0.1609E-02
     -0.835  0.1335E-01 -0.7319E-03
     -0.770  0.3731E+00  0.2378E-01
     -0.704  0.1345E+01  0.1121E+00
     -0.638  0.1478E+01  0.2092E+00
     -0.572  0.9473E+00  0.2715E+00
     -0.507  0.1673E+01  0.3814E+00
     -0.441  0.3374E+01  0.6031E+00
     -0.375  0.3842E+01  0.8555E+00
     -0.310  0.1486E+01  0.9532E+00
     -0.244  0.5439E+00  0.9889E+00
     -0.178  0.2938E+01  0.1182E+01
     -0.113  0.5648E+01  0.1553E+01
     -0.047  0.4204E+01  0.1829E+01
      0.019  0.3127E+01  0.2035E+01
      0.085  0.4231E+01  0.2313E+01
      0.150  0.4212E+01  0.2589E+01
      0.216  0.1799E+01  0.2708E+01
      0.282  0.1393E+01  0.2799E+01
      0.347  0.6107E+01  0.3200E+01
      0.413  0.9625E+01  0.3833E+01
      0.479  0.5224E+01  0.4176E+01
      0.544  0.3631E+01  0.4415E+01
      0.610  0.6255E+01  0.4826E+01
      0.676  0.5764E+01  0.5204E+01
      0.742  0.2506E+01  0.5369E+01
      0.807  0.1864E+01  0.5491E+01
      0.873  0.6794E+01  0.5938E+01
      0.939  0.1013E+02  0.6604E+01
      1.004  0.1019E+02  0.7273E+01
      1.070  0.9199E+01  0.7877E+01
      1.136  0.6905E+01  0.8331E+01
      1.201  0.4710E+01  0.8640E+01
      1.267  0.5979E+01  0.9033E+01
      1.333  0.6454E+01  0.9457E+01
      1.399  0.5406E+01  0.9812E+01
      1.464  0.8074E+01  0.1034E+02
      1.530  0.1246E+02  0.1116E+02
      1.596  0.1299E+02  0.1201E+02
      1.661  0.1236E+02  0.1283E+02
      1.727  0.1354E+02  0.1372E+02
      1.793  0.1221E+02  0.1452E+02
      1.859  0.7081E+01  0.1498E+02
      1.924  0.6486E+01  0.1541E+02
      1.990  0.8166E+01  0.1595E+02
      2.056  0.1552E+02  0.1697E+02
      2.121  0.2619E+02  0.1869E+02
      2.187  0.2953E+02  0.2063E+02
      2.253  0.3375E+02  0.2284E+02
      2.318  0.3227E+02  0.2496E+02
      2.384  0.2696E+02  0.2674E+02
      2.450  0.3720E+02  0.2918E+02
      2.516  0.4766E+02  0.3231E+02
      2.581  0.4093E+02  0.3500E+02
      2.647  0.3296E+02  0.3717E+02
      2.713  0.4990E+02  0.4045E+02
      2.778  0.7781E+02  0.4556E+02
      2.844  0.6994E+02  0.5015E+02
      2.910  0.5239E+02  0.5360E+02
      2.975  0.4967E+02  0.5686E+02
      3.041  0.6607E+02  0.6120E+02
      3.107  0.8819E+02  0.6700E+02
      3.173  0.9270E+02  0.7309E+02
      3.238  0.7979E+02  0.7833E+02
      3.304  0.7700E+02  0.8339E+02
      3.370  0.8048E+02  0.8868E+02
      3.435  0.7500E+02  0.9360E+02
      3.501  0.8158E+02  0.9896E+02
      3.567  0.8904E+02  0.1048E+03
      3.633  0.8552E+02  0.1104E+03
      3.698  0.6890E+02  0.1150E+03
      3.764  0.5378E+02  0.1185E+03
      3.830  0.7576E+02  0.1235E+03
      3.895  0.8635E+02  0.1291E+03
      3.961  0.7405E+02  0.1340E+03
      4.027  0.6315E+02  0.1382E+03
      4.092  0.6454E+02  0.1424E+03
      4.158  0.7409E+02  0.1473E+03
      4.224  0.6208E+02  0.1513E+03
      4.290  0.4630E+02  0.1544E+03
      4.355  0.4509E+02  0.1574E+03
      4.421  0.5100E+02  0.1607E+03
      4.487  0.5370E+02  0.1642E+03
      4.552  0.5268E+02  0.1677E+03
      4.618  0.6371E+02  0.1719E+03
      4.684  0.7897E+02  0.1771E+03
      4.749  0.7721E+02  0.1821E+03
      4.815  0.7094E+02  0.1868E+03
      4.881  0.7309E+02  0.1916E+03
      4.947  0.7355E+02  0.1964E+03
      5.012  0.7388E+02  0.2013E+03
      5.078  0.6715E+02  0.2057E+03
      5.144  0.5610E+02  0.2094E+03
      5.209  0.7472E+02  0.2143E+03
      5.275  0.9563E+02  0.2206E+03
      5.341  0.8366E+02  0.2261E+03
      5.406  0.7248E+02  0.2308E+03
      5.472  0.7318E+02  0.2356E+03
      5.538  0.6882E+02  0.2402E+03
      5.604  0.7071E+02  0.2448E+03
      5.669  0.8132E+02  0.2502E+03
      5.735  0.1073E+03  0.2572E+03
      5.801  0.1073E+03  0.2643E+03
      5.866  0.7217E+02  0.2690E+03
      5.932  0.6023E+02  0.2730E+03
      5.998  0.7880E+02  0.2781E+03
      6.064  0.1123E+03  0.2855E+03
      6.129  0.1177E+03  0.2932E+03
      6.195  0.8855E+02  0.2991E+03
      6.261  0.7921E+02  0.3043E+03
      6.326  0.1029E+03  0.3110E+03
      6.392  0.1263E+03  0.3193E+03
      6.458  0.1310E+03  0.3279E+03
      6.523  0.1106E+03  0.3352E+03
      6.589  0.9972E+02  0.3418E+03
      6.655  0.1315E+03  0.3504E+03
      6.721  0.1476E+03  0.3601E+03
      6.786  0.1110E+03  0.3674E+03
      6.852  0.8551E+02  0.3730E+03
      6.918  0.8139E+02  0.3783E+03
      6.983  0.7231E+02  0.3831E+03
      7.049  0.6858E+02  0.3876E+03
      7.115  0.7473E+02  0.3925E+03
      7.180  0.8285E+02  0.3980E+03
      7.246  0.7443E+02  0.4028E+03
      7.312  0.6210E+02  0.4069E+03
      7.378  0.4974E+02  0.4102E+03
      7.443  0.4324E+02  0.4130E+03
      7.509  0.6022E+02  0.4170E+03
      7.575  0.7303E+02  0.4218E+03
      7.640  0.7781E+02  0.4269E+03
      7.706  0.7406E+02  0.4318E+03
      7.772  0.5093E+02  0.4351E+03
      7.838  0.3691E+02  0.4375E+03
      7.903  0.5113E+02  0.4409E+03
      7.969  0.7713E+02  0.4460E+03
      8.035  0.8165E+02  0.4513E+03
      8.100  0.6839E+02  0.4558E+03
      8.166  0.6935E+02  0.4604E+03
      8.232  0.8756E+02  0.4661E+03
      8.297  0.1007E+03  0.4727E+03
      8.363  0.1027E+03  0.4795E+03
      8.429  0.8871E+02  0.4853E+03
      8.495  0.6438E+02  0.4896E+03
      8.560  0.6373E+02  0.4937E+03
      8.626  0.6326E+02  0.4979E+03
      8.692  0.4456E+02  0.5008E+03
      8.757  0.4698E+02  0.5039E+03
      8.823  0.7161E+02  0.5086E+03
      8.889  0.8853E+02  0.5144E+03
      8.954  0.9189E+02  0.5205E+03
      9.020  0.8337E+02  0.5259E+03
      9.086  0.5752E+02  0.5297E+03
      9.152  0.4448E+02  0.5326E+03
      9.217  0.4457E+02  0.5356E+03
      9.283  0.3709E+02  0.5380E+03
      9.349  0.3521E+02  0.5403E+03
      9.414  0.4286E+02  0.5431E+03
      9.480  0.5230E+02  0.5466E+03
      9.546  0.5859E+02  0.5504E+03
      9.611  0.7717E+02  0.5555E+03
      9.677  0.9644E+02  0.5618E+03
      9.743  0.9121E+02  0.5678E+03
      9.809  0.7288E+02  0.5726E+03
      9.874  0.4183E+02  0.5754E+03
      9.940  0.2909E+02  0.5773E+03
     10.006  0.4018E+02  0.5799E+03
     10.071  0.5052E+02  0.5832E+03
     10.137  0.5296E+02  0.5867E+03
     10.203  0.6696E+02  0.5911E+03
     10.269  0.9089E+02  0.5971E+03
     10.334  0.9832E+02  0.6035E+03
     10.400  0.8199E+02  0.6089E+03
     10.466  0.8166E+02  0.6143E+03
     10.531  0.1091E+03  0.6215E+03
     10.597  0.1052E+03  0.6284E+03
     10.663  0.9028E+02  0.6343E+03
     10.728  0.9180E+02  0.6403E+03
     10.794  0.9761E+02  0.6468E+03
     10.860  0.1079E+03  0.6538E+03
     10.926  0.1028E+03  0.6606E+03
     10.991  0.7996E+02  0.6659E+03
     11.057  0.6141E+02  0.6699E+03
     11.123  0.5672E+02  0.6736E+03
     11.188  0.4424E+02  0.6765E+03
     11.254  0.3886E+02  0.6791E+03
     11.320  0.3232E+02  0.6812E+03
     11.385  0.1679E+02  0.6823E+03
     11.451  0.7459E+01  0.6828E+03
     11.517  0.7571E+01  0.6833E+03
     11.583  0.8711E+01  0.6839E+03
     11.648  0.1161E+02  0.6846E+03
     11.714  0.1925E+02  0.6859E+03
     11.780  0.3601E+02  0.6883E+03
     11.845  0.4736E+02  0.6914E+03
     11.911  0.3686E+02  0.6938E+03
     11.977  0.1938E+02  0.6951E+03
     12.042  0.1124E+02  0.6958E+03
     12.108  0.9917E+01  0.6964E+03
     12.174  0.7701E+01  0.6970E+03
     12.240  0.7709E+01  0.6975E+03
     12.305  0.1253E+02  0.6983E+03
     12.371  0.1359E+02  0.6992E+03
     12.437  0.6959E+01  0.6996E+03
     12.502  0.6948E+01  0.7001E+03
     12.568  0.1374E+02  0.7010E+03
     12.634  0.1538E+02  0.7020E+03
     12.700  0.1738E+02  0.7031E+03
     12.765  0.2815E+02  0.7050E+03
     12.831  0.3135E+02  0.7071E+03
     12.897  0.2519E+02  0.7087E+03
     12.962  0.1480E+02  0.7097E+03
     13.028  0.1239E+02  0.7105E+03
     13.094  0.1488E+02  0.7115E+03
     13.159  0.1150E+02  0.7122E+03
     13.225  0.6260E+01  0.7126E+03
     13.291  0.2274E+01  0.7128E+03
     13.357  0.2973E+01  0.7130E+03
     13.422  0.7488E+01  0.7135E+03
     13.488  0.9977E+01  0.7141E+03
     13.554  0.1000E+02  0.7148E+03
     13.619  0.8060E+01  0.7153E+03
     13.685  0.5513E+01  0.7157E+03
     13.751  0.4926E+01  0.7160E+03
     13.816  0.4993E+01  0.7163E+03
     13.882  0.5781E+01  0.7167E+03
     13.948  0.4605E+01  0.7170E+03
     14.014  0.4949E+01  0.7173E+03
     14.079  0.7620E+01  0.7178E+03
     14.145  0.4843E+01  0.7182E+03
     14.211  0.9054E+00  0.7182E+03
     14.276  0.8152E+00  0.7183E+03
     14.342  0.1014E+01  0.7183E+03
     14.408  0.3721E+00  0.7184E+03
     14.474 -0.3585E-01  0.7184E+03
     14.539  0.5448E+00  0.7184E+03
     14.605  0.1909E+01  0.7185E+03
     14.671  0.2183E+01  0.7187E+03
     14.736  0.1193E+01  0.7187E+03
     14.802  0.1789E+01  0.7189E+03
     14.868  0.3216E+01  0.7191E+03
     14.933  0.2312E+01  0.7192E+03
     14.999  0.1474E+01  0.7193E+03
     15.065  0.1548E+01  0.7194E+03
     15.131  0.5663E+00  0.7195E+03
     15.196 -0.5780E-01  0.7195E+03
     15.262 -0.4568E-01  0.7195E+03
     15.328 -0.8354E-02  0.7195E+03
     15.393 -0.1254E-01  0.7195E+03
     15.459  0.3058E-01  0.7195E+03
     15.525  0.1992E+00  0.7195E+03
     15.590  0.2308E+00  0.7195E+03
     15.656  0.5945E-01  0.7195E+03
     15.722 -0.1241E-01  0.7195E+03
     15.788 -0.1538E-01  0.7195E+03
     15.853 -0.7360E-01  0.7195E+03
     15.919 -0.2753E-02  0.7195E+03
     15.985  0.1044E+01  0.7196E+03
     16.050  0.2042E+01  0.7197E+03
     16.116  0.9940E+00  0.7198E+03
     16.182 -0.1606E-01  0.7197E+03
     16.247 -0.7029E-01  0.7197E+03
     16.313 -0.1081E-01  0.7197E+03
     16.379 -0.1575E-01  0.7197E+03
     16.445 -0.4996E-01  0.7197E+03
     16.510  0.1676E+00  0.7198E+03
     16.576  0.8553E+00  0.7198E+03
     16.642  0.8719E+00  0.7199E+03
     16.707  0.1611E+00  0.7199E+03
     16.773 -0.9167E-01  0.7199E+03
     16.839  0.2916E+00  0.7199E+03
     16.905  0.9685E+00  0.7200E+03
     16.970  0.7199E+00  0.7200E+03
     17.036  0.7598E-01  0.7200E+03
     17.102 -0.4685E-01  0.7200E+03
     17.167 -0.9918E-02  0.7200E+03
     17.233 -0.5992E-03  0.7200E+03
     17.299 -0.1336E-04  0.7200E+03
     17.364 -0.1176E-06  0.7200E+03
     17.430 -0.4199E-09  0.7200E+03
     17.496 -0.6160E-12  0.7200E+03
     17.562 -0.4326E-15  0.7200E+03
     17.627  0.0000E+00  0.7200E+03
     17.693  0.0000E+00  0.7200E+03
     17.759  0.0000E+00  0.7200E+03
     17.824  0.0000E+00  0.7200E+03
     17.890  0.0000E+00  0.7200E+03
