   8   8   0   0
  0.1378349E+02  0.5445862E-09  0.5445863E-09  0.4293306E-09  0.5000000E-15
  1.000000000000000E-004
  CAR 
 Ir_Ru                                   
     30.81821719     -0.54075585  301      8.77272011      1.00000000
     -0.541  0.0000E+00  0.0000E+00
     -0.436  0.0000E+00  0.0000E+00
     -0.332  0.0000E+00  0.0000E+00
     -0.227  0.0000E+00  0.0000E+00
     -0.123  0.0000E+00  0.0000E+00
     -0.018  0.0000E+00  0.0000E+00
      0.086  0.0000E+00  0.0000E+00
      0.191  0.0000E+00  0.0000E+00
      0.295  0.0000E+00  0.0000E+00
      0.400  0.0000E+00  0.0000E+00
      0.505  0.0000E+00  0.0000E+00
      0.609  0.0000E+00  0.0000E+00
      0.714  0.0000E+00  0.0000E+00
      0.818  0.0000E+00  0.0000E+00
      0.923  0.2294E-01  0.2907E-03
      1.027  0.1660E+00  0.1181E-01
      1.132  0.2286E+00  0.3166E-01
      1.236  0.2943E+00  0.5957E-01
      1.341  0.3357E+00  0.9216E-01
      1.445  0.3897E+00  0.1301E+00
      1.550  0.4419E+00  0.1736E+00
      1.654  0.4859E+00  0.2222E+00
      1.759  0.5329E+00  0.2754E+00
      1.863  0.5885E+00  0.3339E+00
      1.968  0.6444E+00  0.3984E+00
      2.072  0.7000E+00  0.4687E+00
      2.177  0.7652E+00  0.5451E+00
      2.282  0.8394E+00  0.6289E+00
      2.386  0.9207E+00  0.7209E+00
      2.491  0.1018E+01  0.8218E+00
      2.595  0.2177E+01  0.9606E+00
      2.700  0.3714E+01  0.1274E+01
      2.804  0.6472E+01  0.1809E+01
      2.909  0.7928E+01  0.2547E+01
      3.013  0.1102E+02  0.3596E+01
      3.118  0.1115E+02  0.4740E+01
      3.222  0.1147E+02  0.5924E+01
      3.327  0.1341E+02  0.7208E+01
      3.431  0.1377E+02  0.8688E+01
      3.536  0.1421E+02  0.1012E+02
      3.640  0.1111E+02  0.1147E+02
      3.745  0.1019E+02  0.1258E+02
      3.850  0.1052E+02  0.1366E+02
      3.954  0.9365E+01  0.1463E+02
      4.059  0.7783E+01  0.1560E+02
      4.163  0.6222E+01  0.1630E+02
      4.268  0.1052E+02  0.1708E+02
      4.372  0.1343E+02  0.1840E+02
      4.477  0.1394E+02  0.1989E+02
      4.581  0.9567E+01  0.2105E+02
      4.686  0.8529E+01  0.2184E+02
      4.790  0.9970E+01  0.2282E+02
      4.895  0.9770E+01  0.2396E+02
      4.999  0.1127E+02  0.2511E+02
      5.104  0.1242E+02  0.2638E+02
      5.208  0.1182E+02  0.2762E+02
      5.313  0.1001E+02  0.2880E+02
      5.417  0.6482E+01  0.2977E+02
      5.522  0.4161E+01  0.3027E+02
      5.627  0.4759E+01  0.3073E+02
      5.731  0.1057E+02  0.3144E+02
      5.836  0.1417E+02  0.3282E+02
      5.940  0.1563E+02  0.3440E+02
      6.045  0.1464E+02  0.3614E+02
      6.149  0.1245E+02  0.3757E+02
      6.254  0.9779E+01  0.3872E+02
      6.358  0.1001E+02  0.3980E+02
      6.463  0.1415E+02  0.4103E+02
      6.567  0.1515E+02  0.4265E+02
      6.672  0.1284E+02  0.4422E+02
      6.776  0.1203E+02  0.4552E+02
      6.881  0.9621E+01  0.4661E+02
      6.985  0.1217E+02  0.4770E+02
      7.090  0.1428E+02  0.4909E+02
      7.194  0.1431E+02  0.5055E+02
      7.299  0.1297E+02  0.5197E+02
      7.404  0.1187E+02  0.5324E+02
      7.508  0.1021E+02  0.5437E+02
      7.613  0.9366E+01  0.5542E+02
      7.717  0.8881E+01  0.5637E+02
      7.822  0.8918E+01  0.5730E+02
      7.926  0.7263E+01  0.5814E+02
      8.031  0.7141E+01  0.5890E+02
      8.135  0.7034E+01  0.5965E+02
      8.240  0.8382E+01  0.6042E+02
      8.344  0.8367E+01  0.6135E+02
      8.449  0.6486E+01  0.6210E+02
      8.553  0.5981E+01  0.6273E+02
      8.658  0.5807E+01  0.6336E+02
      8.762  0.5600E+01  0.6394E+02
      8.867  0.8311E+01  0.6465E+02
      8.971  0.7431E+01  0.6553E+02
      9.076  0.6487E+01  0.6625E+02
      9.181  0.8446E+01  0.6698E+02
      9.285  0.6262E+01  0.6776E+02
      9.390  0.7668E+01  0.6846E+02
      9.494  0.1060E+02  0.6945E+02
      9.599  0.1172E+02  0.7067E+02
      9.703  0.9810E+01  0.7177E+02
      9.808  0.1011E+02  0.7280E+02
      9.912  0.1567E+02  0.7419E+02
     10.017  0.1351E+02  0.7569E+02
     10.121  0.1592E+02  0.7719E+02
     10.226  0.1692E+02  0.7900E+02
     10.330  0.1603E+02  0.8088E+02
     10.435  0.1283E+02  0.8251E+02
     10.539  0.6391E+01  0.8363E+02
     10.644  0.2227E+01  0.8396E+02
     10.748  0.2038E+01  0.8417E+02
     10.853  0.2348E+01  0.8441E+02
     10.958  0.2337E+01  0.8465E+02
     11.062  0.2140E+01  0.8490E+02
     11.167  0.1868E+01  0.8510E+02
     11.271  0.1887E+01  0.8530E+02
     11.376  0.2101E+01  0.8550E+02
     11.480  0.2244E+01  0.8575E+02
     11.585  0.2120E+01  0.8597E+02
     11.689  0.2087E+01  0.8619E+02
     11.794  0.2080E+01  0.8641E+02
     11.898  0.2050E+01  0.8663E+02
     12.003  0.1859E+01  0.8683E+02
     12.107  0.1863E+01  0.8703E+02
     12.212  0.1965E+01  0.8722E+02
     12.316  0.2124E+01  0.8744E+02
     12.421  0.2281E+01  0.8767E+02
     12.525  0.2307E+01  0.8790E+02
     12.630  0.2088E+01  0.8814E+02
     12.735  0.2036E+01  0.8835E+02
     12.839  0.2008E+01  0.8856E+02
     12.944  0.1960E+01  0.8877E+02
     13.048  0.1949E+01  0.8897E+02
     13.153  0.1956E+01  0.8918E+02
     13.257  0.1948E+01  0.8938E+02
     13.362  0.1791E+01  0.8957E+02
     13.466  0.1683E+01  0.8975E+02
     13.571  0.1618E+01  0.8993E+02
     13.675  0.1605E+01  0.9009E+02
     13.780  0.1631E+01  0.9026E+02
     13.884  0.1666E+01  0.9044E+02
     13.989  0.1669E+01  0.9061E+02
     14.093  0.1640E+01  0.9078E+02
     14.198  0.1655E+01  0.9096E+02
     14.302  0.1723E+01  0.9113E+02
     14.407  0.1782E+01  0.9132E+02
     14.512  0.1727E+01  0.9150E+02
     14.616  0.1745E+01  0.9168E+02
     14.721  0.1743E+01  0.9186E+02
     14.825  0.1816E+01  0.9205E+02
     14.930  0.1820E+01  0.9224E+02
     15.034  0.1919E+01  0.9243E+02
     15.139  0.1779E+01  0.9263E+02
     15.243  0.1780E+01  0.9281E+02
     15.348  0.1827E+01  0.9300E+02
     15.452  0.2136E+01  0.9320E+02
     15.557  0.1740E+01  0.9339E+02
     15.661  0.1690E+01  0.9357E+02
     15.766  0.1669E+01  0.9375E+02
     15.870  0.1795E+01  0.9393E+02
     15.975  0.1641E+01  0.9410E+02
     16.079  0.1872E+01  0.9428E+02
     16.184  0.1566E+01  0.9446E+02
     16.289  0.1496E+01  0.9462E+02
     16.393  0.1402E+01  0.9477E+02
     16.498  0.1314E+01  0.9491E+02
     16.602  0.1416E+01  0.9505E+02
     16.707  0.1102E+01  0.9518E+02
     16.811  0.9107E+00  0.9529E+02
     16.916  0.8612E+00  0.9538E+02
     17.020  0.7864E+00  0.9547E+02
     17.125  0.7463E+00  0.9555E+02
     17.229  0.7168E+00  0.9562E+02
     17.334  0.6852E+00  0.9570E+02
     17.438  0.6874E+00  0.9577E+02
     17.543  0.6661E+00  0.9584E+02
     17.647  0.6327E+00  0.9591E+02
     17.752  0.5919E+00  0.9597E+02
     17.857  0.5592E+00  0.9603E+02
     17.961  0.5409E+00  0.9609E+02
     18.066  0.4359E+00  0.9614E+02
     18.170  0.2979E+00  0.9618E+02
     18.275  0.3039E+00  0.9621E+02
     18.379  0.3403E+00  0.9624E+02
     18.484  0.3984E+00  0.9628E+02
     18.588  0.5145E+00  0.9633E+02
     18.693  0.5555E+00  0.9639E+02
     18.797  0.9929E+00  0.9646E+02
     18.902  0.1299E+01  0.9658E+02
     19.006  0.1599E+01  0.9674E+02
     19.111  0.1810E+01  0.9691E+02
     19.215  0.5729E+01  0.9729E+02
     19.320  0.6361E+01  0.9795E+02
     19.424  0.5286E+01  0.9857E+02
     19.529  0.4668E+01  0.9909E+02
     19.634  0.4245E+01  0.9956E+02
     19.738  0.3875E+01  0.9999E+02
     19.843  0.3981E+01  0.1004E+03
     19.947  0.4584E+01  0.1008E+03
     20.052  0.4465E+01  0.1013E+03
     20.156  0.4178E+01  0.1018E+03
     20.261  0.4046E+01  0.1022E+03
     20.365  0.3996E+01  0.1026E+03
     20.470  0.4103E+01  0.1030E+03
     20.574  0.4108E+01  0.1035E+03
     20.679  0.4008E+01  0.1039E+03
     20.783  0.4082E+01  0.1043E+03
     20.888  0.3960E+01  0.1047E+03
     20.992  0.3687E+01  0.1051E+03
     21.097  0.3585E+01  0.1055E+03
     21.201  0.3767E+01  0.1059E+03
     21.306  0.4025E+01  0.1063E+03
     21.411  0.3942E+01  0.1067E+03
     21.515  0.3650E+01  0.1071E+03
     21.620  0.3455E+01  0.1075E+03
     21.724  0.3371E+01  0.1079E+03
     21.829  0.3192E+01  0.1082E+03
     21.933  0.3075E+01  0.1085E+03
     22.038  0.3062E+01  0.1088E+03
     22.142  0.3009E+01  0.1092E+03
     22.247  0.3417E+01  0.1095E+03
     22.351  0.3317E+01  0.1099E+03
     22.456  0.3123E+01  0.1102E+03
     22.560  0.3201E+01  0.1105E+03
     22.665  0.3128E+01  0.1108E+03
     22.769  0.3174E+01  0.1112E+03
     22.874  0.3350E+01  0.1115E+03
     22.978  0.3237E+01  0.1118E+03
     23.083  0.2873E+01  0.1122E+03
     23.188  0.2568E+01  0.1124E+03
     23.292  0.2418E+01  0.1127E+03
     23.397  0.2414E+01  0.1130E+03
     23.501  0.2516E+01  0.1132E+03
     23.606  0.2829E+01  0.1135E+03
     23.710  0.3290E+01  0.1138E+03
     23.815  0.3428E+01  0.1142E+03
     23.919  0.3877E+01  0.1145E+03
     24.024  0.4396E+01  0.1150E+03
     24.128  0.4909E+01  0.1155E+03
     24.233  0.5174E+01  0.1160E+03
     24.337  0.5943E+01  0.1166E+03
     24.442  0.6969E+01  0.1172E+03
     24.546  0.6357E+01  0.1180E+03
     24.651  0.7157E+01  0.1187E+03
     24.755  0.7107E+01  0.1194E+03
     24.860  0.7749E+01  0.1202E+03
     24.965  0.7514E+01  0.1210E+03
     25.069  0.5067E+01  0.1216E+03
     25.174  0.4560E+01  0.1221E+03
     25.278  0.5403E+01  0.1227E+03
     25.383  0.4647E+01  0.1232E+03
     25.487  0.3604E+01  0.1236E+03
     25.592  0.3659E+01  0.1240E+03
     25.696  0.3636E+01  0.1244E+03
     25.801  0.3784E+01  0.1247E+03
     25.905  0.3201E+01  0.1251E+03
     26.010  0.3076E+01  0.1254E+03
     26.114  0.3054E+01  0.1257E+03
     26.219  0.3149E+01  0.1261E+03
     26.323  0.3138E+01  0.1264E+03
     26.428  0.3129E+01  0.1267E+03
     26.532  0.2912E+01  0.1270E+03
     26.637  0.2739E+01  0.1273E+03
     26.742  0.1866E+01  0.1276E+03
     26.846  0.1266E+01  0.1277E+03
     26.951  0.7786E+00  0.1278E+03
     27.055  0.4254E+00  0.1279E+03
     27.160  0.2650E+00  0.1279E+03
     27.264  0.1772E+00  0.1280E+03
     27.369  0.1223E+00  0.1280E+03
     27.473  0.7222E-01  0.1280E+03
     27.578  0.3375E-01  0.1280E+03
     27.682  0.1326E-01  0.1280E+03
     27.787  0.1074E-01  0.1280E+03
     27.891  0.8613E-02  0.1280E+03
     27.996  0.6738E-02  0.1280E+03
     28.100  0.5117E-02  0.1280E+03
     28.205  0.3751E-02  0.1280E+03
     28.309  0.2640E-02  0.1280E+03
     28.414  0.1783E-02  0.1280E+03
     28.519  0.1181E-02  0.1280E+03
     28.623  0.8304E-03  0.1280E+03
     28.728  0.6188E-03  0.1280E+03
     28.832  0.4396E-03  0.1280E+03
     28.937  0.2910E-03  0.1280E+03
     29.041  0.1729E-03  0.1280E+03
     29.146  0.8537E-04  0.1280E+03
     29.250  0.2841E-04  0.1280E+03
     29.355  0.2021E-05  0.1280E+03
     29.459  0.0000E+00  0.1280E+03
     29.564  0.0000E+00  0.1280E+03
     29.668  0.0000E+00  0.1280E+03
     29.773  0.0000E+00  0.1280E+03
     29.877  0.0000E+00  0.1280E+03
     29.982  0.0000E+00  0.1280E+03
     30.087  0.0000E+00  0.1280E+03
     30.191  0.0000E+00  0.1280E+03
     30.296  0.0000E+00  0.1280E+03
     30.400  0.0000E+00  0.1280E+03
     30.505  0.0000E+00  0.1280E+03
     30.609  0.0000E+00  0.1280E+03
     30.714  0.0000E+00  0.1280E+03
     30.818  0.0000E+00  0.1280E+03
