<?xml version="1.0" encoding="ISO-8859-1"?>
<modeling>
 <generator>
  <i name="program" type="string">vasp </i>
  <i name="version" type="string">5.4.1  </i>
  <i name="subversion" type="string">24Jun15 (build Dec 12 2017 15:24:27) complex                          parallel </i>
  <i name="platform" type="string">IFC91_ompi </i>
  <i name="date" type="string">2020 04 03 </i>
  <i name="time" type="string">15:45:28 </i>
 </generator>
 <incar>
  <i type="string" name="SYSTEM"> Ir_Ru</i>
  <i type="int" name="ISTART">     0</i>
  <i type="string" name="PREC">accurate</i>
  <i type="string" name="ALGO"> Very_Fast</i>
  <i type="int" name="ICHARG">     2</i>
  <i type="int" name="NELMIN">     5</i>
  <i type="int" name="IBRION">    -1</i>
  <i name="EDIFFG">      0.00001000</i>
  <i type="int" name="ISIF">     2</i>
  <i type="int" name="ISMEAR">    -5</i>
  <i name="SIGMA">      0.10000000</i>
  <v type="int" name="KPOINT_BSE">    -1     0     0     0</v>
 </incar>
 <kpoints>
  <generation param="Gamma">
   <v type="int" name="divisions">      10       10       12 </v>
   <v name="usershift">      0.00000000       0.00000000       0.00000000 </v>
   <v name="genvec1">      0.10000000      -0.00000000       0.00000000 </v>
   <v name="genvec2">      0.00000000       0.10000000       0.00000000 </v>
   <v name="genvec3">      0.00000000       0.00000000       0.08333333 </v>
   <v name="shift">      0.00000000       0.00000000       0.00000000 </v>
  </generation>
  <varray name="kpointlist" >
   <v>       0.00000000       0.00000000       0.00000000 </v>
   <v>       0.10000000       0.00000000       0.00000000 </v>
   <v>       0.20000000       0.00000000       0.00000000 </v>
   <v>       0.30000000      -0.00000000       0.00000000 </v>
   <v>       0.40000000       0.00000000       0.00000000 </v>
   <v>       0.50000000      -0.00000000       0.00000000 </v>
   <v>       0.10000000       0.10000000       0.00000000 </v>
   <v>       0.20000000       0.10000000       0.00000000 </v>
   <v>       0.30000000       0.10000000       0.00000000 </v>
   <v>       0.40000000       0.10000000       0.00000000 </v>
   <v>       0.50000000       0.10000000       0.00000000 </v>
   <v>      -0.40000000       0.10000000       0.00000000 </v>
   <v>      -0.30000000       0.10000000       0.00000000 </v>
   <v>      -0.20000000       0.10000000       0.00000000 </v>
   <v>      -0.10000000       0.10000000       0.00000000 </v>
   <v>       0.20000000       0.20000000       0.00000000 </v>
   <v>       0.30000000       0.20000000       0.00000000 </v>
   <v>       0.40000000       0.20000000       0.00000000 </v>
   <v>       0.50000000       0.20000000       0.00000000 </v>
   <v>      -0.40000000       0.20000000       0.00000000 </v>
   <v>      -0.30000000       0.20000000       0.00000000 </v>
   <v>      -0.20000000       0.20000000       0.00000000 </v>
   <v>       0.30000000       0.30000000       0.00000000 </v>
   <v>       0.40000000       0.30000000       0.00000000 </v>
   <v>       0.50000000       0.30000000       0.00000000 </v>
   <v>      -0.40000000       0.30000000       0.00000000 </v>
   <v>      -0.30000000       0.30000000       0.00000000 </v>
   <v>       0.40000000       0.40000000       0.00000000 </v>
   <v>       0.50000000       0.40000000       0.00000000 </v>
   <v>      -0.40000000       0.40000000       0.00000000 </v>
   <v>       0.50000000       0.50000000       0.00000000 </v>
   <v>       0.00000000       0.00000000       0.08333333 </v>
   <v>       0.10000000       0.00000000       0.08333333 </v>
   <v>       0.20000000       0.00000000       0.08333333 </v>
   <v>       0.30000000      -0.00000000       0.08333333 </v>
   <v>       0.40000000       0.00000000       0.08333333 </v>
   <v>       0.50000000      -0.00000000       0.08333333 </v>
   <v>       0.10000000       0.10000000       0.08333333 </v>
   <v>       0.20000000       0.10000000       0.08333333 </v>
   <v>       0.30000000       0.10000000       0.08333333 </v>
   <v>       0.40000000       0.10000000       0.08333333 </v>
   <v>       0.50000000       0.10000000       0.08333333 </v>
   <v>      -0.40000000       0.10000000       0.08333333 </v>
   <v>      -0.30000000       0.10000000       0.08333333 </v>
   <v>      -0.20000000       0.10000000       0.08333333 </v>
   <v>      -0.10000000       0.10000000       0.08333333 </v>
   <v>       0.20000000       0.20000000       0.08333333 </v>
   <v>       0.30000000       0.20000000       0.08333333 </v>
   <v>       0.40000000       0.20000000       0.08333333 </v>
   <v>       0.50000000       0.20000000       0.08333333 </v>
   <v>      -0.40000000       0.20000000       0.08333333 </v>
   <v>      -0.30000000       0.20000000       0.08333333 </v>
   <v>      -0.20000000       0.20000000       0.08333333 </v>
   <v>       0.30000000       0.30000000       0.08333333 </v>
   <v>       0.40000000       0.30000000       0.08333333 </v>
   <v>       0.50000000       0.30000000       0.08333333 </v>
   <v>      -0.40000000       0.30000000       0.08333333 </v>
   <v>      -0.30000000       0.30000000       0.08333333 </v>
   <v>       0.40000000       0.40000000       0.08333333 </v>
   <v>       0.50000000       0.40000000       0.08333333 </v>
   <v>      -0.40000000       0.40000000       0.08333333 </v>
   <v>       0.50000000       0.50000000       0.08333333 </v>
   <v>       0.00000000       0.00000000       0.16666667 </v>
   <v>       0.10000000       0.00000000       0.16666667 </v>
   <v>       0.20000000       0.00000000       0.16666667 </v>
   <v>       0.30000000      -0.00000000       0.16666667 </v>
   <v>       0.40000000       0.00000000       0.16666667 </v>
   <v>       0.50000000      -0.00000000       0.16666667 </v>
   <v>       0.10000000       0.10000000       0.16666667 </v>
   <v>       0.20000000       0.10000000       0.16666667 </v>
   <v>       0.30000000       0.10000000       0.16666667 </v>
   <v>       0.40000000       0.10000000       0.16666667 </v>
   <v>       0.50000000       0.10000000       0.16666667 </v>
   <v>      -0.40000000       0.10000000       0.16666667 </v>
   <v>      -0.30000000       0.10000000       0.16666667 </v>
   <v>      -0.20000000       0.10000000       0.16666667 </v>
   <v>      -0.10000000       0.10000000       0.16666667 </v>
   <v>       0.20000000       0.20000000       0.16666667 </v>
   <v>       0.30000000       0.20000000       0.16666667 </v>
   <v>       0.40000000       0.20000000       0.16666667 </v>
   <v>       0.50000000       0.20000000       0.16666667 </v>
   <v>      -0.40000000       0.20000000       0.16666667 </v>
   <v>      -0.30000000       0.20000000       0.16666667 </v>
   <v>      -0.20000000       0.20000000       0.16666667 </v>
   <v>       0.30000000       0.30000000       0.16666667 </v>
   <v>       0.40000000       0.30000000       0.16666667 </v>
   <v>       0.50000000       0.30000000       0.16666667 </v>
   <v>      -0.40000000       0.30000000       0.16666667 </v>
   <v>      -0.30000000       0.30000000       0.16666667 </v>
   <v>       0.40000000       0.40000000       0.16666667 </v>
   <v>       0.50000000       0.40000000       0.16666667 </v>
   <v>      -0.40000000       0.40000000       0.16666667 </v>
   <v>       0.50000000       0.50000000       0.16666667 </v>
   <v>       0.00000000       0.00000000       0.25000000 </v>
   <v>       0.10000000       0.00000000       0.25000000 </v>
   <v>       0.20000000       0.00000000       0.25000000 </v>
   <v>       0.30000000      -0.00000000       0.25000000 </v>
   <v>       0.40000000       0.00000000       0.25000000 </v>
   <v>       0.50000000      -0.00000000       0.25000000 </v>
   <v>       0.10000000       0.10000000       0.25000000 </v>
   <v>       0.20000000       0.10000000       0.25000000 </v>
   <v>       0.30000000       0.10000000       0.25000000 </v>
   <v>       0.40000000       0.10000000       0.25000000 </v>
   <v>       0.50000000       0.10000000       0.25000000 </v>
   <v>      -0.40000000       0.10000000       0.25000000 </v>
   <v>      -0.30000000       0.10000000       0.25000000 </v>
   <v>      -0.20000000       0.10000000       0.25000000 </v>
   <v>      -0.10000000       0.10000000       0.25000000 </v>
   <v>       0.20000000       0.20000000       0.25000000 </v>
   <v>       0.30000000       0.20000000       0.25000000 </v>
   <v>       0.40000000       0.20000000       0.25000000 </v>
   <v>       0.50000000       0.20000000       0.25000000 </v>
   <v>      -0.40000000       0.20000000       0.25000000 </v>
   <v>      -0.30000000       0.20000000       0.25000000 </v>
   <v>      -0.20000000       0.20000000       0.25000000 </v>
   <v>       0.30000000       0.30000000       0.25000000 </v>
   <v>       0.40000000       0.30000000       0.25000000 </v>
   <v>       0.50000000       0.30000000       0.25000000 </v>
   <v>      -0.40000000       0.30000000       0.25000000 </v>
   <v>      -0.30000000       0.30000000       0.25000000 </v>
   <v>       0.40000000       0.40000000       0.25000000 </v>
   <v>       0.50000000       0.40000000       0.25000000 </v>
   <v>      -0.40000000       0.40000000       0.25000000 </v>
   <v>       0.50000000       0.50000000       0.25000000 </v>
   <v>       0.00000000       0.00000000       0.33333333 </v>
   <v>       0.10000000       0.00000000       0.33333333 </v>
   <v>       0.20000000       0.00000000       0.33333333 </v>
   <v>       0.30000000      -0.00000000       0.33333333 </v>
   <v>       0.40000000       0.00000000       0.33333333 </v>
   <v>       0.50000000      -0.00000000       0.33333333 </v>
   <v>       0.10000000       0.10000000       0.33333333 </v>
   <v>       0.20000000       0.10000000       0.33333333 </v>
   <v>       0.30000000       0.10000000       0.33333333 </v>
   <v>       0.40000000       0.10000000       0.33333333 </v>
   <v>       0.50000000       0.10000000       0.33333333 </v>
   <v>      -0.40000000       0.10000000       0.33333333 </v>
   <v>      -0.30000000       0.10000000       0.33333333 </v>
   <v>      -0.20000000       0.10000000       0.33333333 </v>
   <v>      -0.10000000       0.10000000       0.33333333 </v>
   <v>       0.20000000       0.20000000       0.33333333 </v>
   <v>       0.30000000       0.20000000       0.33333333 </v>
   <v>       0.40000000       0.20000000       0.33333333 </v>
   <v>       0.50000000       0.20000000       0.33333333 </v>
   <v>      -0.40000000       0.20000000       0.33333333 </v>
   <v>      -0.30000000       0.20000000       0.33333333 </v>
   <v>      -0.20000000       0.20000000       0.33333333 </v>
   <v>       0.30000000       0.30000000       0.33333333 </v>
   <v>       0.40000000       0.30000000       0.33333333 </v>
   <v>       0.50000000       0.30000000       0.33333333 </v>
   <v>      -0.40000000       0.30000000       0.33333333 </v>
   <v>      -0.30000000       0.30000000       0.33333333 </v>
   <v>       0.40000000       0.40000000       0.33333333 </v>
   <v>       0.50000000       0.40000000       0.33333333 </v>
   <v>      -0.40000000       0.40000000       0.33333333 </v>
   <v>       0.50000000       0.50000000       0.33333333 </v>
   <v>       0.00000000       0.00000000       0.41666667 </v>
   <v>       0.10000000       0.00000000       0.41666667 </v>
   <v>       0.20000000       0.00000000       0.41666667 </v>
   <v>       0.30000000      -0.00000000       0.41666667 </v>
   <v>       0.40000000       0.00000000       0.41666667 </v>
   <v>       0.50000000      -0.00000000       0.41666667 </v>
   <v>       0.10000000       0.10000000       0.41666667 </v>
   <v>       0.20000000       0.10000000       0.41666667 </v>
   <v>       0.30000000       0.10000000       0.41666667 </v>
   <v>       0.40000000       0.10000000       0.41666667 </v>
   <v>       0.50000000       0.10000000       0.41666667 </v>
   <v>      -0.40000000       0.10000000       0.41666667 </v>
   <v>      -0.30000000       0.10000000       0.41666667 </v>
   <v>      -0.20000000       0.10000000       0.41666667 </v>
   <v>      -0.10000000       0.10000000       0.41666667 </v>
   <v>       0.20000000       0.20000000       0.41666667 </v>
   <v>       0.30000000       0.20000000       0.41666667 </v>
   <v>       0.40000000       0.20000000       0.41666667 </v>
   <v>       0.50000000       0.20000000       0.41666667 </v>
   <v>      -0.40000000       0.20000000       0.41666667 </v>
   <v>      -0.30000000       0.20000000       0.41666667 </v>
   <v>      -0.20000000       0.20000000       0.41666667 </v>
   <v>       0.30000000       0.30000000       0.41666667 </v>
   <v>       0.40000000       0.30000000       0.41666667 </v>
   <v>       0.50000000       0.30000000       0.41666667 </v>
   <v>      -0.40000000       0.30000000       0.41666667 </v>
   <v>      -0.30000000       0.30000000       0.41666667 </v>
   <v>       0.40000000       0.40000000       0.41666667 </v>
   <v>       0.50000000       0.40000000       0.41666667 </v>
   <v>      -0.40000000       0.40000000       0.41666667 </v>
   <v>       0.50000000       0.50000000       0.41666667 </v>
   <v>       0.00000000       0.00000000       0.50000000 </v>
   <v>       0.10000000       0.00000000       0.50000000 </v>
   <v>       0.20000000       0.00000000       0.50000000 </v>
   <v>       0.30000000      -0.00000000       0.50000000 </v>
   <v>       0.40000000       0.00000000       0.50000000 </v>
   <v>       0.50000000      -0.00000000       0.50000000 </v>
   <v>       0.10000000       0.10000000       0.50000000 </v>
   <v>       0.20000000       0.10000000       0.50000000 </v>
   <v>       0.30000000       0.10000000       0.50000000 </v>
   <v>       0.40000000       0.10000000       0.50000000 </v>
   <v>       0.50000000       0.10000000       0.50000000 </v>
   <v>      -0.40000000       0.10000000       0.50000000 </v>
   <v>      -0.30000000       0.10000000       0.50000000 </v>
   <v>      -0.20000000       0.10000000       0.50000000 </v>
   <v>      -0.10000000       0.10000000       0.50000000 </v>
   <v>       0.20000000       0.20000000       0.50000000 </v>
   <v>       0.30000000       0.20000000       0.50000000 </v>
   <v>       0.40000000       0.20000000       0.50000000 </v>
   <v>       0.50000000       0.20000000       0.50000000 </v>
   <v>      -0.40000000       0.20000000       0.50000000 </v>
   <v>      -0.30000000       0.20000000       0.50000000 </v>
   <v>      -0.20000000       0.20000000       0.50000000 </v>
   <v>       0.30000000       0.30000000       0.50000000 </v>
   <v>       0.40000000       0.30000000       0.50000000 </v>
   <v>       0.50000000       0.30000000       0.50000000 </v>
   <v>      -0.40000000       0.30000000       0.50000000 </v>
   <v>      -0.30000000       0.30000000       0.50000000 </v>
   <v>       0.40000000       0.40000000       0.50000000 </v>
   <v>       0.50000000       0.40000000       0.50000000 </v>
   <v>      -0.40000000       0.40000000       0.50000000 </v>
   <v>       0.50000000       0.50000000       0.50000000 </v>
  </varray>
  <varray name="weights" >
   <v>       0.00083333 </v>
   <v>       0.00333333 </v>
   <v>       0.00333333 </v>
   <v>       0.00333333 </v>
   <v>       0.00333333 </v>
   <v>       0.00166667 </v>
   <v>       0.00166667 </v>
   <v>       0.00333333 </v>
   <v>       0.00333333 </v>
   <v>       0.00333333 </v>
   <v>       0.00333333 </v>
   <v>       0.00333333 </v>
   <v>       0.00333333 </v>
   <v>       0.00333333 </v>
   <v>       0.00166667 </v>
   <v>       0.00166667 </v>
   <v>       0.00333333 </v>
   <v>       0.00333333 </v>
   <v>       0.00333333 </v>
   <v>       0.00333333 </v>
   <v>       0.00333333 </v>
   <v>       0.00166667 </v>
   <v>       0.00166667 </v>
   <v>       0.00333333 </v>
   <v>       0.00333333 </v>
   <v>       0.00333333 </v>
   <v>       0.00166667 </v>
   <v>       0.00166667 </v>
   <v>       0.00333333 </v>
   <v>       0.00166667 </v>
   <v>       0.00083333 </v>
   <v>       0.00166667 </v>
   <v>       0.00666667 </v>
   <v>       0.00666667 </v>
   <v>       0.00666667 </v>
   <v>       0.00666667 </v>
   <v>       0.00333333 </v>
   <v>       0.00333333 </v>
   <v>       0.00666667 </v>
   <v>       0.00666667 </v>
   <v>       0.00666667 </v>
   <v>       0.00666667 </v>
   <v>       0.00666667 </v>
   <v>       0.00666667 </v>
   <v>       0.00666667 </v>
   <v>       0.00333333 </v>
   <v>       0.00333333 </v>
   <v>       0.00666667 </v>
   <v>       0.00666667 </v>
   <v>       0.00666667 </v>
   <v>       0.00666667 </v>
   <v>       0.00666667 </v>
   <v>       0.00333333 </v>
   <v>       0.00333333 </v>
   <v>       0.00666667 </v>
   <v>       0.00666667 </v>
   <v>       0.00666667 </v>
   <v>       0.00333333 </v>
   <v>       0.00333333 </v>
   <v>       0.00666667 </v>
   <v>       0.00333333 </v>
   <v>       0.00166667 </v>
   <v>       0.00166667 </v>
   <v>       0.00666667 </v>
   <v>       0.00666667 </v>
   <v>       0.00666667 </v>
   <v>       0.00666667 </v>
   <v>       0.00333333 </v>
   <v>       0.00333333 </v>
   <v>       0.00666667 </v>
   <v>       0.00666667 </v>
   <v>       0.00666667 </v>
   <v>       0.00666667 </v>
   <v>       0.00666667 </v>
   <v>       0.00666667 </v>
   <v>       0.00666667 </v>
   <v>       0.00333333 </v>
   <v>       0.00333333 </v>
   <v>       0.00666667 </v>
   <v>       0.00666667 </v>
   <v>       0.00666667 </v>
   <v>       0.00666667 </v>
   <v>       0.00666667 </v>
   <v>       0.00333333 </v>
   <v>       0.00333333 </v>
   <v>       0.00666667 </v>
   <v>       0.00666667 </v>
   <v>       0.00666667 </v>
   <v>       0.00333333 </v>
   <v>       0.00333333 </v>
   <v>       0.00666667 </v>
   <v>       0.00333333 </v>
   <v>       0.00166667 </v>
   <v>       0.00166667 </v>
   <v>       0.00666667 </v>
   <v>       0.00666667 </v>
   <v>       0.00666667 </v>
   <v>       0.00666667 </v>
   <v>       0.00333333 </v>
   <v>       0.00333333 </v>
   <v>       0.00666667 </v>
   <v>       0.00666667 </v>
   <v>       0.00666667 </v>
   <v>       0.00666667 </v>
   <v>       0.00666667 </v>
   <v>       0.00666667 </v>
   <v>       0.00666667 </v>
   <v>       0.00333333 </v>
   <v>       0.00333333 </v>
   <v>       0.00666667 </v>
   <v>       0.00666667 </v>
   <v>       0.00666667 </v>
   <v>       0.00666667 </v>
   <v>       0.00666667 </v>
   <v>       0.00333333 </v>
   <v>       0.00333333 </v>
   <v>       0.00666667 </v>
   <v>       0.00666667 </v>
   <v>       0.00666667 </v>
   <v>       0.00333333 </v>
   <v>       0.00333333 </v>
   <v>       0.00666667 </v>
   <v>       0.00333333 </v>
   <v>       0.00166667 </v>
   <v>       0.00166667 </v>
   <v>       0.00666667 </v>
   <v>       0.00666667 </v>
   <v>       0.00666667 </v>
   <v>       0.00666667 </v>
   <v>       0.00333333 </v>
   <v>       0.00333333 </v>
   <v>       0.00666667 </v>
   <v>       0.00666667 </v>
   <v>       0.00666667 </v>
   <v>       0.00666667 </v>
   <v>       0.00666667 </v>
   <v>       0.00666667 </v>
   <v>       0.00666667 </v>
   <v>       0.00333333 </v>
   <v>       0.00333333 </v>
   <v>       0.00666667 </v>
   <v>       0.00666667 </v>
   <v>       0.00666667 </v>
   <v>       0.00666667 </v>
   <v>       0.00666667 </v>
   <v>       0.00333333 </v>
   <v>       0.00333333 </v>
   <v>       0.00666667 </v>
   <v>       0.00666667 </v>
   <v>       0.00666667 </v>
   <v>       0.00333333 </v>
   <v>       0.00333333 </v>
   <v>       0.00666667 </v>
   <v>       0.00333333 </v>
   <v>       0.00166667 </v>
   <v>       0.00166667 </v>
   <v>       0.00666667 </v>
   <v>       0.00666667 </v>
   <v>       0.00666667 </v>
   <v>       0.00666667 </v>
   <v>       0.00333333 </v>
   <v>       0.00333333 </v>
   <v>       0.00666667 </v>
   <v>       0.00666667 </v>
   <v>       0.00666667 </v>
   <v>       0.00666667 </v>
   <v>       0.00666667 </v>
   <v>       0.00666667 </v>
   <v>       0.00666667 </v>
   <v>       0.00333333 </v>
   <v>       0.00333333 </v>
   <v>       0.00666667 </v>
   <v>       0.00666667 </v>
   <v>       0.00666667 </v>
   <v>       0.00666667 </v>
   <v>       0.00666667 </v>
   <v>       0.00333333 </v>
   <v>       0.00333333 </v>
   <v>       0.00666667 </v>
   <v>       0.00666667 </v>
   <v>       0.00666667 </v>
   <v>       0.00333333 </v>
   <v>       0.00333333 </v>
   <v>       0.00666667 </v>
   <v>       0.00333333 </v>
   <v>       0.00166667 </v>
   <v>       0.00083333 </v>
   <v>       0.00333333 </v>
   <v>       0.00333333 </v>
   <v>       0.00333333 </v>
   <v>       0.00333333 </v>
   <v>       0.00166667 </v>
   <v>       0.00166667 </v>
   <v>       0.00333333 </v>
   <v>       0.00333333 </v>
   <v>       0.00333333 </v>
   <v>       0.00333333 </v>
   <v>       0.00333333 </v>
   <v>       0.00333333 </v>
   <v>       0.00333333 </v>
   <v>       0.00166667 </v>
   <v>       0.00166667 </v>
   <v>       0.00333333 </v>
   <v>       0.00333333 </v>
   <v>       0.00333333 </v>
   <v>       0.00333333 </v>
   <v>       0.00333333 </v>
   <v>       0.00166667 </v>
   <v>       0.00166667 </v>
   <v>       0.00333333 </v>
   <v>       0.00333333 </v>
   <v>       0.00333333 </v>
   <v>       0.00166667 </v>
   <v>       0.00166667 </v>
   <v>       0.00333333 </v>
   <v>       0.00166667 </v>
   <v>       0.00083333 </v>
  </varray>
  <varray name="tetrahedronlist"  type="int" >
   <v type="int" >        4        2        2        7       33 </v>
   <v type="int" >        4        1        2        2       33 </v>
   <v type="int" >        4        1        2       32       33 </v>
   <v type="int" >        4        2        7       33       38 </v>
   <v type="int" >        4        2       33       33       38 </v>
   <v type="int" >        4        2       32       33       33 </v>
   <v type="int" >        4        3        7        8       38 </v>
   <v type="int" >        4        2        3        7       38 </v>
   <v type="int" >        4        2        3       33       38 </v>
   <v type="int" >        4        3        8       38       39 </v>
   <v type="int" >        4        3       34       38       39 </v>
   <v type="int" >        4        3       33       34       38 </v>
   <v type="int" >        4        4        8        9       39 </v>
   <v type="int" >        4        3        4        8       39 </v>
   <v type="int" >        4        3        4       34       39 </v>
   <v type="int" >        4        4        9       39       40 </v>
   <v type="int" >        4        4       35       39       40 </v>
   <v type="int" >        4        4       34       35       39 </v>
   <v type="int" >        4        5        9       10       40 </v>
   <v type="int" >        4        4        5        9       40 </v>
   <v type="int" >        4        4        5       35       40 </v>
   <v type="int" >        4        5       10       40       41 </v>
   <v type="int" >        4        5       36       40       41 </v>
   <v type="int" >        4        5       35       36       40 </v>
   <v type="int" >        4        6       10       11       41 </v>
   <v type="int" >        4        5        6       10       41 </v>
   <v type="int" >        4        5        6       36       41 </v>
   <v type="int" >        4        6       11       41       42 </v>
   <v type="int" >        4        6       37       41       42 </v>
   <v type="int" >        4        6       36       37       41 </v>
   <v type="int" >        4        5       11       12       42 </v>
   <v type="int" >        4        5        6       11       42 </v>
   <v type="int" >        4        5        6       37       42 </v>
   <v type="int" >        4        5       12       42       43 </v>
   <v type="int" >        4        5       36       42       43 </v>
   <v type="int" >        4        5       36       37       42 </v>
   <v type="int" >        4        4       12       13       43 </v>
   <v type="int" >        4        4        5       12       43 </v>
   <v type="int" >        4        4        5       36       43 </v>
   <v type="int" >        4        4       13       43       44 </v>
   <v type="int" >        4        4       35       43       44 </v>
   <v type="int" >        4        4       35       36       43 </v>
   <v type="int" >        4        3       13       14       44 </v>
   <v type="int" >        4        3        4       13       44 </v>
   <v type="int" >        4        3        4       35       44 </v>
   <v type="int" >        4        3       14       44       45 </v>
   <v type="int" >        4        3       34       44       45 </v>
   <v type="int" >        4        3       34       35       44 </v>
   <v type="int" >        4        2       14       15       45 </v>
   <v type="int" >        4        2        3       14       45 </v>
   <v type="int" >        4        2        3       34       45 </v>
   <v type="int" >        4        2       15       45       46 </v>
   <v type="int" >        4        2       33       45       46 </v>
   <v type="int" >        4        2       33       34       45 </v>
   <v type="int" >        4        1        2       15       46 </v>
   <v type="int" >        4        1        2       33       46 </v>
   <v type="int" >        4        1       32       33       46 </v>
   <v type="int" >        4        3        7        8       34 </v>
   <v type="int" >        4        2        3        7       34 </v>
   <v type="int" >        4        2        7       33       34 </v>
   <v type="int" >        4        7        8       34       39 </v>
   <v type="int" >        4        7       34       38       39 </v>
   <v type="int" >        4        7       33       34       38 </v>
   <v type="int" >        4        8        8       16       39 </v>
   <v type="int" >        4        7        8        8       39 </v>
   <v type="int" >        4        7        8       38       39 </v>
   <v type="int" >        4        8       16       39       47 </v>
   <v type="int" >        4        8       39       39       47 </v>
   <v type="int" >        4        8       38       39       39 </v>
   <v type="int" >        4        9       16       17       47 </v>
   <v type="int" >        4        8        9       16       47 </v>
   <v type="int" >        4        8        9       39       47 </v>
   <v type="int" >        4        9       17       47       48 </v>
   <v type="int" >        4        9       40       47       48 </v>
   <v type="int" >        4        9       39       40       47 </v>
   <v type="int" >        4       10       17       18       48 </v>
   <v type="int" >        4        9       10       17       48 </v>
   <v type="int" >        4        9       10       40       48 </v>
   <v type="int" >        4       10       18       48       49 </v>
   <v type="int" >        4       10       41       48       49 </v>
   <v type="int" >        4       10       40       41       48 </v>
   <v type="int" >        4       11       18       19       49 </v>
   <v type="int" >        4       10       11       18       49 </v>
   <v type="int" >        4       10       11       41       49 </v>
   <v type="int" >        4       11       19       49       50 </v>
   <v type="int" >        4       11       42       49       50 </v>
   <v type="int" >        4       11       41       42       49 </v>
   <v type="int" >        4       12       19       20       50 </v>
   <v type="int" >        4       11       12       19       50 </v>
   <v type="int" >        4       11       12       42       50 </v>
   <v type="int" >        4       12       20       50       51 </v>
   <v type="int" >        4       12       43       50       51 </v>
   <v type="int" >        4       12       42       43       50 </v>
   <v type="int" >        4       13       20       21       51 </v>
   <v type="int" >        4       12       13       20       51 </v>
   <v type="int" >        4       12       13       43       51 </v>
   <v type="int" >        4       13       21       51       52 </v>
   <v type="int" >        4       13       44       51       52 </v>
   <v type="int" >        4       13       43       44       51 </v>
   <v type="int" >        4       14       21       22       52 </v>
   <v type="int" >        4       13       14       21       52 </v>
   <v type="int" >        4       13       14       44       52 </v>
   <v type="int" >        4       14       22       52       53 </v>
   <v type="int" >        4       14       45       52       53 </v>
   <v type="int" >        4       14       44       45       52 </v>
   <v type="int" >        4       14       15       22       53 </v>
   <v type="int" >        4       14       15       45       53 </v>
   <v type="int" >        4       15       45       46       53 </v>
   <v type="int" >        4        4        8        9       35 </v>
   <v type="int" >        4        3        4        8       35 </v>
   <v type="int" >        4        3        8       34       35 </v>
   <v type="int" >        4        8        9       35       40 </v>
   <v type="int" >        4        8       35       39       40 </v>
   <v type="int" >        4        8       34       35       39 </v>
   <v type="int" >        4        9       16       17       40 </v>
   <v type="int" >        4        8        9       16       40 </v>
   <v type="int" >        4        8       16       39       40 </v>
   <v type="int" >        4       16       17       40       48 </v>
   <v type="int" >        4       16       40       47       48 </v>
   <v type="int" >        4       16       39       40       47 </v>
   <v type="int" >        4       17       17       23       48 </v>
   <v type="int" >        4       16       17       17       48 </v>
   <v type="int" >        4       16       17       47       48 </v>
   <v type="int" >        4       17       23       48       54 </v>
   <v type="int" >        4       17       48       48       54 </v>
   <v type="int" >        4       17       47       48       48 </v>
   <v type="int" >        4       18       23       24       54 </v>
   <v type="int" >        4       17       18       23       54 </v>
   <v type="int" >        4       17       18       48       54 </v>
   <v type="int" >        4       18       24       54       55 </v>
   <v type="int" >        4       18       49       54       55 </v>
   <v type="int" >        4       18       48       49       54 </v>
   <v type="int" >        4       19       24       25       55 </v>
   <v type="int" >        4       18       19       24       55 </v>
   <v type="int" >        4       18       19       49       55 </v>
   <v type="int" >        4       19       25       55       56 </v>
   <v type="int" >        4       19       50       55       56 </v>
   <v type="int" >        4       19       49       50       55 </v>
   <v type="int" >        4       20       25       26       56 </v>
   <v type="int" >        4       19       20       25       56 </v>
   <v type="int" >        4       19       20       50       56 </v>
   <v type="int" >        4       20       26       56       57 </v>
   <v type="int" >        4       20       51       56       57 </v>
   <v type="int" >        4       20       50       51       56 </v>
   <v type="int" >        4       21       26       27       57 </v>
   <v type="int" >        4       20       21       26       57 </v>
   <v type="int" >        4       20       21       51       57 </v>
   <v type="int" >        4       21       27       57       58 </v>
   <v type="int" >        4       21       52       57       58 </v>
   <v type="int" >        4       21       51       52       57 </v>
   <v type="int" >        4       21       22       27       58 </v>
   <v type="int" >        4       21       22       52       58 </v>
   <v type="int" >        4       22       52       53       58 </v>
   <v type="int" >        4        5        9       10       36 </v>
   <v type="int" >        4        4        5        9       36 </v>
   <v type="int" >        4        4        9       35       36 </v>
   <v type="int" >        4        9       10       36       41 </v>
   <v type="int" >        4        9       36       40       41 </v>
   <v type="int" >        4        9       35       36       40 </v>
   <v type="int" >        4       10       17       18       41 </v>
   <v type="int" >        4        9       10       17       41 </v>
   <v type="int" >        4        9       17       40       41 </v>
   <v type="int" >        4       17       18       41       49 </v>
   <v type="int" >        4       17       41       48       49 </v>
   <v type="int" >        4       17       40       41       48 </v>
   <v type="int" >        4       18       23       24       49 </v>
   <v type="int" >        4       17       18       23       49 </v>
   <v type="int" >        4       17       23       48       49 </v>
   <v type="int" >        4       23       24       49       55 </v>
   <v type="int" >        4       23       49       54       55 </v>
   <v type="int" >        4       23       48       49       54 </v>
   <v type="int" >        4       24       24       28       55 </v>
   <v type="int" >        4       23       24       24       55 </v>
   <v type="int" >        4       23       24       54       55 </v>
   <v type="int" >        4       24       28       55       59 </v>
   <v type="int" >        4       24       55       55       59 </v>
   <v type="int" >        4       24       54       55       55 </v>
   <v type="int" >        4       25       28       29       59 </v>
   <v type="int" >        4       24       25       28       59 </v>
   <v type="int" >        4       24       25       55       59 </v>
   <v type="int" >        4       25       29       59       60 </v>
   <v type="int" >        4       25       56       59       60 </v>
   <v type="int" >        4       25       55       56       59 </v>
   <v type="int" >        4       26       29       30       60 </v>
   <v type="int" >        4       25       26       29       60 </v>
   <v type="int" >        4       25       26       56       60 </v>
   <v type="int" >        4       26       30       60       61 </v>
   <v type="int" >        4       26       57       60       61 </v>
   <v type="int" >        4       26       56       57       60 </v>
   <v type="int" >        4       26       27       30       61 </v>
   <v type="int" >        4       26       27       57       61 </v>
   <v type="int" >        4       27       57       58       61 </v>
   <v type="int" >        4        6       10       11       37 </v>
   <v type="int" >        4        5        6       10       37 </v>
   <v type="int" >        4        5       10       36       37 </v>
   <v type="int" >        4       10       11       37       42 </v>
   <v type="int" >        4       10       37       41       42 </v>
   <v type="int" >        4       10       36       37       41 </v>
   <v type="int" >        4       11       18       19       42 </v>
   <v type="int" >        4       10       11       18       42 </v>
   <v type="int" >        4       10       18       41       42 </v>
   <v type="int" >        4       18       19       42       50 </v>
   <v type="int" >        4       18       42       49       50 </v>
   <v type="int" >        4       18       41       42       49 </v>
   <v type="int" >        4       19       24       25       50 </v>
   <v type="int" >        4       18       19       24       50 </v>
   <v type="int" >        4       18       24       49       50 </v>
   <v type="int" >        4       24       25       50       56 </v>
   <v type="int" >        4       24       50       55       56 </v>
   <v type="int" >        4       24       49       50       55 </v>
   <v type="int" >        4       25       28       29       56 </v>
   <v type="int" >        4       24       25       28       56 </v>
   <v type="int" >        4       24       28       55       56 </v>
   <v type="int" >        4       28       29       56       60 </v>
   <v type="int" >        4       28       56       59       60 </v>
   <v type="int" >        4       28       55       56       59 </v>
   <v type="int" >        4       29       29       31       60 </v>
   <v type="int" >        4       28       29       29       60 </v>
   <v type="int" >        4       28       29       59       60 </v>
   <v type="int" >        4       29       31       60       62 </v>
   <v type="int" >        4       29       60       60       62 </v>
   <v type="int" >        4       29       59       60       60 </v>
   <v type="int" >        4       29       30       31       62 </v>
   <v type="int" >        4       29       30       60       62 </v>
   <v type="int" >        4       30       60       61       62 </v>
   <v type="int" >        4        5       11       12       36 </v>
   <v type="int" >        4        5        6       11       36 </v>
   <v type="int" >        4        6       11       36       37 </v>
   <v type="int" >        4       11       12       36       43 </v>
   <v type="int" >        4       11       36       42       43 </v>
   <v type="int" >        4       11       36       37       42 </v>
   <v type="int" >        4       12       19       20       43 </v>
   <v type="int" >        4       11       12       19       43 </v>
   <v type="int" >        4       11       19       42       43 </v>
   <v type="int" >        4       19       20       43       51 </v>
   <v type="int" >        4       19       43       50       51 </v>
   <v type="int" >        4       19       42       43       50 </v>
   <v type="int" >        4       20       25       26       51 </v>
   <v type="int" >        4       19       20       25       51 </v>
   <v type="int" >        4       19       25       50       51 </v>
   <v type="int" >        4       25       26       51       57 </v>
   <v type="int" >        4       25       51       56       57 </v>
   <v type="int" >        4       25       50       51       56 </v>
   <v type="int" >        4       26       29       30       57 </v>
   <v type="int" >        4       25       26       29       57 </v>
   <v type="int" >        4       25       29       56       57 </v>
   <v type="int" >        4       29       30       57       61 </v>
   <v type="int" >        4       29       57       60       61 </v>
   <v type="int" >        4       29       56       57       60 </v>
   <v type="int" >        4       29       30       31       61 </v>
   <v type="int" >        4       29       31       60       61 </v>
   <v type="int" >        4       31       60       61       62 </v>
   <v type="int" >        4        4       12       13       35 </v>
   <v type="int" >        4        4        5       12       35 </v>
   <v type="int" >        4        5       12       35       36 </v>
   <v type="int" >        4       12       13       35       44 </v>
   <v type="int" >        4       12       35       43       44 </v>
   <v type="int" >        4       12       35       36       43 </v>
   <v type="int" >        4       13       20       21       44 </v>
   <v type="int" >        4       12       13       20       44 </v>
   <v type="int" >        4       12       20       43       44 </v>
   <v type="int" >        4       20       21       44       52 </v>
   <v type="int" >        4       20       44       51       52 </v>
   <v type="int" >        4       20       43       44       51 </v>
   <v type="int" >        4       21       26       27       52 </v>
   <v type="int" >        4       20       21       26       52 </v>
   <v type="int" >        4       20       26       51       52 </v>
   <v type="int" >        4       26       27       52       58 </v>
   <v type="int" >        4       26       52       57       58 </v>
   <v type="int" >        4       26       51       52       57 </v>
   <v type="int" >        4       26       27       30       58 </v>
   <v type="int" >        4       26       30       57       58 </v>
   <v type="int" >        4       30       57       58       61 </v>
   <v type="int" >        4        3       13       14       34 </v>
   <v type="int" >        4        3        4       13       34 </v>
   <v type="int" >        4        4       13       34       35 </v>
   <v type="int" >        4       13       14       34       45 </v>
   <v type="int" >        4       13       34       44       45 </v>
   <v type="int" >        4       13       34       35       44 </v>
   <v type="int" >        4       14       21       22       45 </v>
   <v type="int" >        4       13       14       21       45 </v>
   <v type="int" >        4       13       21       44       45 </v>
   <v type="int" >        4       21       22       45       53 </v>
   <v type="int" >        4       21       45       52       53 </v>
   <v type="int" >        4       21       44       45       52 </v>
   <v type="int" >        4       21       22       27       53 </v>
   <v type="int" >        4       21       27       52       53 </v>
   <v type="int" >        4       27       52       53       58 </v>
   <v type="int" >        4        2       14       15       33 </v>
   <v type="int" >        4        2        3       14       33 </v>
   <v type="int" >        4        3       14       33       34 </v>
   <v type="int" >        4       14       15       33       46 </v>
   <v type="int" >        4       14       33       45       46 </v>
   <v type="int" >        4       14       33       34       45 </v>
   <v type="int" >        4       14       15       22       46 </v>
   <v type="int" >        4       14       22       45       46 </v>
   <v type="int" >        4       22       45       46       53 </v>
   <v type="int" >        4        1        2       15       32 </v>
   <v type="int" >        4        2       15       32       33 </v>
   <v type="int" >        4       15       32       33       46 </v>
   <v type="int" >        4       33       33       38       64 </v>
   <v type="int" >        4       32       33       33       64 </v>
   <v type="int" >        4       32       33       63       64 </v>
   <v type="int" >        4       33       38       64       69 </v>
   <v type="int" >        4       33       64       64       69 </v>
   <v type="int" >        4       33       63       64       64 </v>
   <v type="int" >        4       34       38       39       69 </v>
   <v type="int" >        4       33       34       38       69 </v>
   <v type="int" >        4       33       34       64       69 </v>
   <v type="int" >        4       34       39       69       70 </v>
   <v type="int" >        4       34       65       69       70 </v>
   <v type="int" >        4       34       64       65       69 </v>
   <v type="int" >        4       35       39       40       70 </v>
   <v type="int" >        4       34       35       39       70 </v>
   <v type="int" >        4       34       35       65       70 </v>
   <v type="int" >        4       35       40       70       71 </v>
   <v type="int" >        4       35       66       70       71 </v>
   <v type="int" >        4       35       65       66       70 </v>
   <v type="int" >        4       36       40       41       71 </v>
   <v type="int" >        4       35       36       40       71 </v>
   <v type="int" >        4       35       36       66       71 </v>
   <v type="int" >        4       36       41       71       72 </v>
   <v type="int" >        4       36       67       71       72 </v>
   <v type="int" >        4       36       66       67       71 </v>
   <v type="int" >        4       37       41       42       72 </v>
   <v type="int" >        4       36       37       41       72 </v>
   <v type="int" >        4       36       37       67       72 </v>
   <v type="int" >        4       37       42       72       73 </v>
   <v type="int" >        4       37       68       72       73 </v>
   <v type="int" >        4       37       67       68       72 </v>
   <v type="int" >        4       36       42       43       73 </v>
   <v type="int" >        4       36       37       42       73 </v>
   <v type="int" >        4       36       37       68       73 </v>
   <v type="int" >        4       36       43       73       74 </v>
   <v type="int" >        4       36       67       73       74 </v>
   <v type="int" >        4       36       67       68       73 </v>
   <v type="int" >        4       35       43       44       74 </v>
   <v type="int" >        4       35       36       43       74 </v>
   <v type="int" >        4       35       36       67       74 </v>
   <v type="int" >        4       35       44       74       75 </v>
   <v type="int" >        4       35       66       74       75 </v>
   <v type="int" >        4       35       66       67       74 </v>
   <v type="int" >        4       34       44       45       75 </v>
   <v type="int" >        4       34       35       44       75 </v>
   <v type="int" >        4       34       35       66       75 </v>
   <v type="int" >        4       34       45       75       76 </v>
   <v type="int" >        4       34       65       75       76 </v>
   <v type="int" >        4       34       65       66       75 </v>
   <v type="int" >        4       33       45       46       76 </v>
   <v type="int" >        4       33       34       45       76 </v>
   <v type="int" >        4       33       34       65       76 </v>
   <v type="int" >        4       33       46       76       77 </v>
   <v type="int" >        4       33       64       76       77 </v>
   <v type="int" >        4       33       64       65       76 </v>
   <v type="int" >        4       32       33       46       77 </v>
   <v type="int" >        4       32       33       64       77 </v>
   <v type="int" >        4       32       63       64       77 </v>
   <v type="int" >        4       34       38       39       65 </v>
   <v type="int" >        4       33       34       38       65 </v>
   <v type="int" >        4       33       38       64       65 </v>
   <v type="int" >        4       38       39       65       70 </v>
   <v type="int" >        4       38       65       69       70 </v>
   <v type="int" >        4       38       64       65       69 </v>
   <v type="int" >        4       39       39       47       70 </v>
   <v type="int" >        4       38       39       39       70 </v>
   <v type="int" >        4       38       39       69       70 </v>
   <v type="int" >        4       39       47       70       78 </v>
   <v type="int" >        4       39       70       70       78 </v>
   <v type="int" >        4       39       69       70       70 </v>
   <v type="int" >        4       40       47       48       78 </v>
   <v type="int" >        4       39       40       47       78 </v>
   <v type="int" >        4       39       40       70       78 </v>
   <v type="int" >        4       40       48       78       79 </v>
   <v type="int" >        4       40       71       78       79 </v>
   <v type="int" >        4       40       70       71       78 </v>
   <v type="int" >        4       41       48       49       79 </v>
   <v type="int" >        4       40       41       48       79 </v>
   <v type="int" >        4       40       41       71       79 </v>
   <v type="int" >        4       41       49       79       80 </v>
   <v type="int" >        4       41       72       79       80 </v>
   <v type="int" >        4       41       71       72       79 </v>
   <v type="int" >        4       42       49       50       80 </v>
   <v type="int" >        4       41       42       49       80 </v>
   <v type="int" >        4       41       42       72       80 </v>
   <v type="int" >        4       42       50       80       81 </v>
   <v type="int" >        4       42       73       80       81 </v>
   <v type="int" >        4       42       72       73       80 </v>
   <v type="int" >        4       43       50       51       81 </v>
   <v type="int" >        4       42       43       50       81 </v>
   <v type="int" >        4       42       43       73       81 </v>
   <v type="int" >        4       43       51       81       82 </v>
   <v type="int" >        4       43       74       81       82 </v>
   <v type="int" >        4       43       73       74       81 </v>
   <v type="int" >        4       44       51       52       82 </v>
   <v type="int" >        4       43       44       51       82 </v>
   <v type="int" >        4       43       44       74       82 </v>
   <v type="int" >        4       44       52       82       83 </v>
   <v type="int" >        4       44       75       82       83 </v>
   <v type="int" >        4       44       74       75       82 </v>
   <v type="int" >        4       45       52       53       83 </v>
   <v type="int" >        4       44       45       52       83 </v>
   <v type="int" >        4       44       45       75       83 </v>
   <v type="int" >        4       45       53       83       84 </v>
   <v type="int" >        4       45       76       83       84 </v>
   <v type="int" >        4       45       75       76       83 </v>
   <v type="int" >        4       45       46       53       84 </v>
   <v type="int" >        4       45       46       76       84 </v>
   <v type="int" >        4       46       76       77       84 </v>
   <v type="int" >        4       35       39       40       66 </v>
   <v type="int" >        4       34       35       39       66 </v>
   <v type="int" >        4       34       39       65       66 </v>
   <v type="int" >        4       39       40       66       71 </v>
   <v type="int" >        4       39       66       70       71 </v>
   <v type="int" >        4       39       65       66       70 </v>
   <v type="int" >        4       40       47       48       71 </v>
   <v type="int" >        4       39       40       47       71 </v>
   <v type="int" >        4       39       47       70       71 </v>
   <v type="int" >        4       47       48       71       79 </v>
   <v type="int" >        4       47       71       78       79 </v>
   <v type="int" >        4       47       70       71       78 </v>
   <v type="int" >        4       48       48       54       79 </v>
   <v type="int" >        4       47       48       48       79 </v>
   <v type="int" >        4       47       48       78       79 </v>
   <v type="int" >        4       48       54       79       85 </v>
   <v type="int" >        4       48       79       79       85 </v>
   <v type="int" >        4       48       78       79       79 </v>
   <v type="int" >        4       49       54       55       85 </v>
   <v type="int" >        4       48       49       54       85 </v>
   <v type="int" >        4       48       49       79       85 </v>
   <v type="int" >        4       49       55       85       86 </v>
   <v type="int" >        4       49       80       85       86 </v>
   <v type="int" >        4       49       79       80       85 </v>
   <v type="int" >        4       50       55       56       86 </v>
   <v type="int" >        4       49       50       55       86 </v>
   <v type="int" >        4       49       50       80       86 </v>
   <v type="int" >        4       50       56       86       87 </v>
   <v type="int" >        4       50       81       86       87 </v>
   <v type="int" >        4       50       80       81       86 </v>
   <v type="int" >        4       51       56       57       87 </v>
   <v type="int" >        4       50       51       56       87 </v>
   <v type="int" >        4       50       51       81       87 </v>
   <v type="int" >        4       51       57       87       88 </v>
   <v type="int" >        4       51       82       87       88 </v>
   <v type="int" >        4       51       81       82       87 </v>
   <v type="int" >        4       52       57       58       88 </v>
   <v type="int" >        4       51       52       57       88 </v>
   <v type="int" >        4       51       52       82       88 </v>
   <v type="int" >        4       52       58       88       89 </v>
   <v type="int" >        4       52       83       88       89 </v>
   <v type="int" >        4       52       82       83       88 </v>
   <v type="int" >        4       52       53       58       89 </v>
   <v type="int" >        4       52       53       83       89 </v>
   <v type="int" >        4       53       83       84       89 </v>
   <v type="int" >        4       36       40       41       67 </v>
   <v type="int" >        4       35       36       40       67 </v>
   <v type="int" >        4       35       40       66       67 </v>
   <v type="int" >        4       40       41       67       72 </v>
   <v type="int" >        4       40       67       71       72 </v>
   <v type="int" >        4       40       66       67       71 </v>
   <v type="int" >        4       41       48       49       72 </v>
   <v type="int" >        4       40       41       48       72 </v>
   <v type="int" >        4       40       48       71       72 </v>
   <v type="int" >        4       48       49       72       80 </v>
   <v type="int" >        4       48       72       79       80 </v>
   <v type="int" >        4       48       71       72       79 </v>
   <v type="int" >        4       49       54       55       80 </v>
   <v type="int" >        4       48       49       54       80 </v>
   <v type="int" >        4       48       54       79       80 </v>
   <v type="int" >        4       54       55       80       86 </v>
   <v type="int" >        4       54       80       85       86 </v>
   <v type="int" >        4       54       79       80       85 </v>
   <v type="int" >        4       55       55       59       86 </v>
   <v type="int" >        4       54       55       55       86 </v>
   <v type="int" >        4       54       55       85       86 </v>
   <v type="int" >        4       55       59       86       90 </v>
   <v type="int" >        4       55       86       86       90 </v>
   <v type="int" >        4       55       85       86       86 </v>
   <v type="int" >        4       56       59       60       90 </v>
   <v type="int" >        4       55       56       59       90 </v>
   <v type="int" >        4       55       56       86       90 </v>
   <v type="int" >        4       56       60       90       91 </v>
   <v type="int" >        4       56       87       90       91 </v>
   <v type="int" >        4       56       86       87       90 </v>
   <v type="int" >        4       57       60       61       91 </v>
   <v type="int" >        4       56       57       60       91 </v>
   <v type="int" >        4       56       57       87       91 </v>
   <v type="int" >        4       57       61       91       92 </v>
   <v type="int" >        4       57       88       91       92 </v>
   <v type="int" >        4       57       87       88       91 </v>
   <v type="int" >        4       57       58       61       92 </v>
   <v type="int" >        4       57       58       88       92 </v>
   <v type="int" >        4       58       88       89       92 </v>
   <v type="int" >        4       37       41       42       68 </v>
   <v type="int" >        4       36       37       41       68 </v>
   <v type="int" >        4       36       41       67       68 </v>
   <v type="int" >        4       41       42       68       73 </v>
   <v type="int" >        4       41       68       72       73 </v>
   <v type="int" >        4       41       67       68       72 </v>
   <v type="int" >        4       42       49       50       73 </v>
   <v type="int" >        4       41       42       49       73 </v>
   <v type="int" >        4       41       49       72       73 </v>
   <v type="int" >        4       49       50       73       81 </v>
   <v type="int" >        4       49       73       80       81 </v>
   <v type="int" >        4       49       72       73       80 </v>
   <v type="int" >        4       50       55       56       81 </v>
   <v type="int" >        4       49       50       55       81 </v>
   <v type="int" >        4       49       55       80       81 </v>
   <v type="int" >        4       55       56       81       87 </v>
   <v type="int" >        4       55       81       86       87 </v>
   <v type="int" >        4       55       80       81       86 </v>
   <v type="int" >        4       56       59       60       87 </v>
   <v type="int" >        4       55       56       59       87 </v>
   <v type="int" >        4       55       59       86       87 </v>
   <v type="int" >        4       59       60       87       91 </v>
   <v type="int" >        4       59       87       90       91 </v>
   <v type="int" >        4       59       86       87       90 </v>
   <v type="int" >        4       60       60       62       91 </v>
   <v type="int" >        4       59       60       60       91 </v>
   <v type="int" >        4       59       60       90       91 </v>
   <v type="int" >        4       60       62       91       93 </v>
   <v type="int" >        4       60       91       91       93 </v>
   <v type="int" >        4       60       90       91       91 </v>
   <v type="int" >        4       60       61       62       93 </v>
   <v type="int" >        4       60       61       91       93 </v>
   <v type="int" >        4       61       91       92       93 </v>
   <v type="int" >        4       36       42       43       67 </v>
   <v type="int" >        4       36       37       42       67 </v>
   <v type="int" >        4       37       42       67       68 </v>
   <v type="int" >        4       42       43       67       74 </v>
   <v type="int" >        4       42       67       73       74 </v>
   <v type="int" >        4       42       67       68       73 </v>
   <v type="int" >        4       43       50       51       74 </v>
   <v type="int" >        4       42       43       50       74 </v>
   <v type="int" >        4       42       50       73       74 </v>
   <v type="int" >        4       50       51       74       82 </v>
   <v type="int" >        4       50       74       81       82 </v>
   <v type="int" >        4       50       73       74       81 </v>
   <v type="int" >        4       51       56       57       82 </v>
   <v type="int" >        4       50       51       56       82 </v>
   <v type="int" >        4       50       56       81       82 </v>
   <v type="int" >        4       56       57       82       88 </v>
   <v type="int" >        4       56       82       87       88 </v>
   <v type="int" >        4       56       81       82       87 </v>
   <v type="int" >        4       57       60       61       88 </v>
   <v type="int" >        4       56       57       60       88 </v>
   <v type="int" >        4       56       60       87       88 </v>
   <v type="int" >        4       60       61       88       92 </v>
   <v type="int" >        4       60       88       91       92 </v>
   <v type="int" >        4       60       87       88       91 </v>
   <v type="int" >        4       60       61       62       92 </v>
   <v type="int" >        4       60       62       91       92 </v>
   <v type="int" >        4       62       91       92       93 </v>
   <v type="int" >        4       35       43       44       66 </v>
   <v type="int" >        4       35       36       43       66 </v>
   <v type="int" >        4       36       43       66       67 </v>
   <v type="int" >        4       43       44       66       75 </v>
   <v type="int" >        4       43       66       74       75 </v>
   <v type="int" >        4       43       66       67       74 </v>
   <v type="int" >        4       44       51       52       75 </v>
   <v type="int" >        4       43       44       51       75 </v>
   <v type="int" >        4       43       51       74       75 </v>
   <v type="int" >        4       51       52       75       83 </v>
   <v type="int" >        4       51       75       82       83 </v>
   <v type="int" >        4       51       74       75       82 </v>
   <v type="int" >        4       52       57       58       83 </v>
   <v type="int" >        4       51       52       57       83 </v>
   <v type="int" >        4       51       57       82       83 </v>
   <v type="int" >        4       57       58       83       89 </v>
   <v type="int" >        4       57       83       88       89 </v>
   <v type="int" >        4       57       82       83       88 </v>
   <v type="int" >        4       57       58       61       89 </v>
   <v type="int" >        4       57       61       88       89 </v>
   <v type="int" >        4       61       88       89       92 </v>
   <v type="int" >        4       34       44       45       65 </v>
   <v type="int" >        4       34       35       44       65 </v>
   <v type="int" >        4       35       44       65       66 </v>
   <v type="int" >        4       44       45       65       76 </v>
   <v type="int" >        4       44       65       75       76 </v>
   <v type="int" >        4       44       65       66       75 </v>
   <v type="int" >        4       45       52       53       76 </v>
   <v type="int" >        4       44       45       52       76 </v>
   <v type="int" >        4       44       52       75       76 </v>
   <v type="int" >        4       52       53       76       84 </v>
   <v type="int" >        4       52       76       83       84 </v>
   <v type="int" >        4       52       75       76       83 </v>
   <v type="int" >        4       52       53       58       84 </v>
   <v type="int" >        4       52       58       83       84 </v>
   <v type="int" >        4       58       83       84       89 </v>
   <v type="int" >        4       33       45       46       64 </v>
   <v type="int" >        4       33       34       45       64 </v>
   <v type="int" >        4       34       45       64       65 </v>
   <v type="int" >        4       45       46       64       77 </v>
   <v type="int" >        4       45       64       76       77 </v>
   <v type="int" >        4       45       64       65       76 </v>
   <v type="int" >        4       45       46       53       77 </v>
   <v type="int" >        4       45       53       76       77 </v>
   <v type="int" >        4       53       76       77       84 </v>
   <v type="int" >        4       32       33       46       63 </v>
   <v type="int" >        4       33       46       63       64 </v>
   <v type="int" >        4       46       63       64       77 </v>
   <v type="int" >        4       64       64       69       95 </v>
   <v type="int" >        4       63       64       64       95 </v>
   <v type="int" >        4       63       64       94       95 </v>
   <v type="int" >        4       64       69       95      100 </v>
   <v type="int" >        4       64       95       95      100 </v>
   <v type="int" >        4       64       94       95       95 </v>
   <v type="int" >        4       65       69       70      100 </v>
   <v type="int" >        4       64       65       69      100 </v>
   <v type="int" >        4       64       65       95      100 </v>
   <v type="int" >        4       65       70      100      101 </v>
   <v type="int" >        4       65       96      100      101 </v>
   <v type="int" >        4       65       95       96      100 </v>
   <v type="int" >        4       66       70       71      101 </v>
   <v type="int" >        4       65       66       70      101 </v>
   <v type="int" >        4       65       66       96      101 </v>
   <v type="int" >        4       66       71      101      102 </v>
   <v type="int" >        4       66       97      101      102 </v>
   <v type="int" >        4       66       96       97      101 </v>
   <v type="int" >        4       67       71       72      102 </v>
   <v type="int" >        4       66       67       71      102 </v>
   <v type="int" >        4       66       67       97      102 </v>
   <v type="int" >        4       67       72      102      103 </v>
   <v type="int" >        4       67       98      102      103 </v>
   <v type="int" >        4       67       97       98      102 </v>
   <v type="int" >        4       68       72       73      103 </v>
   <v type="int" >        4       67       68       72      103 </v>
   <v type="int" >        4       67       68       98      103 </v>
   <v type="int" >        4       68       73      103      104 </v>
   <v type="int" >        4       68       99      103      104 </v>
   <v type="int" >        4       68       98       99      103 </v>
   <v type="int" >        4       67       73       74      104 </v>
   <v type="int" >        4       67       68       73      104 </v>
   <v type="int" >        4       67       68       99      104 </v>
   <v type="int" >        4       67       74      104      105 </v>
   <v type="int" >        4       67       98      104      105 </v>
   <v type="int" >        4       67       98       99      104 </v>
   <v type="int" >        4       66       74       75      105 </v>
   <v type="int" >        4       66       67       74      105 </v>
   <v type="int" >        4       66       67       98      105 </v>
   <v type="int" >        4       66       75      105      106 </v>
   <v type="int" >        4       66       97      105      106 </v>
   <v type="int" >        4       66       97       98      105 </v>
   <v type="int" >        4       65       75       76      106 </v>
   <v type="int" >        4       65       66       75      106 </v>
   <v type="int" >        4       65       66       97      106 </v>
   <v type="int" >        4       65       76      106      107 </v>
   <v type="int" >        4       65       96      106      107 </v>
   <v type="int" >        4       65       96       97      106 </v>
   <v type="int" >        4       64       76       77      107 </v>
   <v type="int" >        4       64       65       76      107 </v>
   <v type="int" >        4       64       65       96      107 </v>
   <v type="int" >        4       64       77      107      108 </v>
   <v type="int" >        4       64       95      107      108 </v>
   <v type="int" >        4       64       95       96      107 </v>
   <v type="int" >        4       63       64       77      108 </v>
   <v type="int" >        4       63       64       95      108 </v>
   <v type="int" >        4       63       94       95      108 </v>
   <v type="int" >        4       65       69       70       96 </v>
   <v type="int" >        4       64       65       69       96 </v>
   <v type="int" >        4       64       69       95       96 </v>
   <v type="int" >        4       69       70       96      101 </v>
   <v type="int" >        4       69       96      100      101 </v>
   <v type="int" >        4       69       95       96      100 </v>
   <v type="int" >        4       70       70       78      101 </v>
   <v type="int" >        4       69       70       70      101 </v>
   <v type="int" >        4       69       70      100      101 </v>
   <v type="int" >        4       70       78      101      109 </v>
   <v type="int" >        4       70      101      101      109 </v>
   <v type="int" >        4       70      100      101      101 </v>
   <v type="int" >        4       71       78       79      109 </v>
   <v type="int" >        4       70       71       78      109 </v>
   <v type="int" >        4       70       71      101      109 </v>
   <v type="int" >        4       71       79      109      110 </v>
   <v type="int" >        4       71      102      109      110 </v>
   <v type="int" >        4       71      101      102      109 </v>
   <v type="int" >        4       72       79       80      110 </v>
   <v type="int" >        4       71       72       79      110 </v>
   <v type="int" >        4       71       72      102      110 </v>
   <v type="int" >        4       72       80      110      111 </v>
   <v type="int" >        4       72      103      110      111 </v>
   <v type="int" >        4       72      102      103      110 </v>
   <v type="int" >        4       73       80       81      111 </v>
   <v type="int" >        4       72       73       80      111 </v>
   <v type="int" >        4       72       73      103      111 </v>
   <v type="int" >        4       73       81      111      112 </v>
   <v type="int" >        4       73      104      111      112 </v>
   <v type="int" >        4       73      103      104      111 </v>
   <v type="int" >        4       74       81       82      112 </v>
   <v type="int" >        4       73       74       81      112 </v>
   <v type="int" >        4       73       74      104      112 </v>
   <v type="int" >        4       74       82      112      113 </v>
   <v type="int" >        4       74      105      112      113 </v>
   <v type="int" >        4       74      104      105      112 </v>
   <v type="int" >        4       75       82       83      113 </v>
   <v type="int" >        4       74       75       82      113 </v>
   <v type="int" >        4       74       75      105      113 </v>
   <v type="int" >        4       75       83      113      114 </v>
   <v type="int" >        4       75      106      113      114 </v>
   <v type="int" >        4       75      105      106      113 </v>
   <v type="int" >        4       76       83       84      114 </v>
   <v type="int" >        4       75       76       83      114 </v>
   <v type="int" >        4       75       76      106      114 </v>
   <v type="int" >        4       76       84      114      115 </v>
   <v type="int" >        4       76      107      114      115 </v>
   <v type="int" >        4       76      106      107      114 </v>
   <v type="int" >        4       76       77       84      115 </v>
   <v type="int" >        4       76       77      107      115 </v>
   <v type="int" >        4       77      107      108      115 </v>
   <v type="int" >        4       66       70       71       97 </v>
   <v type="int" >        4       65       66       70       97 </v>
   <v type="int" >        4       65       70       96       97 </v>
   <v type="int" >        4       70       71       97      102 </v>
   <v type="int" >        4       70       97      101      102 </v>
   <v type="int" >        4       70       96       97      101 </v>
   <v type="int" >        4       71       78       79      102 </v>
   <v type="int" >        4       70       71       78      102 </v>
   <v type="int" >        4       70       78      101      102 </v>
   <v type="int" >        4       78       79      102      110 </v>
   <v type="int" >        4       78      102      109      110 </v>
   <v type="int" >        4       78      101      102      109 </v>
   <v type="int" >        4       79       79       85      110 </v>
   <v type="int" >        4       78       79       79      110 </v>
   <v type="int" >        4       78       79      109      110 </v>
   <v type="int" >        4       79       85      110      116 </v>
   <v type="int" >        4       79      110      110      116 </v>
   <v type="int" >        4       79      109      110      110 </v>
   <v type="int" >        4       80       85       86      116 </v>
   <v type="int" >        4       79       80       85      116 </v>
   <v type="int" >        4       79       80      110      116 </v>
   <v type="int" >        4       80       86      116      117 </v>
   <v type="int" >        4       80      111      116      117 </v>
   <v type="int" >        4       80      110      111      116 </v>
   <v type="int" >        4       81       86       87      117 </v>
   <v type="int" >        4       80       81       86      117 </v>
   <v type="int" >        4       80       81      111      117 </v>
   <v type="int" >        4       81       87      117      118 </v>
   <v type="int" >        4       81      112      117      118 </v>
   <v type="int" >        4       81      111      112      117 </v>
   <v type="int" >        4       82       87       88      118 </v>
   <v type="int" >        4       81       82       87      118 </v>
   <v type="int" >        4       81       82      112      118 </v>
   <v type="int" >        4       82       88      118      119 </v>
   <v type="int" >        4       82      113      118      119 </v>
   <v type="int" >        4       82      112      113      118 </v>
   <v type="int" >        4       83       88       89      119 </v>
   <v type="int" >        4       82       83       88      119 </v>
   <v type="int" >        4       82       83      113      119 </v>
   <v type="int" >        4       83       89      119      120 </v>
   <v type="int" >        4       83      114      119      120 </v>
   <v type="int" >        4       83      113      114      119 </v>
   <v type="int" >        4       83       84       89      120 </v>
   <v type="int" >        4       83       84      114      120 </v>
   <v type="int" >        4       84      114      115      120 </v>
   <v type="int" >        4       67       71       72       98 </v>
   <v type="int" >        4       66       67       71       98 </v>
   <v type="int" >        4       66       71       97       98 </v>
   <v type="int" >        4       71       72       98      103 </v>
   <v type="int" >        4       71       98      102      103 </v>
   <v type="int" >        4       71       97       98      102 </v>
   <v type="int" >        4       72       79       80      103 </v>
   <v type="int" >        4       71       72       79      103 </v>
   <v type="int" >        4       71       79      102      103 </v>
   <v type="int" >        4       79       80      103      111 </v>
   <v type="int" >        4       79      103      110      111 </v>
   <v type="int" >        4       79      102      103      110 </v>
   <v type="int" >        4       80       85       86      111 </v>
   <v type="int" >        4       79       80       85      111 </v>
   <v type="int" >        4       79       85      110      111 </v>
   <v type="int" >        4       85       86      111      117 </v>
   <v type="int" >        4       85      111      116      117 </v>
   <v type="int" >        4       85      110      111      116 </v>
   <v type="int" >        4       86       86       90      117 </v>
   <v type="int" >        4       85       86       86      117 </v>
   <v type="int" >        4       85       86      116      117 </v>
   <v type="int" >        4       86       90      117      121 </v>
   <v type="int" >        4       86      117      117      121 </v>
   <v type="int" >        4       86      116      117      117 </v>
   <v type="int" >        4       87       90       91      121 </v>
   <v type="int" >        4       86       87       90      121 </v>
   <v type="int" >        4       86       87      117      121 </v>
   <v type="int" >        4       87       91      121      122 </v>
   <v type="int" >        4       87      118      121      122 </v>
   <v type="int" >        4       87      117      118      121 </v>
   <v type="int" >        4       88       91       92      122 </v>
   <v type="int" >        4       87       88       91      122 </v>
   <v type="int" >        4       87       88      118      122 </v>
   <v type="int" >        4       88       92      122      123 </v>
   <v type="int" >        4       88      119      122      123 </v>
   <v type="int" >        4       88      118      119      122 </v>
   <v type="int" >        4       88       89       92      123 </v>
   <v type="int" >        4       88       89      119      123 </v>
   <v type="int" >        4       89      119      120      123 </v>
   <v type="int" >        4       68       72       73       99 </v>
   <v type="int" >        4       67       68       72       99 </v>
   <v type="int" >        4       67       72       98       99 </v>
   <v type="int" >        4       72       73       99      104 </v>
   <v type="int" >        4       72       99      103      104 </v>
   <v type="int" >        4       72       98       99      103 </v>
   <v type="int" >        4       73       80       81      104 </v>
   <v type="int" >        4       72       73       80      104 </v>
   <v type="int" >        4       72       80      103      104 </v>
   <v type="int" >        4       80       81      104      112 </v>
   <v type="int" >        4       80      104      111      112 </v>
   <v type="int" >        4       80      103      104      111 </v>
   <v type="int" >        4       81       86       87      112 </v>
   <v type="int" >        4       80       81       86      112 </v>
   <v type="int" >        4       80       86      111      112 </v>
   <v type="int" >        4       86       87      112      118 </v>
   <v type="int" >        4       86      112      117      118 </v>
   <v type="int" >        4       86      111      112      117 </v>
   <v type="int" >        4       87       90       91      118 </v>
   <v type="int" >        4       86       87       90      118 </v>
   <v type="int" >        4       86       90      117      118 </v>
   <v type="int" >        4       90       91      118      122 </v>
   <v type="int" >        4       90      118      121      122 </v>
   <v type="int" >        4       90      117      118      121 </v>
   <v type="int" >        4       91       91       93      122 </v>
   <v type="int" >        4       90       91       91      122 </v>
   <v type="int" >        4       90       91      121      122 </v>
   <v type="int" >        4       91       93      122      124 </v>
   <v type="int" >        4       91      122      122      124 </v>
   <v type="int" >        4       91      121      122      122 </v>
   <v type="int" >        4       91       92       93      124 </v>
   <v type="int" >        4       91       92      122      124 </v>
   <v type="int" >        4       92      122      123      124 </v>
   <v type="int" >        4       67       73       74       98 </v>
   <v type="int" >        4       67       68       73       98 </v>
   <v type="int" >        4       68       73       98       99 </v>
   <v type="int" >        4       73       74       98      105 </v>
   <v type="int" >        4       73       98      104      105 </v>
   <v type="int" >        4       73       98       99      104 </v>
   <v type="int" >        4       74       81       82      105 </v>
   <v type="int" >        4       73       74       81      105 </v>
   <v type="int" >        4       73       81      104      105 </v>
   <v type="int" >        4       81       82      105      113 </v>
   <v type="int" >        4       81      105      112      113 </v>
   <v type="int" >        4       81      104      105      112 </v>
   <v type="int" >        4       82       87       88      113 </v>
   <v type="int" >        4       81       82       87      113 </v>
   <v type="int" >        4       81       87      112      113 </v>
   <v type="int" >        4       87       88      113      119 </v>
   <v type="int" >        4       87      113      118      119 </v>
   <v type="int" >        4       87      112      113      118 </v>
   <v type="int" >        4       88       91       92      119 </v>
   <v type="int" >        4       87       88       91      119 </v>
   <v type="int" >        4       87       91      118      119 </v>
[...]
       <r>    7.5634    1.0000 </r>
       <r>    9.1867    0.0000 </r>
       <r>    9.1867    0.0000 </r>
       <r>    9.4186    0.0000 </r>
       <r>    9.4186    0.0000 </r>
       <r>   10.0966    0.0000 </r>
       <r>   10.0966    0.0000 </r>
       <r>   10.2982    0.0000 </r>
       <r>   10.2982    0.0000 </r>
       <r>   10.2982    0.0000 </r>
       <r>   10.2982    0.0000 </r>
       <r>   10.7738    0.0000 </r>
       <r>   10.7738    0.0000 </r>
       <r>   13.6297    0.0000 </r>
       <r>   13.6297    0.0000 </r>
       <r>   13.6297    0.0000 </r>
       <r>   13.6297    0.0000 </r>
       <r>   20.9360    0.0000 </r>
       <r>   20.9360    0.0000 </r>
       <r>   20.9360    0.0000 </r>
       <r>   20.9360    0.0000 </r>
       <r>   22.9038    0.0000 </r>
       <r>   22.9038    0.0000 </r>
       <r>   22.9038    0.0000 </r>
       <r>   22.9038    0.0000 </r>
       <r>   23.2461    0.0000 </r>
       <r>   23.2461    0.0000 </r>
       <r>   24.9044    0.0000 </r>
       <r>   24.9044    0.0000 </r>
       <r>   25.8065    0.0000 </r>
       <r>   25.8086    0.0000 </r>
       <r>   26.3891    0.0000 </r>
       <r>   27.1264    0.0000 </r>
      </set>
      <set comment="kpoint 217">
       <r>    3.6002    1.0000 </r>
       <r>    3.6002    1.0000 </r>
       <r>    3.6002    1.0000 </r>
       <r>    3.6002    1.0000 </r>
       <r>    3.6638    1.0000 </r>
       <r>    3.6638    1.0000 </r>
       <r>    3.6638    1.0000 </r>
       <r>    3.6638    1.0000 </r>
       <r>    4.8601    1.0000 </r>
       <r>    4.8601    1.0000 </r>
       <r>    4.8601    1.0000 </r>
       <r>    4.8601    1.0000 </r>
       <r>    5.1515    1.0000 </r>
       <r>    5.1515    1.0000 </r>
       <r>    5.1515    1.0000 </r>
       <r>    5.1515    1.0000 </r>
       <r>    6.0786    1.0000 </r>
       <r>    6.0786    1.0000 </r>
       <r>    6.0786    1.0000 </r>
       <r>    6.0786    1.0000 </r>
       <r>    6.4664    1.0000 </r>
       <r>    6.4664    1.0000 </r>
       <r>    6.4664    1.0000 </r>
       <r>    6.4664    1.0000 </r>
       <r>    7.1680    1.0000 </r>
       <r>    7.1680    1.0000 </r>
       <r>    7.1680    1.0000 </r>
       <r>    7.1680    1.0000 </r>
       <r>    7.3868    1.0000 </r>
       <r>    7.3868    1.0000 </r>
       <r>    7.3868    1.0000 </r>
       <r>    7.3868    1.0000 </r>
       <r>    9.2483    0.0000 </r>
       <r>    9.2483    0.0000 </r>
       <r>    9.2483    0.0000 </r>
       <r>    9.2483    0.0000 </r>
       <r>   10.3181    0.0000 </r>
       <r>   10.3181    0.0000 </r>
       <r>   10.3181    0.0000 </r>
       <r>   10.3181    0.0000 </r>
       <r>   10.4329    0.0000 </r>
       <r>   10.4329    0.0000 </r>
       <r>   10.4329    0.0000 </r>
       <r>   10.4329    0.0000 </r>
       <r>   13.7434    0.0000 </r>
       <r>   13.7434    0.0000 </r>
       <r>   13.7434    0.0000 </r>
       <r>   13.7434    0.0000 </r>
       <r>   21.6233    0.0000 </r>
       <r>   21.6233    0.0000 </r>
       <r>   21.6233    0.0000 </r>
       <r>   21.6233    0.0000 </r>
       <r>   22.0994    0.0000 </r>
       <r>   22.0994    0.0000 </r>
       <r>   22.0994    0.0000 </r>
       <r>   22.0994    0.0000 </r>
       <r>   24.4598    0.0000 </r>
       <r>   24.4598    0.0000 </r>
       <r>   24.4598    0.0000 </r>
       <r>   24.4598    0.0000 </r>
       <r>   25.8235    0.0000 </r>
       <r>   25.8235    0.0000 </r>
       <r>   25.8236    0.0000 </r>
       <r>   25.8236    0.0000 </r>
      </set>
     </set>
    </set>
   </array>
  </eigenvalues>
  <separator name="orbital magnetization" >
   <v name="MAGDIPOLOUT">      0.00000000      0.00000000      0.00000000</v>
  </separator>
  <dos>
   <i name="efermi">      8.77272011 </i>
   <total>
    <array>
     <dimension dim="1">gridpoints</dimension>
     <dimension dim="2">spin</dimension>
     <field>energy</field>
     <field>total</field>
     <field>integrated</field>
     <set>
      <set comment="spin 1">
       <r>    -0.5408     0.0000     0.0000 </r>
       <r>    -0.4362     0.0000     0.0000 </r>
       <r>    -0.3317     0.0000     0.0000 </r>
       <r>    -0.2272     0.0000     0.0000 </r>
       <r>    -0.1226     0.0000     0.0000 </r>
       <r>    -0.0181     0.0000     0.0000 </r>
       <r>     0.0864     0.0000     0.0000 </r>
       <r>     0.1910     0.0000     0.0000 </r>
       <r>     0.2955     0.0000     0.0000 </r>
       <r>     0.4000     0.0000     0.0000 </r>
       <r>     0.5045     0.0000     0.0000 </r>
       <r>     0.6091     0.0000     0.0000 </r>
       <r>     0.7136     0.0000     0.0000 </r>
       <r>     0.8181     0.0000     0.0000 </r>
       <r>     0.9227     0.0229     0.0003 </r>
       <r>     1.0272     0.1660     0.0118 </r>
       <r>     1.1317     0.2286     0.0317 </r>
       <r>     1.2363     0.2943     0.0596 </r>
       <r>     1.3408     0.3357     0.0922 </r>
       <r>     1.4453     0.3897     0.1301 </r>
       <r>     1.5498     0.4419     0.1736 </r>
       <r>     1.6544     0.4859     0.2222 </r>
       <r>     1.7589     0.5329     0.2754 </r>
       <r>     1.8634     0.5885     0.3339 </r>
       <r>     1.9680     0.6444     0.3984 </r>
       <r>     2.0725     0.7000     0.4687 </r>
       <r>     2.1770     0.7652     0.5451 </r>
       <r>     2.2816     0.8394     0.6289 </r>
       <r>     2.3861     0.9207     0.7209 </r>
       <r>     2.4906     1.0184     0.8218 </r>
       <r>     2.5951     2.1769     0.9606 </r>
       <r>     2.6997     3.7136     1.2744 </r>
       <r>     2.8042     6.4718     1.8087 </r>
       <r>     2.9087     7.9284     2.5469 </r>
       <r>     3.0133    11.0185     3.5964 </r>
       <r>     3.1178    11.1480     4.7402 </r>
       <r>     3.2223    11.4654     5.9244 </r>
       <r>     3.3269    13.4084     7.2081 </r>
       <r>     3.4314    13.7671     8.6876 </r>
       <r>     3.5359    14.2073    10.1241 </r>
       <r>     3.6404    11.1116    11.4727 </r>
       <r>     3.7450    10.1875    12.5843 </r>
       <r>     3.8495    10.5215    13.6569 </r>
       <r>     3.9540     9.3650    14.6298 </r>
       <r>     4.0586     7.7826    15.5991 </r>
       <r>     4.1631     6.2216    16.3045 </r>
       <r>     4.2676    10.5160    17.0821 </r>
       <r>     4.3721    13.4272    18.3999 </r>
       <r>     4.4767    13.9363    19.8920 </r>
       <r>     4.5812     9.5671    21.0496 </r>
       <r>     4.6857     8.5288    21.8448 </r>
       <r>     4.7903     9.9697    22.8204 </r>
       <r>     4.8948     9.7696    23.9638 </r>
       <r>     4.9993    11.2737    25.1114 </r>
       <r>     5.1039    12.4158    26.3762 </r>
       <r>     5.2084    11.8195    27.6246 </r>
       <r>     5.3129    10.0096    28.7955 </r>
       <r>     5.4174     6.4820    29.7663 </r>
       <r>     5.5220     4.1611    30.2735 </r>
       <r>     5.6265     4.7585    30.7271 </r>
       <r>     5.7310    10.5687    31.4425 </r>
       <r>     5.8356    14.1743    32.8160 </r>
       <r>     5.9401    15.6330    34.3964 </r>
       <r>     6.0446    14.6419    36.1351 </r>
       <r>     6.1492    12.4533    37.5713 </r>
       <r>     6.2537     9.7787    38.7237 </r>
       <r>     6.3582    10.0136    39.8012 </r>
       <r>     6.4627    14.1503    41.0260 </r>
       <r>     6.5673    15.1530    42.6477 </r>
       <r>     6.6718    12.8383    44.2241 </r>
       <r>     6.7763    12.0289    45.5230 </r>
       <r>     6.8809     9.6205    46.6086 </r>
       <r>     6.9854    12.1725    47.7046 </r>
       <r>     7.0899    14.2766    49.0886 </r>
       <r>     7.1945    14.3089    50.5544 </r>
       <r>     7.2990    12.9704    51.9666 </r>
       <r>     7.4035    11.8660    53.2416 </r>
       <r>     7.5080    10.2141    54.3663 </r>
       <r>     7.6126     9.3661    55.4216 </r>
       <r>     7.7171     8.8813    56.3746 </r>
       <r>     7.8216     8.9178    57.2974 </r>
       <r>     7.9262     7.2629    58.1449 </r>
       <r>     8.0307     7.1408    58.9045 </r>
       <r>     8.1352     7.0339    59.6513 </r>
       <r>     8.2398     8.3816    60.4174 </r>
       <r>     8.3443     8.3669    61.3481 </r>
       <r>     8.4488     6.4865    62.0976 </r>
       <r>     8.5533     5.9814    62.7303 </r>
       <r>     8.6579     5.8074    63.3609 </r>
       <r>     8.7624     5.5998    63.9419 </r>
       <r>     8.8669     8.3111    64.6491 </r>
       <r>     8.9715     7.4313    65.5305 </r>
       <r>     9.0760     6.4870    66.2541 </r>
       <r>     9.1805     8.4457    66.9757 </r>
       <r>     9.2851     6.2624    67.7560 </r>
       <r>     9.3896     7.6680    68.4607 </r>
       <r>     9.4941    10.6006    69.4525 </r>
       <r>     9.5986    11.7192    70.6664 </r>
       <r>     9.7032     9.8103    71.7707 </r>
       <r>     9.8077    10.1091    72.7980 </r>
       <r>     9.9122    15.6727    74.1859 </r>
       <r>    10.0168    13.5132    75.6864 </r>
       <r>    10.1213    15.9196    77.1936 </r>
       <r>    10.2258    16.9246    78.9970 </r>
       <r>    10.3304    16.0308    80.8803 </r>
       <r>    10.4349    12.8342    82.5110 </r>
       <r>    10.5394     6.3911    83.6258 </r>
       <r>    10.6439     2.2270    83.9618 </r>
       <r>    10.7485     2.0383    84.1735 </r>
       <r>    10.8530     2.3482    84.4081 </r>
       <r>    10.9575     2.3372    84.6526 </r>
       <r>    11.0621     2.1399    84.8960 </r>
       <r>    11.1666     1.8682    85.1044 </r>
       <r>    11.2711     1.8866    85.2996 </r>
       <r>    11.3757     2.1011    85.5040 </r>
       <r>    11.4802     2.2437    85.7502 </r>
       <r>    11.5847     2.1200    85.9738 </r>
       <r>    11.6892     2.0867    86.1948 </r>
       <r>    11.7938     2.0800    86.4124 </r>
       <r>    11.8983     2.0497    86.6288 </r>
       <r>    12.0028     1.8589    86.8319 </r>
       <r>    12.1074     1.8635    87.0257 </r>
       <r>    12.2119     1.9647    87.2237 </r>
       <r>    12.3164     2.1245    87.4371 </r>
       <r>    12.4210     2.2809    87.6674 </r>
       <r>    12.5255     2.3066    87.9041 </r>
       <r>    12.6300     2.0878    88.1364 </r>
       <r>    12.7345     2.0361    88.3499 </r>
       <r>    12.8391     2.0080    88.5626 </r>
       <r>    12.9436     1.9599    88.7699 </r>
       <r>    13.0481     1.9494    88.9739 </r>
       <r>    13.1527     1.9564    89.1775 </r>
       <r>    13.2572     1.9481    89.3824 </r>
       <r>    13.3617     1.7909    89.5737 </r>
       <r>    13.4663     1.6832    89.7550 </r>
       <r>    13.5708     1.6183    89.9267 </r>
       <r>    13.6753     1.6052    90.0948 </r>
       <r>    13.7798     1.6309    90.2638 </r>
       <r>    13.8844     1.6660    90.4361 </r>
       <r>    13.9889     1.6688    90.6114 </r>
       <r>    14.0934     1.6396    90.7844 </r>
       <r>    14.1980     1.6550    90.9553 </r>
       <r>    14.3025     1.7235    91.1333 </r>
       <r>    14.4070     1.7824    91.3167 </r>
       <r>    14.5116     1.7270    91.4998 </r>
       <r>    14.6161     1.7447    91.6808 </r>
       <r>    14.7206     1.7429    91.8636 </r>
       <r>    14.8251     1.8163    92.0492 </r>
       <r>    14.9297     1.8204    92.2394 </r>
       <r>    15.0342     1.9189    92.4346 </r>
       <r>    15.1387     1.7788    92.6261 </r>
       <r>    15.2433     1.7801    92.8123 </r>
       <r>    15.3478     1.8275    93.0003 </r>
       <r>    15.4523     2.1355    93.1998 </r>
       <r>    15.5569     1.7400    93.3913 </r>
       <r>    15.6614     1.6899    93.5706 </r>
       <r>    15.7659     1.6690    93.7457 </r>
       <r>    15.8704     1.7947    93.9272 </r>
       <r>    15.9750     1.6410    94.1011 </r>
       <r>    16.0795     1.8720    94.2822 </r>
       <r>    16.1840     1.5661    94.4558 </r>
       <r>    16.2886     1.4956    94.6159 </r>
       <r>    16.3931     1.4024    94.7679 </r>
       <r>    16.4976     1.3142    94.9101 </r>
       <r>    16.6021     1.4162    95.0512 </r>
       <r>    16.7067     1.1018    95.1841 </r>
       <r>    16.8112     0.9107    95.2886 </r>
       <r>    16.9157     0.8612    95.3813 </r>
       <r>    17.0203     0.7864    95.4676 </r>
       <r>    17.1248     0.7463    95.5476 </r>
       <r>    17.2293     0.7168    95.6241 </r>
       <r>    17.3339     0.6852    95.6972 </r>
       <r>    17.4384     0.6874    95.7688 </r>
       <r>    17.5429     0.6661    95.8401 </r>
       <r>    17.6474     0.6327    95.9081 </r>
       <r>    17.7520     0.5919    95.9719 </r>
       <r>    17.8565     0.5592    96.0321 </r>
       <r>    17.9610     0.5409    96.0889 </r>
       <r>    18.0656     0.4359    96.1411 </r>
       <r>    18.1701     0.2979    96.1768 </r>
       <r>    18.2746     0.3039    96.2079 </r>
       <r>    18.3792     0.3403    96.2414 </r>
       <r>    18.4837     0.3984    96.2798 </r>
       <r>    18.5882     0.5145    96.3272 </r>
       <r>    18.6927     0.5555    96.3850 </r>
       <r>    18.7973     0.9929    96.4642 </r>
       <r>    18.9018     1.2989    96.5846 </r>
       <r>    19.0063     1.5993    96.7390 </r>
       <r>    19.1109     1.8098    96.9148 </r>
       <r>    19.2154     5.7291    97.2887 </r>
       <r>    19.3199     6.3608    97.9545 </r>
       <r>    19.4245     5.2856    98.5723 </r>
       <r>    19.5290     4.6681    99.0922 </r>
       <r>    19.6335     4.2453    99.5552 </r>
       <r>    19.7380     3.8745    99.9850 </r>
       <r>    19.8426     3.9809   100.3855 </r>
       <r>    19.9471     4.5843   100.8384 </r>
       <r>    20.0516     4.4650   101.3119 </r>
       <r>    20.1562     4.1778   101.7647 </r>
       <r>    20.2607     4.0465   102.1927 </r>
       <r>    20.3652     3.9955   102.6039 </r>
       <r>    20.4698     4.1028   103.0337 </r>
       <r>    20.5743     4.1083   103.4587 </r>
       <r>    20.6788     4.0081   103.8957 </r>
       <r>    20.7833     4.0817   104.3173 </r>
       <r>    20.8879     3.9601   104.7408 </r>
       <r>    20.9924     3.6874   105.1413 </r>
       <r>    21.0969     3.5853   105.5160 </r>
       <r>    21.2015     3.7668   105.9009 </r>
       <r>    21.3060     4.0247   106.3067 </r>
       <r>    21.4105     3.9416   106.7274 </r>
       <r>    21.5151     3.6504   107.1273 </r>
       <r>    21.6196     3.4551   107.4965 </r>
       <r>    21.7241     3.3708   107.8505 </r>
       <r>    21.8286     3.1917   108.1964 </r>
       <r>    21.9332     3.0752   108.5212 </r>
       <r>    22.0377     3.0619   108.8415 </r>
       <r>    22.1422     3.0091   109.1590 </r>
       <r>    22.2468     3.4166   109.5032 </r>
       <r>    22.3513     3.3170   109.8587 </r>
       <r>    22.4558     3.1229   110.1895 </r>
       <r>    22.5604     3.2015   110.5188 </r>
       <r>    22.6649     3.1281   110.8491 </r>
       <r>    22.7694     3.1740   111.1784 </r>
       <r>    22.8739     3.3503   111.5089 </r>
       <r>    22.9785     3.2366   111.8478 </r>
       <r>    23.0830     2.8726   112.1640 </r>
       <r>    23.1875     2.5682   112.4457 </r>
       <r>    23.2921     2.4183   112.7022 </r>
       <r>    23.3966     2.4141   112.9546 </r>
       <r>    23.5011     2.5164   113.2123 </r>
       <r>    23.6057     2.8288   113.4908 </r>
       <r>    23.7102     3.2897   113.8059 </r>
       <r>    23.8147     3.4277   114.1578 </r>
       <r>    23.9192     3.8774   114.5360 </r>
       <r>    24.0238     4.3964   114.9696 </r>
       <r>    24.1283     4.9093   115.4563 </r>
       <r>    24.2328     5.1737   115.9800 </r>
       <r>    24.3374     5.9428   116.5517 </r>
       <r>    24.4419     6.9688   117.2476 </r>
       <r>    24.5464     6.3575   117.9581 </r>
       <r>    24.6510     7.1571   118.6744 </r>
       <r>    24.7555     7.1070   119.4012 </r>
       <r>    24.8600     7.7489   120.1942 </r>
       <r>    24.9645     7.5136   121.0104 </r>
       <r>    25.0691     5.0665   121.6415 </r>
       <r>    25.1736     4.5601   122.1286 </r>
       <r>    25.2781     5.4027   122.6519 </r>
       <r>    25.3827     4.6473   123.1844 </r>
       <r>    25.4872     3.6042   123.5979 </r>
       <r>    25.5917     3.6590   123.9821 </r>
       <r>    25.6963     3.6359   124.3632 </r>
       <r>    25.8008     3.7837   124.7448 </r>
       <r>    25.9053     3.2014   125.1009 </r>
       <r>    26.0098     3.0761   125.4239 </r>
       <r>    26.1144     3.0541   125.7444 </r>
       <r>    26.2189     3.1492   126.0669 </r>
       <r>    26.3234     3.1380   126.3995 </r>
       <r>    26.4280     3.1291   126.7216 </r>
       <r>    26.5325     2.9118   127.0397 </r>
       <r>    26.6370     2.7387   127.3371 </r>
       <r>    26.7416     1.8662   127.5755 </r>
       <r>    26.8461     1.2656   127.7359 </r>
       <r>    26.9506     0.7786   127.8420 </r>
       <r>    27.0551     0.4254   127.9037 </r>
       <r>    27.1597     0.2650   127.9391 </r>
       <r>    27.2642     0.1772   127.9617 </r>
       <r>    27.3687     0.1223   127.9772 </r>
       <r>    27.4733     0.0722   127.9874 </r>
       <r>    27.5778     0.0337   127.9927 </r>
       <r>    27.6823     0.0133   127.9948 </r>
       <r>    27.7868     0.0107   127.9961 </r>
       <r>    27.8914     0.0086   127.9971 </r>
       <r>    27.9959     0.0067   127.9979 </r>
       <r>    28.1004     0.0051   127.9985 </r>
       <r>    28.2050     0.0038   127.9990 </r>
       <r>    28.3095     0.0026   127.9993 </r>
       <r>    28.4140     0.0018   127.9995 </r>
       <r>    28.5186     0.0012   127.9997 </r>
       <r>    28.6231     0.0008   127.9998 </r>
       <r>    28.7276     0.0006   127.9999 </r>
       <r>    28.8321     0.0004   127.9999 </r>
       <r>    28.9367     0.0003   128.0000 </r>
       <r>    29.0412     0.0002   128.0000 </r>
       <r>    29.1457     0.0001   128.0000 </r>
       <r>    29.2503     0.0000   128.0000 </r>
       <r>    29.3548     0.0000   128.0000 </r>
       <r>    29.4593     0.0000   128.0000 </r>
       <r>    29.5639     0.0000   128.0000 </r>
       <r>    29.6684     0.0000   128.0000 </r>
       <r>    29.7729     0.0000   128.0000 </r>
       <r>    29.8774     0.0000   128.0000 </r>
       <r>    29.9820     0.0000   128.0000 </r>
       <r>    30.0865     0.0000   128.0000 </r>
       <r>    30.1910     0.0000   128.0000 </r>
       <r>    30.2956     0.0000   128.0000 </r>
       <r>    30.4001     0.0000   128.0000 </r>
       <r>    30.5046     0.0000   128.0000 </r>
       <r>    30.6092     0.0000   128.0000 </r>
       <r>    30.7137     0.0000   128.0000 </r>
       <r>    30.8182     0.0000   128.0000 </r>
      </set>
     </set>
    </array>
   </total>
  </dos>
 </calculation>
 <structure name="finalpos" >
  <crystal>
   <varray name="basis" >
    <v>       5.44586195      -0.00007151       0.00000000 </v>
    <v>      -2.72299340       4.71621958       0.00000000 </v>
    <v>       0.00000000       0.00000000       4.29330641 </v>
   </varray>
   <i name="volume">    110.26793366 </i>
   <varray name="rec_basis" >
    <v>       0.18362705       0.10602035       0.00000000 </v>
    <v>       0.00000278       0.21203584       0.00000000 </v>
    <v>       0.00000000       0.00000000       0.23292072 </v>
   </varray>
  </crystal>
  <varray name="positions" >
   <v>       0.33331670       0.66668330       0.25000000 </v>
   <v>       0.66668330       0.33331670       0.75000000 </v>
   <v>       0.83331670       0.66668330       0.25000000 </v>
   <v>       0.83331670       0.16668330       0.25000000 </v>
   <v>       0.33331670       0.16668330       0.25000000 </v>
   <v>       0.16668330       0.33331670       0.75000000 </v>
   <v>       0.66668330       0.83331670       0.75000000 </v>
   <v>       0.16668330       0.83331670       0.75000000 </v>
  </varray>
 </structure>
</modeling>
