 216 216   0   0
  0.1398160E+02  0.1605843E-08  0.1605843E-08  0.1605848E-08  0.5000000E-15
  1.000000000000000E-004
  CAR 
 Ir_Ru                                   
     13.96715355     -0.68763309  301      9.13306446      1.00000000
     -0.688  0.0000E+00  0.0000E+00
     -0.639  0.0000E+00  0.0000E+00
     -0.590  0.0000E+00  0.0000E+00
     -0.541  0.0000E+00  0.0000E+00
     -0.492 -0.1113E-27 -0.5435E-29
     -0.443 -0.2134E-24 -0.1043E-25
     -0.395 -0.2530E-21 -0.1237E-22
     -0.346 -0.1852E-18 -0.9061E-20
     -0.297 -0.8366E-16 -0.4096E-17
     -0.248 -0.2255E-13 -0.1106E-14
     -0.199 -0.3844E-11 -0.1889E-12
     -0.150 -0.4020E-09 -0.1983E-10
     -0.101 -0.2576E-07 -0.1278E-08
     -0.053 -0.1010E-05 -0.5061E-07
     -0.004 -0.2422E-04 -0.1234E-05
      0.045 -0.3570E-03 -0.1867E-04
      0.094 -0.3273E-02 -0.1785E-03
      0.143 -0.1898E-01 -0.1106E-02
      0.192 -0.6859E-01 -0.4456E-02
      0.241 -0.1212E+00 -0.1038E-01
      0.289  0.1345E+00 -0.3809E-02
      0.338  0.1254E+01  0.5747E-01
      0.387  0.2868E+01  0.1976E+00
      0.436  0.3642E+01  0.3755E+00
      0.485  0.4293E+01  0.5852E+00
      0.534  0.6710E+01  0.9130E+00
      0.582  0.8864E+01  0.1346E+01
      0.631  0.7274E+01  0.1701E+01
      0.680  0.4916E+01  0.1941E+01
      0.729  0.7338E+01  0.2300E+01
      0.778  0.1190E+02  0.2881E+01
      0.827  0.1276E+02  0.3505E+01
      0.876  0.1168E+02  0.4075E+01
      0.924  0.1121E+02  0.4623E+01
      0.973  0.8938E+01  0.5059E+01
      1.022  0.7286E+01  0.5415E+01
      1.071  0.1237E+02  0.6019E+01
      1.120  0.1966E+02  0.6980E+01
      1.169  0.1966E+02  0.7940E+01
      1.217  0.1569E+02  0.8707E+01
      1.266  0.1434E+02  0.9407E+01
      1.315  0.1270E+02  0.1003E+02
      1.364  0.1084E+02  0.1056E+02
      1.413  0.1437E+02  0.1126E+02
      1.462  0.2140E+02  0.1230E+02
      1.511  0.2642E+02  0.1360E+02
      1.559  0.2744E+02  0.1494E+02
      1.608  0.2273E+02  0.1605E+02
      1.657  0.1662E+02  0.1686E+02
      1.706  0.1645E+02  0.1766E+02
      1.755  0.1988E+02  0.1863E+02
      1.804  0.2323E+02  0.1977E+02
      1.853  0.2847E+02  0.2116E+02
      1.901  0.3488E+02  0.2286E+02
      1.950  0.3980E+02  0.2481E+02
      1.999  0.3969E+02  0.2675E+02
      2.048  0.3176E+02  0.2830E+02
      2.097  0.2428E+02  0.2948E+02
      2.146  0.2737E+02  0.3082E+02
      2.194  0.3895E+02  0.3272E+02
      2.243  0.5152E+02  0.3524E+02
      2.292  0.5895E+02  0.3812E+02
      2.341  0.5904E+02  0.4100E+02
      2.390  0.5838E+02  0.4385E+02
      2.439  0.6575E+02  0.4707E+02
      2.488  0.8129E+02  0.5104E+02
      2.536  0.1047E+03  0.5615E+02
      2.585  0.1371E+03  0.6285E+02
      2.634  0.1694E+03  0.7112E+02
      2.683  0.1941E+03  0.8061E+02
      2.732  0.2124E+03  0.9098E+02
      2.781  0.2207E+03  0.1018E+03
      2.830  0.2185E+03  0.1124E+03
      2.878  0.2116E+03  0.1228E+03
      2.927  0.2067E+03  0.1329E+03
      2.976  0.2072E+03  0.1430E+03
      3.025  0.2098E+03  0.1532E+03
      3.074  0.2127E+03  0.1636E+03
      3.123  0.2160E+03  0.1742E+03
      3.171  0.2237E+03  0.1851E+03
      3.220  0.2428E+03  0.1970E+03
      3.269  0.2751E+03  0.2104E+03
      3.318  0.3097E+03  0.2255E+03
      3.367  0.3307E+03  0.2417E+03
      3.416  0.3369E+03  0.2581E+03
      3.465  0.3348E+03  0.2745E+03
      3.513  0.3260E+03  0.2904E+03
      3.562  0.3107E+03  0.3056E+03
      3.611  0.2955E+03  0.3200E+03
      3.660  0.2833E+03  0.3339E+03
      3.709  0.2684E+03  0.3470E+03
      3.758  0.2656E+03  0.3600E+03
      3.807  0.2805E+03  0.3737E+03
      3.855  0.2764E+03  0.3872E+03
      3.904  0.2436E+03  0.3991E+03
      3.953  0.2231E+03  0.4100E+03
      4.002  0.2246E+03  0.4209E+03
      4.051  0.2199E+03  0.4317E+03
      4.100  0.2110E+03  0.4420E+03
      4.148  0.2230E+03  0.4529E+03
      4.197  0.2620E+03  0.4657E+03
      4.246  0.3126E+03  0.4809E+03
      4.295  0.3446E+03  0.4978E+03
      4.344  0.3390E+03  0.5143E+03
      4.393  0.3110E+03  0.5295E+03
      4.442  0.2815E+03  0.5433E+03
      4.490  0.2648E+03  0.5562E+03
      4.539  0.2689E+03  0.5694E+03
      4.588  0.2701E+03  0.5826E+03
      4.637  0.2468E+03  0.5946E+03
      4.686  0.2191E+03  0.6053E+03
      4.735  0.2140E+03  0.6158E+03
      4.783  0.2390E+03  0.6274E+03
      4.832  0.2848E+03  0.6413E+03
      4.881  0.3201E+03  0.6570E+03
      4.930  0.3189E+03  0.6726E+03
      4.979  0.2962E+03  0.6870E+03
      5.028  0.2843E+03  0.7009E+03
      5.077  0.2969E+03  0.7154E+03
      5.125  0.3147E+03  0.7308E+03
      5.174  0.3041E+03  0.7457E+03
      5.223  0.2592E+03  0.7583E+03
      5.272  0.2136E+03  0.7688E+03
      5.321  0.1967E+03  0.7784E+03
      5.370  0.1970E+03  0.7880E+03
      5.419  0.1947E+03  0.7975E+03
      5.467  0.1863E+03  0.8066E+03
      5.516  0.1745E+03  0.8151E+03
      5.565  0.1703E+03  0.8234E+03
      5.614  0.1880E+03  0.8326E+03
      5.663  0.2200E+03  0.8434E+03
      5.712  0.2441E+03  0.8553E+03
      5.760  0.2637E+03  0.8682E+03
      5.809  0.2935E+03  0.8825E+03
      5.858  0.3250E+03  0.8984E+03
      5.907  0.3445E+03  0.9152E+03
      5.956  0.3572E+03  0.9327E+03
      6.005  0.3682E+03  0.9507E+03
      6.054  0.3649E+03  0.9685E+03
      6.102  0.3537E+03  0.9858E+03
      6.151  0.3578E+03  0.1003E+04
      6.200  0.3620E+03  0.1021E+04
      6.249  0.3398E+03  0.1038E+04
      6.298  0.3104E+03  0.1053E+04
      6.347  0.3071E+03  0.1068E+04
      6.396  0.3302E+03  0.1084E+04
      6.444  0.3534E+03  0.1101E+04
      6.493  0.3563E+03  0.1118E+04
      6.542  0.3477E+03  0.1135E+04
      6.591  0.3459E+03  0.1152E+04
      6.640  0.3510E+03  0.1170E+04
      6.689  0.3600E+03  0.1187E+04
      6.737  0.3676E+03  0.1205E+04
      6.786  0.3641E+03  0.1223E+04
      6.835  0.3504E+03  0.1240E+04
      6.884  0.3339E+03  0.1256E+04
      6.933  0.3238E+03  0.1272E+04
      6.982  0.3234E+03  0.1288E+04
      7.031  0.3211E+03  0.1304E+04
      7.079  0.3130E+03  0.1319E+04
      7.128  0.3194E+03  0.1334E+04
      7.177  0.3405E+03  0.1351E+04
      7.226  0.3438E+03  0.1368E+04
      7.275  0.3200E+03  0.1384E+04
      7.324  0.3012E+03  0.1398E+04
      7.372  0.3112E+03  0.1413E+04
      7.421  0.3294E+03  0.1430E+04
      7.470  0.3286E+03  0.1446E+04
      7.519  0.3244E+03  0.1461E+04
      7.568  0.3273E+03  0.1477E+04
      7.617  0.3098E+03  0.1493E+04
      7.666  0.2637E+03  0.1505E+04
      7.714  0.2124E+03  0.1516E+04
      7.763  0.1816E+03  0.1525E+04
      7.812  0.1854E+03  0.1534E+04
      7.861  0.2150E+03  0.1544E+04
      7.910  0.2411E+03  0.1556E+04
      7.959  0.2369E+03  0.1568E+04
      8.008  0.2070E+03  0.1578E+04
      8.056  0.1849E+03  0.1587E+04
      8.105  0.1894E+03  0.1596E+04
      8.154  0.2103E+03  0.1606E+04
      8.203  0.2271E+03  0.1617E+04
      8.252  0.2230E+03  0.1628E+04
      8.301  0.1951E+03  0.1638E+04
      8.349  0.1738E+03  0.1646E+04
      8.398  0.1851E+03  0.1655E+04
      8.447  0.2031E+03  0.1665E+04
      8.496  0.1975E+03  0.1675E+04
      8.545  0.1706E+03  0.1683E+04
      8.594  0.1362E+03  0.1690E+04
      8.643  0.1178E+03  0.1696E+04
      8.691  0.1312E+03  0.1702E+04
      8.740  0.1657E+03  0.1710E+04
      8.789  0.2022E+03  0.1720E+04
      8.838  0.2279E+03  0.1731E+04
      8.887  0.2333E+03  0.1743E+04
      8.936  0.2094E+03  0.1753E+04
      8.985  0.1665E+03  0.1761E+04
      9.033  0.1380E+03  0.1768E+04
      9.082  0.1377E+03  0.1774E+04
      9.131  0.1502E+03  0.1782E+04
      9.180  0.1663E+03  0.1790E+04
      9.229  0.1846E+03  0.1799E+04
      9.278  0.1969E+03  0.1808E+04
      9.326  0.2042E+03  0.1818E+04
      9.375  0.2244E+03  0.1829E+04
      9.424  0.2499E+03  0.1842E+04
      9.473  0.2483E+03  0.1854E+04
      9.522  0.2231E+03  0.1865E+04
      9.571  0.2068E+03  0.1875E+04
      9.620  0.2207E+03  0.1886E+04
      9.668  0.2561E+03  0.1898E+04
      9.717  0.2852E+03  0.1912E+04
      9.766  0.2992E+03  0.1927E+04
      9.815  0.3072E+03  0.1942E+04
      9.864  0.3088E+03  0.1957E+04
      9.913  0.2939E+03  0.1971E+04
      9.962  0.2795E+03  0.1985E+04
     10.010  0.3068E+03  0.2000E+04
     10.059  0.3713E+03  0.2018E+04
     10.108  0.4149E+03  0.2038E+04
     10.157  0.4123E+03  0.2058E+04
     10.206  0.3975E+03  0.2078E+04
     10.255  0.3938E+03  0.2097E+04
     10.303  0.3835E+03  0.2116E+04
     10.352  0.3494E+03  0.2133E+04
     10.401  0.2998E+03  0.2147E+04
     10.450  0.2431E+03  0.2159E+04
     10.499  0.1754E+03  0.2168E+04
     10.548  0.1012E+03  0.2173E+04
     10.597  0.4007E+02  0.2175E+04
     10.645  0.7232E+01  0.2175E+04
     10.694 -0.1963E+01  0.2175E+04
     10.743 -0.1726E+01  0.2175E+04
     10.792 -0.5678E+00  0.2175E+04
     10.841 -0.1500E+00  0.2175E+04
     10.890 -0.5418E-01  0.2175E+04
     10.938 -0.1879E-01  0.2175E+04
     10.987 -0.4164E-02  0.2175E+04
     11.036 -0.5456E-03  0.2175E+04
     11.085 -0.4244E-04  0.2175E+04
     11.134 -0.1981E-05  0.2175E+04
     11.183 -0.5600E-07  0.2175E+04
     11.232 -0.9643E-09  0.2175E+04
     11.280 -0.1016E-10  0.2175E+04
     11.329 -0.6548E-13  0.2175E+04
     11.378 -0.2841E-15  0.2175E+04
     11.427 -0.4972E-27  0.2175E+04
     11.476 -0.9077E-24  0.2175E+04
     11.525 -0.1024E-20  0.2175E+04
     11.574 -0.7127E-18  0.2175E+04
     11.622 -0.3061E-15  0.2175E+04
     11.671 -0.7836E-13  0.2175E+04
     11.720 -0.1268E-10  0.2175E+04
     11.769 -0.1256E-08  0.2175E+04
     11.818 -0.7588E-07  0.2175E+04
     11.867 -0.2780E-05  0.2175E+04
     11.915 -0.6112E-04  0.2175E+04
     11.964 -0.7923E-03  0.2175E+04
     12.013 -0.5845E-02  0.2175E+04
     12.062 -0.2245E-01  0.2175E+04
     12.111 -0.3015E-01  0.2175E+04
     12.160  0.6802E-01  0.2175E+04
     12.209  0.3279E+00  0.2175E+04
     12.257  0.6333E+00  0.2175E+04
     12.306  0.1010E+01  0.2175E+04
     12.355  0.1640E+01  0.2175E+04
     12.404  0.2320E+01  0.2175E+04
     12.453  0.2603E+01  0.2175E+04
     12.502  0.2382E+01  0.2175E+04
     12.551  0.1950E+01  0.2175E+04
     12.599  0.1665E+01  0.2175E+04
     12.648  0.1476E+01  0.2176E+04
     12.697  0.1125E+01  0.2176E+04
     12.746  0.9204E+00  0.2176E+04
     12.795  0.1032E+01  0.2176E+04
     12.844  0.1063E+01  0.2176E+04
     12.892  0.1116E+01  0.2176E+04
     12.941  0.1456E+01  0.2176E+04
     12.990  0.1462E+01  0.2176E+04
     13.039  0.7741E+00  0.2176E+04
     13.088  0.1122E+00  0.2176E+04
     13.137 -0.7549E-01  0.2176E+04
     13.186 -0.4136E-01  0.2176E+04
     13.234 -0.8991E-02  0.2176E+04
     13.283 -0.1049E-02  0.2176E+04
     13.332 -0.7094E-04  0.2176E+04
     13.381 -0.2866E-05  0.2176E+04
     13.430 -0.7025E-07  0.2176E+04
     13.479 -0.1053E-08  0.2176E+04
     13.528 -0.9705E-11  0.2176E+04
     13.576 -0.5511E-13  0.2176E+04
     13.625 -0.2841E-15  0.2176E+04
     13.674  0.0000E+00  0.2176E+04
     13.723  0.0000E+00  0.2176E+04
     13.772  0.0000E+00  0.2176E+04
     13.821  0.0000E+00  0.2176E+04
     13.869  0.0000E+00  0.2176E+04
     13.918  0.0000E+00  0.2176E+04
     13.967  0.0000E+00  0.2176E+04
