<?xml version="1.0" encoding="ISO-8859-1"?>
<modeling>
 <generator>
  <i name="program" type="string">vasp </i>
  <i name="version" type="string">5.4.1  </i>
  <i name="subversion" type="string">24Jun15 (build Dec 12 2017 15:24:27) complex                          parallel </i>
  <i name="platform" type="string">IFC91_ompi </i>
  <i name="date" type="string">2020 04 03 </i>
  <i name="time" type="string">20:28:25 </i>
 </generator>
 <incar>
  <i type="string" name="SYSTEM"> Ir_Ru</i>
  <i type="int" name="ISTART">     0</i>
  <i type="string" name="PREC">accurate</i>
  <i type="string" name="ALGO"> Very_Fast</i>
  <i type="int" name="ICHARG">     2</i>
  <i type="int" name="NELMIN">     5</i>
  <i type="int" name="IBRION">    -1</i>
  <i name="EDIFFG">      0.00001000</i>
  <i type="int" name="ISIF">     2</i>
  <i type="string" name="LREAL"> AUTO</i>
  <i type="int" name="ISMEAR">     1</i>
  <i name="SIGMA">      0.10000000</i>
  <v type="int" name="KPOINT_BSE">    -1     0     0     0</v>
 </incar>
 <kpoints>
  <generation param="Gamma">
   <v type="int" name="divisions">       4        4        4 </v>
   <v name="usershift">      0.00000000       0.00000000       0.00000000 </v>
   <v name="genvec1">      0.25000000       0.00000000       0.00000000 </v>
   <v name="genvec2">      0.00000000       0.25000000       0.00000000 </v>
   <v name="genvec3">      0.00000000       0.00000000       0.25000000 </v>
   <v name="shift">      0.00000000       0.00000000       0.00000000 </v>
  </generation>
  <varray name="kpointlist" >
   <v>       0.00000000       0.00000000       0.00000000 </v>
   <v>       0.25000000       0.00000000       0.00000000 </v>
   <v>       0.50000000       0.00000000       0.00000000 </v>
   <v>      -0.00000000       0.25000000       0.00000000 </v>
   <v>       0.25000000       0.25000000       0.00000000 </v>
   <v>       0.50000000       0.25000000       0.00000000 </v>
   <v>      -0.25000000       0.25000000       0.00000000 </v>
   <v>      -0.00000000       0.50000000       0.00000000 </v>
   <v>       0.25000000       0.50000000       0.00000000 </v>
   <v>       0.50000000       0.50000000       0.00000000 </v>
   <v>       0.00000000      -0.00000000       0.25000000 </v>
   <v>       0.25000000      -0.00000000       0.25000000 </v>
   <v>       0.50000000       0.00000000       0.25000000 </v>
   <v>      -0.25000000       0.00000000       0.25000000 </v>
   <v>       0.00000000       0.25000000       0.25000000 </v>
   <v>       0.25000000       0.25000000       0.25000000 </v>
   <v>       0.50000000       0.25000000       0.25000000 </v>
   <v>      -0.25000000       0.25000000       0.25000000 </v>
   <v>      -0.00000000       0.50000000       0.25000000 </v>
   <v>       0.25000000       0.50000000       0.25000000 </v>
   <v>       0.50000000       0.50000000       0.25000000 </v>
   <v>      -0.25000000       0.50000000       0.25000000 </v>
   <v>       0.00000000      -0.25000000       0.25000000 </v>
   <v>       0.25000000      -0.25000000       0.25000000 </v>
   <v>       0.50000000      -0.25000000       0.25000000 </v>
   <v>      -0.25000000      -0.25000000       0.25000000 </v>
   <v>       0.00000000      -0.00000000       0.50000000 </v>
   <v>       0.25000000       0.00000000       0.50000000 </v>
   <v>       0.50000000      -0.00000000       0.50000000 </v>
   <v>       0.00000000       0.25000000       0.50000000 </v>
   <v>       0.25000000       0.25000000       0.50000000 </v>
   <v>       0.50000000       0.25000000       0.50000000 </v>
   <v>      -0.25000000       0.25000000       0.50000000 </v>
   <v>       0.00000000       0.50000000       0.50000000 </v>
   <v>       0.25000000       0.50000000       0.50000000 </v>
   <v>       0.50000000       0.50000000       0.50000000 </v>
  </varray>
  <varray name="weights" >
   <v>       0.01562500 </v>
   <v>       0.03125000 </v>
   <v>       0.01562500 </v>
   <v>       0.03125000 </v>
   <v>       0.03125000 </v>
   <v>       0.03125000 </v>
   <v>       0.03125000 </v>
   <v>       0.01562500 </v>
   <v>       0.03125000 </v>
   <v>       0.01562500 </v>
   <v>       0.03125000 </v>
   <v>       0.03125000 </v>
   <v>       0.03125000 </v>
   <v>       0.03125000 </v>
   <v>       0.03125000 </v>
   <v>       0.03125000 </v>
   <v>       0.03125000 </v>
   <v>       0.03125000 </v>
   <v>       0.03125000 </v>
   <v>       0.03125000 </v>
   <v>       0.03125000 </v>
   <v>       0.03125000 </v>
   <v>       0.03125000 </v>
   <v>       0.03125000 </v>
   <v>       0.03125000 </v>
   <v>       0.03125000 </v>
   <v>       0.01562500 </v>
   <v>       0.03125000 </v>
   <v>       0.01562500 </v>
   <v>       0.03125000 </v>
   <v>       0.03125000 </v>
   <v>       0.03125000 </v>
   <v>       0.03125000 </v>
   <v>       0.01562500 </v>
   <v>       0.03125000 </v>
   <v>       0.01562500 </v>
  </varray>
 </kpoints>
 <parameters>
  <separator name="general" >
   <i type="string" name="SYSTEM">Ir_Ru</i>
   <i type="logical" name="LCOMPAT"> F  </i>
  </separator>
  <separator name="electronic" >
   <i type="string" name="PREC">accura</i>
   <i name="ENMAX">    213.27600000</i>
   <i name="ENAUG">    333.49400000</i>
   <i name="EDIFF">      0.00010000</i>
   <i type="int" name="IALGO">    48</i>
   <i type="int" name="IWAVPR">    10</i>
   <i type="int" name="NBANDS">  1088</i>
   <i name="NELECT">   1782.00000000</i>
   <i type="int" name="TURBO">     0</i>
   <i type="int" name="IRESTART">     0</i>
   <i type="int" name="NREBOOT">     0</i>
   <i type="int" name="NMIN">     0</i>
   <i name="EREF">      0.00000000</i>
   <separator name="electronic smearing" >
    <i type="int" name="ISMEAR">     1</i>
    <i name="SIGMA">      0.10000000</i>
    <i name="KSPACING">      0.50000000</i>
    <i type="logical" name="KGAMMA"> T  </i>
   </separator>
   <separator name="electronic projectors" >
    <i type="logical" name="LREAL"> T  </i>
    <v name="ROPT">     -0.00025000     -0.00025000</v>
    <i type="int" name="LMAXPAW">  -100</i>
    <i type="int" name="LMAXMIX">     2</i>
    <i type="logical" name="NLSPLINE"> F  </i>
   </separator>
   <separator name="electronic startup" >
    <i type="int" name="ISTART">     0</i>
    <i type="int" name="ICHARG">     2</i>
    <i type="int" name="INIWAV">     1</i>
   </separator>
   <separator name="electronic spin" >
    <i type="int" name="ISPIN">     1</i>
    <i type="logical" name="LNONCOLLINEAR"> F  </i>
    <v name="MAGMOM">      1.00000000      1.00000000      1.00000000      1.00000000      1.00000000      1.00000000      1.00000000      1.00000000      1.00000000      1.00000000      1.00000000      1.00000000      1.00000000      1.00000000      1.00000000      1.00000000      1.00000000      1.00000000      1.00000000      1.00000000
      1.00000000      1.00000000      1.00000000      1.00000000      1.00000000      1.00000000      1.00000000      1.00000000      1.00000000      1.00000000      1.00000000      1.00000000      1.00000000      1.00000000      1.00000000      1.00000000      1.00000000      1.00000000      1.00000000      1.00000000
      1.00000000      1.00000000      1.00000000      1.00000000      1.00000000      1.00000000      1.00000000      1.00000000      1.00000000      1.00000000      1.00000000      1.00000000      1.00000000      1.00000000      1.00000000      1.00000000      1.00000000      1.00000000      1.00000000      1.00000000
      1.00000000      1.00000000      1.00000000      1.00000000      1.00000000      1.00000000      1.00000000      1.00000000      1.00000000      1.00000000      1.00000000      1.00000000      1.00000000      1.00000000      1.00000000      1.00000000      1.00000000      1.00000000      1.00000000      1.00000000
      1.00000000      1.00000000      1.00000000      1.00000000      1.00000000      1.00000000      1.00000000      1.00000000      1.00000000      1.00000000      1.00000000      1.00000000      1.00000000      1.00000000      1.00000000      1.00000000      1.00000000      1.00000000      1.00000000      1.00000000
      1.00000000      1.00000000      1.00000000      1.00000000      1.00000000      1.00000000      1.00000000      1.00000000      1.00000000      1.00000000      1.00000000      1.00000000      1.00000000      1.00000000      1.00000000      1.00000000      1.00000000      1.00000000      1.00000000      1.00000000
      1.00000000      1.00000000      1.00000000      1.00000000      1.00000000      1.00000000      1.00000000      1.00000000      1.00000000      1.00000000      1.00000000      1.00000000      1.00000000      1.00000000      1.00000000      1.00000000      1.00000000      1.00000000      1.00000000      1.00000000
      1.00000000      1.00000000      1.00000000      1.00000000      1.00000000      1.00000000      1.00000000      1.00000000      1.00000000      1.00000000      1.00000000      1.00000000      1.00000000      1.00000000      1.00000000      1.00000000      1.00000000      1.00000000      1.00000000      1.00000000
      1.00000000      1.00000000      1.00000000      1.00000000      1.00000000      1.00000000      1.00000000      1.00000000      1.00000000      1.00000000      1.00000000      1.00000000      1.00000000      1.00000000      1.00000000      1.00000000      1.00000000      1.00000000      1.00000000      1.00000000
      1.00000000      1.00000000      1.00000000      1.00000000      1.00000000      1.00000000      1.00000000      1.00000000      1.00000000      1.00000000      1.00000000      1.00000000      1.00000000      1.00000000      1.00000000      1.00000000      1.00000000      1.00000000      1.00000000      1.00000000
      1.00000000      1.00000000      1.00000000      1.00000000      1.00000000      1.00000000      1.00000000      1.00000000      1.00000000      1.00000000      1.00000000      1.00000000      1.00000000      1.00000000      1.00000000      1.00000000</v>
    <i name="NUPDOWN">     -1.00000000</i>
    <i type="logical" name="LSORBIT"> F  </i>
    <v name="SAXIS">      0.00000000      0.00000000      1.00000000</v>
    <i type="logical" name="LSPIRAL"> F  </i>
    <v name="QSPIRAL">      0.00000000      0.00000000      0.00000000</v>
    <i type="logical" name="LZEROZ"> F  </i>
   </separator>
   <separator name="electronic exchange-correlation" >
    <i type="logical" name="LASPH"> F  </i>
    <i type="logical" name="LMETAGGA"> F  </i>
   </separator>
   <separator name="electronic convergence" >
    <i type="int" name="NELM">    60</i>
    <i type="int" name="NELMDL">   -12</i>
    <i type="int" name="NELMIN">     5</i>
    <i name="ENINI">    213.27600000</i>
    <separator name="electronic convergence detail" >
     <i type="logical" name="LDIAG"> T  </i>
     <i type="logical" name="LSUBROT"> F  </i>
     <i name="WEIMIN">      0.00000000</i>
     <i name="EBREAK">      0.00000000</i>
     <i name="DEPER">      0.30000000</i>
     <i type="int" name="NRMM">     4</i>
     <i name="TIME">      0.40000000</i>
    </separator>
   </separator>
   <separator name="electronic mixer" >
    <i name="AMIX">      0.40000000</i>
    <i name="BMIX">      1.00000000</i>
    <i name="AMIN">      0.10000000</i>
    <i name="AMIX_MAG">      1.60000000</i>
    <i name="BMIX_MAG">      1.00000000</i>
    <separator name="electronic mixer details" >
     <i type="int" name="IMIX">     4</i>
     <i type="logical" name="MIXFIRST"> F  </i>
     <i type="int" name="MAXMIX">   -45</i>
     <i name="WC">    100.00000000</i>
     <i type="int" name="INIMIX">     1</i>
     <i type="int" name="MIXPRE">     1</i>
     <i type="int" name="MREMOVE">     5</i>
    </separator>
   </separator>
   <separator name="electronic dipolcorrection" >
    <i type="logical" name="LDIPOL"> F  </i>
    <i type="logical" name="LMONO"> F  </i>
    <i type="int" name="IDIPOL">     0</i>
    <i name="EPSILON">      1.00000000</i>
    <v name="DIPOL">   -100.00000000   -100.00000000   -100.00000000</v>
    <i name="EFIELD">      0.00000000</i>
   </separator>
  </separator>
  <separator name="grids" >
   <i type="int" name="NGX">    80</i>
   <i type="int" name="NGY">    80</i>
   <i type="int" name="NGZ">    80</i>
   <i type="int" name="NGXF">   160</i>
   <i type="int" name="NGYF">   160</i>
   <i type="int" name="NGZF">   160</i>
   <i type="logical" name="ADDGRID"> F  </i>
  </separator>
  <separator name="ionic" >
   <i type="int" name="NSW">     0</i>
   <i type="int" name="IBRION">    -1</i>
   <i type="int" name="ISIF">     2</i>
   <i name="PSTRESS">      0.00000000</i>
   <i name="EDIFFG">      0.00001000</i>
   <i type="int" name="NFREE">     0</i>
   <i name="POTIM">      0.50000000</i>
   <i name="SMASS">     -3.00000000</i>
   <i name="SCALEE">      1.00000000</i>
  </separator>
  <separator name="ionic md" >
   <i name="TEBEG">      0.00010000</i>
   <i name="TEEND">      0.00010000</i>
   <i type="int" name="NBLOCK">     1</i>
   <i type="int" name="KBLOCK">     1</i>
   <i type="int" name="NPACO">   256</i>
   <i name="APACO">     16.00000000</i>
  </separator>
  <separator name="symmetry" >
   <i type="int" name="ISYM">     2</i>
   <i name="SYMPREC">      0.00001000</i>
  </separator>
  <separator name="dos" >
   <i type="logical" name="LORBIT"> F  </i>
   <v name="RWIGS">     -1.00000000     -1.00000000</v>
   <i type="int" name="NEDOS">   301</i>
   <i name="EMIN">     10.00000000</i>
   <i name="EMAX">    -10.00000000</i>
   <i name="EFERMI">      0.00000000</i>
  </separator>
  <separator name="writing" >
   <i type="int" name="NWRITE">     2</i>
   <i type="logical" name="LWAVE"> T  </i>
   <i type="logical" name="LCHARG"> T  </i>
   <i type="logical" name="LPARD"> F  </i>
   <i type="logical" name="LVTOT"> F  </i>
   <i type="logical" name="LVHAR"> F  </i>
   <i type="logical" name="LELF"> F  </i>
   <i type="logical" name="LOPTICS"> F  </i>
   <v name="STM">      0.00000000      0.00000000      0.00000000      0.00000000      0.00000000      0.00000000      0.00000000</v>
  </separator>
  <separator name="performance" >
   <i type="int" name="NPAR">    64</i>
   <i type="int" name="NSIM">     4</i>
   <i type="int" name="NBLK">    -1</i>
   <i type="logical" name="LPLANE"> T  </i>
   <i type="logical" name="LSCALAPACK"> T  </i>
   <i type="logical" name="LSCAAWARE"> T  </i>
   <i type="logical" name="LSCALU"> F  </i>
   <i type="logical" name="LASYNC"> F  </i>
   <i type="logical" name="LORBITALREAL"> F  </i>
  </separator>
  <separator name="miscellaneous" >
   <i type="int" name="IDIOT">     3</i>
   <i type="logical" name="LMUSIC"> F  </i>
   <v name="POMASS">    192.22000000    101.07000000</v>
   <v name="DARWINR">      0.00000000      0.00000000</v>
   <v name="DARWINV">      1.00000000      1.00000000</v>
   <i type="logical" name="LCORR"> T  </i>
  </separator>
  <i type="logical" name="GGA_COMPAT"> T  </i>
  <i type="logical" name="LBERRY"> F  </i>
  <i type="int" name="ICORELEVEL">     0</i>
  <i type="logical" name="LDAU"> F  </i>
  <i type="int" name="I_CONSTRAINED_M">     0</i>
  <separator name="electronic exchange-correlation" >
   <i type="string" name="GGA">--</i>
   <i type="int" name="VOSKOWN">     0</i>
   <i type="logical" name="LHFCALC"> F  </i>
   <i type="string" name="PRECFOCK"></i>
   <i type="logical" name="LSYMGRAD"> F  </i>
   <i type="logical" name="LHFONE"> F  </i>
   <i type="logical" name="LRHFCALC"> F  </i>
   <i type="logical" name="LTHOMAS"> F  </i>
   <i type="logical" name="LMODELHF"> F  </i>
   <i name="ENCUT4O">     -1.00000000</i>
   <i type="int" name="EXXOEP">     0</i>
   <i type="int" name="FOURORBIT">     0</i>
   <i name="AEXX">      0.00000000</i>
   <i name="HFALPHA">      0.00000000</i>
   <i name="MCALPHA">      0.00000000</i>
   <i name="ALDAX">      1.00000000</i>
   <i name="AGGAX">      1.00000000</i>
   <i name="ALDAC">      1.00000000</i>
   <i name="AGGAC">      1.00000000</i>
   <i type="int" name="NKREDX">     1</i>
   <i type="int" name="NKREDY">     1</i>
   <i type="int" name="NKREDZ">     1</i>
   <i type="logical" name="SHIFTRED"> F  </i>
   <i type="logical" name="ODDONLY"> F  </i>
   <i type="logical" name="EVENONLY"> F  </i>
   <i type="int" name="LMAXFOCK">     0</i>
   <i type="int" name="NMAXFOCKAE">     0</i>
   <i type="logical" name="LFOCKAEDFT"> F  </i>
   <i name="HFSCREEN">      0.00000000</i>
   <i name="HFSCREENC">      0.00000000</i>
   <i type="int" name="NBANDSGWLOW">     0</i>
  </separator>
  <separator name="vdW DFT" >
   <i type="logical" name="LUSE_VDW"> F  </i>
   <i name="Zab_VDW">     -0.84910000</i>
   <i name="PARAM1">      0.12340000</i>
   <i name="PARAM2">      1.00000000</i>
   <i name="PARAM3">      0.00000000</i>
  </separator>
  <separator name="model GW" >
   <i type="int" name="MODEL_GW">     0</i>
   <i name="MODEL_EPS0">      8.38895903</i>
   <i name="MODEL_ALPHA">      1.00000000</i>
  </separator>
  <separator name="linear response parameters" >
   <i type="logical" name="LEPSILON"> F  </i>
   <i type="logical" name="LRPA"> F  </i>
   <i type="logical" name="LNABLA"> F  </i>
   <i type="logical" name="LVEL"> F  </i>
   <i type="int" name="KINTER">     0</i>
   <i name="CSHIFT">      0.10000000</i>
   <i name="OMEGAMAX">     -1.00000000</i>
   <i name="DEG_THRESHOLD">      0.00200000</i>
  </separator>
  <separator name="orbital magnetization" >
   <i type="logical" name="NUCIND"> F  </i>
   <v name="MAGPOS">      0.00000000      0.00000000      0.00000000</v>
   <i type="logical" name="LNICSALL"> T  </i>
   <i type="logical" name="ORBITALMAG"> F  </i>
   <i type="logical" name="LMAGBLOCH"> F  </i>
   <i type="logical" name="LCHIMAG"> F  </i>
   <i type="logical" name="LGAUGE"> T  </i>
   <i type="int" name="MAGATOM">     0</i>
   <v name="MAGDIPOL">      0.00000000      0.00000000      0.00000000</v>
   <v name="AVECCONST">      0.00000000      0.00000000      0.00000000</v>
  </separator>
  <separator name="response functions" >
   <i type="logical" name="LADDER"> F  </i>
   <i type="logical" name="LFXC"> F  </i>
   <i type="logical" name="LHARTREE"> T  </i>
   <i type="int" name="IBSE">     0</i>
   <v type="int" name="KPOINT">    -1     0     0     0</v>
   <i type="logical" name="LTCTE"> F  </i>
   <i type="logical" name="LTETE"> F  </i>
   <i type="logical" name="LTRIPLET"> F  </i>
   <i type="logical" name="LFXCEPS"> F  </i>
   <i type="logical" name="LFXHEG"> F  </i>
   <i type="int" name="NATURALO">     0</i>
   <i type="logical" name="L2ORDER"> F  </i>
   <i type="logical" name="LUSEW"> F  </i>
   <i name="ENCUTGW">     -2.00000000</i>
   <i name="ENCUTGWSOFT">     -2.00000000</i>
   <i name="ENCUTLF">     -1.00000000</i>
   <i type="int" name="LMAXMP2">    -1</i>
   <i name="SCISSOR">      0.00000000</i>
   <i type="int" name="NOMEGA">     0</i>
   <i type="int" name="NOMEGAR">     0</i>
   <i type="int" name="NBANDSGW">    -1</i>
   <i type="int" name="NBANDSO">    -1</i>
   <i type="int" name="NBANDSV">    -1</i>
   <i type="int" name="NELM">     1</i>
   <i type="int" name="NELMHF">     1</i>
   <i type="int" name="DIM">     3</i>
   <i type="int" name="ANTIRES">     0</i>
   <i name="OMEGAMAX">    -30.00000000</i>
   <i name="OMEGAMIN">    -30.00000000</i>
   <i name="OMEGATL">   -200.00000000</i>
   <i type="int" name="OMEGAGRID">     0</i>
   <i name="CSHIFT">     -0.10000000</i>
   <i type="logical" name="SELFENERGY"> F  </i>
   <i type="logical" name="LSPECTRAL"> F  </i>
   <i type="logical" name="LSPECTRALGW"> F  </i>
   <i type="logical" name="LSINGLES"> F  </i>
   <i type="logical" name="LFERMIGW"> F  </i>
   <i type="logical" name="ODDONLYGW"> F  </i>
   <i type="logical" name="EVENONLYGW"> F  </i>
   <i type="int" name="NKREDLFX">     1</i>
   <i type="int" name="NKREDLFY">     1</i>
   <i type="int" name="NKREDLFZ">     1</i>
   <i type="int" name="MAXMEM">  1800</i>
   <i type="int" name="TELESCOPE">     0</i>
   <i type="int" name="TAUPAR">     1</i>
   <i type="int" name="OMEGAPAR">    -1</i>
   <i name="LAMBDA">      1.00000000</i>
  </separator>
  <separator name="External order field" >
   <i name="OFIELD_KAPPA">      0.00000000</i>
   <v name="OFIELD_K">      0.00000000      0.00000000      0.00000000</v>
   <i name="OFIELD_Q6_NEAR">      0.00000000</i>
   <i name="OFIELD_Q6_FAR">      0.00000000</i>
   <i name="OFIELD_A">      0.00000000</i>
  </separator>
 </parameters>
 <atominfo>
  <atoms>     216 </atoms>
  <types>       2 </types>
  <array name="atoms" >
   <dimension dim="1">ion</dimension>
   <field type="string">element</field>
   <field type="int">atomtype</field>
   <set>
    <rc><c>Ir</c><c>   1</c></rc>
    <rc><c>Ir</c><c>   1</c></rc>
    <rc><c>Ir</c><c>   1</c></rc>
    <rc><c>Ir</c><c>   1</c></rc>
    <rc><c>Ir</c><c>   1</c></rc>
    <rc><c>Ir</c><c>   1</c></rc>
    <rc><c>Ir</c><c>   1</c></rc>
    <rc><c>Ir</c><c>   1</c></rc>
    <rc><c>Ir</c><c>   1</c></rc>
    <rc><c>Ir</c><c>   1</c></rc>
    <rc><c>Ir</c><c>   1</c></rc>
    <rc><c>Ir</c><c>   1</c></rc>
    <rc><c>Ir</c><c>   1</c></rc>
    <rc><c>Ir</c><c>   1</c></rc>
    <rc><c>Ir</c><c>   1</c></rc>
    <rc><c>Ir</c><c>   1</c></rc>
    <rc><c>Ir</c><c>   1</c></rc>
    <rc><c>Ir</c><c>   1</c></rc>
    <rc><c>Ir</c><c>   1</c></rc>
    <rc><c>Ir</c><c>   1</c></rc>
    <rc><c>Ir</c><c>   1</c></rc>
    <rc><c>Ir</c><c>   1</c></rc>
    <rc><c>Ir</c><c>   1</c></rc>
    <rc><c>Ir</c><c>   1</c></rc>
    <rc><c>Ir</c><c>   1</c></rc>
    <rc><c>Ir</c><c>   1</c></rc>
    <rc><c>Ir</c><c>   1</c></rc>
    <rc><c>Ir</c><c>   1</c></rc>
    <rc><c>Ir</c><c>   1</c></rc>
    <rc><c>Ir</c><c>   1</c></rc>
    <rc><c>Ir</c><c>   1</c></rc>
    <rc><c>Ir</c><c>   1</c></rc>
    <rc><c>Ir</c><c>   1</c></rc>
    <rc><c>Ir</c><c>   1</c></rc>
    <rc><c>Ir</c><c>   1</c></rc>
    <rc><c>Ir</c><c>   1</c></rc>
    <rc><c>Ir</c><c>   1</c></rc>
    <rc><c>Ir</c><c>   1</c></rc>
    <rc><c>Ir</c><c>   1</c></rc>
    <rc><c>Ir</c><c>   1</c></rc>
    <rc><c>Ir</c><c>   1</c></rc>
    <rc><c>Ir</c><c>   1</c></rc>
    <rc><c>Ir</c><c>   1</c></rc>
    <rc><c>Ir</c><c>   1</c></rc>
    <rc><c>Ir</c><c>   1</c></rc>
    <rc><c>Ir</c><c>   1</c></rc>
    <rc><c>Ir</c><c>   1</c></rc>
    <rc><c>Ir</c><c>   1</c></rc>
    <rc><c>Ir</c><c>   1</c></rc>
    <rc><c>Ir</c><c>   1</c></rc>
    <rc><c>Ir</c><c>   1</c></rc>
    <rc><c>Ir</c><c>   1</c></rc>
    <rc><c>Ir</c><c>   1</c></rc>
    <rc><c>Ir</c><c>   1</c></rc>
    <rc><c>Ru</c><c>   2</c></rc>
    <rc><c>Ru</c><c>   2</c></rc>
    <rc><c>Ru</c><c>   2</c></rc>
    <rc><c>Ru</c><c>   2</c></rc>
    <rc><c>Ru</c><c>   2</c></rc>
    <rc><c>Ru</c><c>   2</c></rc>
    <rc><c>Ru</c><c>   2</c></rc>
    <rc><c>Ru</c><c>   2</c></rc>
    <rc><c>Ru</c><c>   2</c></rc>
    <rc><c>Ru</c><c>   2</c></rc>
    <rc><c>Ru</c><c>   2</c></rc>
    <rc><c>Ru</c><c>   2</c></rc>
    <rc><c>Ru</c><c>   2</c></rc>
    <rc><c>Ru</c><c>   2</c></rc>
    <rc><c>Ru</c><c>   2</c></rc>
    <rc><c>Ru</c><c>   2</c></rc>
    <rc><c>Ru</c><c>   2</c></rc>
    <rc><c>Ru</c><c>   2</c></rc>
    <rc><c>Ru</c><c>   2</c></rc>
    <rc><c>Ru</c><c>   2</c></rc>
    <rc><c>Ru</c><c>   2</c></rc>
    <rc><c>Ru</c><c>   2</c></rc>
    <rc><c>Ru</c><c>   2</c></rc>
    <rc><c>Ru</c><c>   2</c></rc>
    <rc><c>Ru</c><c>   2</c></rc>
    <rc><c>Ru</c><c>   2</c></rc>
    <rc><c>Ru</c><c>   2</c></rc>
    <rc><c>Ru</c><c>   2</c></rc>
    <rc><c>Ru</c><c>   2</c></rc>
    <rc><c>Ru</c><c>   2</c></rc>
    <rc><c>Ru</c><c>   2</c></rc>
    <rc><c>Ru</c><c>   2</c></rc>
    <rc><c>Ru</c><c>   2</c></rc>
    <rc><c>Ru</c><c>   2</c></rc>
    <rc><c>Ru</c><c>   2</c></rc>
    <rc><c>Ru</c><c>   2</c></rc>
    <rc><c>Ru</c><c>   2</c></rc>
    <rc><c>Ru</c><c>   2</c></rc>
    <rc><c>Ru</c><c>   2</c></rc>
    <rc><c>Ru</c><c>   2</c></rc>
    <rc><c>Ru</c><c>   2</c></rc>
    <rc><c>Ru</c><c>   2</c></rc>
    <rc><c>Ru</c><c>   2</c></rc>
    <rc><c>Ru</c><c>   2</c></rc>
    <rc><c>Ru</c><c>   2</c></rc>
    <rc><c>Ru</c><c>   2</c></rc>
    <rc><c>Ru</c><c>   2</c></rc>
    <rc><c>Ru</c><c>   2</c></rc>
    <rc><c>Ru</c><c>   2</c></rc>
    <rc><c>Ru</c><c>   2</c></rc>
    <rc><c>Ru</c><c>   2</c></rc>
    <rc><c>Ru</c><c>   2</c></rc>
    <rc><c>Ru</c><c>   2</c></rc>
    <rc><c>Ru</c><c>   2</c></rc>
    <rc><c>Ru</c><c>   2</c></rc>
    <rc><c>Ru</c><c>   2</c></rc>
    <rc><c>Ru</c><c>   2</c></rc>
    <rc><c>Ru</c><c>   2</c></rc>
    <rc><c>Ru</c><c>   2</c></rc>
    <rc><c>Ru</c><c>   2</c></rc>
    <rc><c>Ru</c><c>   2</c></rc>
    <rc><c>Ru</c><c>   2</c></rc>
    <rc><c>Ru</c><c>   2</c></rc>
    <rc><c>Ru</c><c>   2</c></rc>
    <rc><c>Ru</c><c>   2</c></rc>
    <rc><c>Ru</c><c>   2</c></rc>
    <rc><c>Ru</c><c>   2</c></rc>
    <rc><c>Ru</c><c>   2</c></rc>
    <rc><c>Ru</c><c>   2</c></rc>
    <rc><c>Ru</c><c>   2</c></rc>
    <rc><c>Ru</c><c>   2</c></rc>
    <rc><c>Ru</c><c>   2</c></rc>
    <rc><c>Ru</c><c>   2</c></rc>
    <rc><c>Ru</c><c>   2</c></rc>
    <rc><c>Ru</c><c>   2</c></rc>
    <rc><c>Ru</c><c>   2</c></rc>
    <rc><c>Ru</c><c>   2</c></rc>
    <rc><c>Ru</c><c>   2</c></rc>
    <rc><c>Ru</c><c>   2</c></rc>
    <rc><c>Ru</c><c>   2</c></rc>
    <rc><c>Ru</c><c>   2</c></rc>
    <rc><c>Ru</c><c>   2</c></rc>
    <rc><c>Ru</c><c>   2</c></rc>
    <rc><c>Ru</c><c>   2</c></rc>
    <rc><c>Ru</c><c>   2</c></rc>
    <rc><c>Ru</c><c>   2</c></rc>
    <rc><c>Ru</c><c>   2</c></rc>
    <rc><c>Ru</c><c>   2</c></rc>
    <rc><c>Ru</c><c>   2</c></rc>
    <rc><c>Ru</c><c>   2</c></rc>
    <rc><c>Ru</c><c>   2</c></rc>
    <rc><c>Ru</c><c>   2</c></rc>
    <rc><c>Ru</c><c>   2</c></rc>
    <rc><c>Ru</c><c>   2</c></rc>
    <rc><c>Ru</c><c>   2</c></rc>
    <rc><c>Ru</c><c>   2</c></rc>
    <rc><c>Ru</c><c>   2</c></rc>
    <rc><c>Ru</c><c>   2</c></rc>
    <rc><c>Ru</c><c>   2</c></rc>
    <rc><c>Ru</c><c>   2</c></rc>
    <rc><c>Ru</c><c>   2</c></rc>
    <rc><c>Ru</c><c>   2</c></rc>
    <rc><c>Ru</c><c>   2</c></rc>
    <rc><c>Ru</c><c>   2</c></rc>
    <rc><c>Ru</c><c>   2</c></rc>
    <rc><c>Ru</c><c>   2</c></rc>
    <rc><c>Ru</c><c>   2</c></rc>
    <rc><c>Ru</c><c>   2</c></rc>
    <rc><c>Ru</c><c>   2</c></rc>
    <rc><c>Ru</c><c>   2</c></rc>
    <rc><c>Ru</c><c>   2</c></rc>
    <rc><c>Ru</c><c>   2</c></rc>
    <rc><c>Ru</c><c>   2</c></rc>
    <rc><c>Ru</c><c>   2</c></rc>
    <rc><c>Ru</c><c>   2</c></rc>
    <rc><c>Ru</c><c>   2</c></rc>
    <rc><c>Ru</c><c>   2</c></rc>
    <rc><c>Ru</c><c>   2</c></rc>
    <rc><c>Ru</c><c>   2</c></rc>
    <rc><c>Ru</c><c>   2</c></rc>
    <rc><c>Ru</c><c>   2</c></rc>
    <rc><c>Ru</c><c>   2</c></rc>
    <rc><c>Ru</c><c>   2</c></rc>
    <rc><c>Ru</c><c>   2</c></rc>
    <rc><c>Ru</c><c>   2</c></rc>
    <rc><c>Ru</c><c>   2</c></rc>
    <rc><c>Ru</c><c>   2</c></rc>
    <rc><c>Ru</c><c>   2</c></rc>
    <rc><c>Ru</c><c>   2</c></rc>
    <rc><c>Ru</c><c>   2</c></rc>
    <rc><c>Ru</c><c>   2</c></rc>
    <rc><c>Ru</c><c>   2</c></rc>
    <rc><c>Ru</c><c>   2</c></rc>
    <rc><c>Ru</c><c>   2</c></rc>
    <rc><c>Ru</c><c>   2</c></rc>
    <rc><c>Ru</c><c>   2</c></rc>
    <rc><c>Ru</c><c>   2</c></rc>
    <rc><c>Ru</c><c>   2</c></rc>
    <rc><c>Ru</c><c>   2</c></rc>
    <rc><c>Ru</c><c>   2</c></rc>
    <rc><c>Ru</c><c>   2</c></rc>
    <rc><c>Ru</c><c>   2</c></rc>
    <rc><c>Ru</c><c>   2</c></rc>
    <rc><c>Ru</c><c>   2</c></rc>
    <rc><c>Ru</c><c>   2</c></rc>
    <rc><c>Ru</c><c>   2</c></rc>
    <rc><c>Ru</c><c>   2</c></rc>
    <rc><c>Ru</c><c>   2</c></rc>
    <rc><c>Ru</c><c>   2</c></rc>
    <rc><c>Ru</c><c>   2</c></rc>
    <rc><c>Ru</c><c>   2</c></rc>
    <rc><c>Ru</c><c>   2</c></rc>
    <rc><c>Ru</c><c>   2</c></rc>
    <rc><c>Ru</c><c>   2</c></rc>
    <rc><c>Ru</c><c>   2</c></rc>
    <rc><c>Ru</c><c>   2</c></rc>
    <rc><c>Ru</c><c>   2</c></rc>
    <rc><c>Ru</c><c>   2</c></rc>
    <rc><c>Ru</c><c>   2</c></rc>
    <rc><c>Ru</c><c>   2</c></rc>
    <rc><c>Ru</c><c>   2</c></rc>
    <rc><c>Ru</c><c>   2</c></rc>
   </set>
  </array>
  <array name="atomtypes" >
   <dimension dim="1">type</dimension>
   <field type="int">atomspertype</field>
   <field type="string">element</field>
   <field>mass</field>
   <field>valence</field>
   <field type="string">pseudopotential</field>
   <set>
    <rc><c>  54</c><c>Ir</c><c>    192.22000000</c><c>      9.00000000</c><c> PAW_PBE Ir 06Sep2000                   </c></rc>
    <rc><c> 162</c><c>Ru</c><c>    101.07000000</c><c>      8.00000000</c><c> PAW_PBE Ru 06Sep2000                   </c></rc>
   </set>
  </array>
 </atominfo>
 <structure name="initialpos" >
  <crystal>
   <varray name="basis" >
    <v>      -8.19811000      -4.73312000      12.97158000 </v>
    <v>      -0.00004000       9.46633000      12.97158000 </v>
    <v>      -8.19815000       4.73321000     -12.97158000 </v>
   </varray>
   <i name="volume">   3020.02524953 </i>
   <varray name="rec_basis" >
    <v>      -0.06098971      -0.03521278       0.02569720 </v>
    <v>       0.00000039       0.07042504       0.02569720 </v>
    <v>      -0.06098933       0.03521226      -0.02569720 </v>
   </varray>
  </crystal>
  <varray name="positions" >
   <v>       0.02777889       0.36111222       0.97222444 </v>
   <v>       0.97222111       0.30555444       0.69444222 </v>
   <v>       0.13889000       0.47222333       0.86111333 </v>
   <v>       0.08333222       0.41666556       0.58333111 </v>
   <v>       0.58333444       0.25000111       0.75000222 </v>
   <v>       0.52777667       0.19444333       0.47222000 </v>
   <v>       0.25000111       0.25000111       0.41666889 </v>
   <v>       0.19444333       0.19444333       0.13888667 </v>
   <v>       0.91639778       0.25272111       0.08360556 </v>
   <v>       0.86111000       0.19444333       0.80555333 </v>
   <v>       0.25000111       0.58333444       0.75000222 </v>
   <v>       0.19444333       0.52777667       0.47222000 </v>
   <v>       0.91666778       0.58333444       0.41666889 </v>
   <v>       0.86111000       0.52777667       0.13888667 </v>
   <v>       0.91666778       0.91666778       0.75000222 </v>
   <v>       0.86111000       0.86111000       0.47222000 </v>
   <v>       0.69444556       0.36111222       0.63889111 </v>
   <v>       0.63888778       0.30555444       0.36110889 </v>
   <v>       0.36111222       0.36111222       0.30555778 </v>
   <v>       0.30555444       0.30555444       0.02777556 </v>
   <v>       0.69444556       0.69444556       0.97222444 </v>
   <v>       0.63888778       0.63888778       0.69444222 </v>
   <v>       0.36111222       0.69444556       0.63889111 </v>
   <v>       0.30555444       0.63888778       0.36110889 </v>
   <v>       0.02777889       0.69444556       0.30555778 </v>
   <v>       0.97222111       0.63888778       0.02777556 </v>
   <v>       0.36111222       0.02777889       0.97222444 </v>
   <v>       0.30555444       0.97222111       0.69444222 </v>
   <v>       0.02777889       0.02777889       0.63889111 </v>
   <v>       0.97222111       0.97222111       0.36110889 </v>
   <v>       0.80555667       0.47222333       0.52778000 </v>
   <v>       0.74999889       0.41666556       0.24999778 </v>
   <v>       0.47222333       0.47222333       0.19444667 </v>
   <v>       0.41666556       0.41666556       0.91666444 </v>
   <v>       0.80555667       0.80555667       0.86111333 </v>
   <v>       0.74999889       0.74999889       0.58333111 </v>
   <v>       0.47222333       0.80555667       0.52778000 </v>
   <v>       0.41666556       0.74999889       0.24999778 </v>
   <v>       0.13889000       0.80555667       0.19444667 </v>
   <v>       0.08333222       0.74999889       0.91666444 </v>
   <v>       0.47222333       0.13889000       0.86111333 </v>
   <v>       0.41666556       0.08333222       0.58333111 </v>
   <v>       0.13889000       0.13889000       0.52778000 </v>
   <v>       0.08333222       0.08333222       0.24999778 </v>
   <v>       0.58333444       0.58333444       0.08333556 </v>
   <v>       0.52777667       0.52777667       0.80555333 </v>
   <v>       0.58333444       0.91666778       0.41666889 </v>
   <v>       0.52777667       0.86111000       0.13888667 </v>
   <v>       0.25000111       0.91666778       0.08333556 </v>
   <v>       0.19444333       0.86111000       0.80555333 </v>
   <v>       0.69444556       0.02777889       0.30555778 </v>
   <v>       0.63888778       0.97222111       0.02777556 </v>
   <v>       0.80555667       0.13889000       0.19444667 </v>
   <v>       0.74999889       0.08333222       0.91666444 </v>
   <v>       0.86084889       0.36163556       0.80581778 </v>
   <v>       0.86085222       0.19418556       0.63837111 </v>
   <v>       0.02830222       0.19418222       0.80581778 </v>
   <v>       0.13915111       0.30503111       0.86084889 </v>
   <v>       0.97169778       0.47248111       0.86084556 </v>
   <v>       0.13914778       0.47248111       0.02829556 </v>
   <v>       0.97196000       0.47274667       0.69470667 </v>
   <v>       0.97196333       0.30529667       0.52726000 </v>
   <v>       0.13941333       0.30529333       0.69470667 </v>
   <v>       0.25026222       0.41614222       0.74973778 </v>
   <v>       0.08280889       0.58359222       0.74973444 </v>
   <v>       0.25025889       0.58359222       0.91718444 </v>
   <v>       0.41640778       0.25052444       0.58359889 </v>
   <v>       0.41640778       0.08307444       0.41614889 </v>
   <v>       0.58385778       0.08307444       0.58359889 </v>
   <v>       0.69470667       0.19392000       0.63862667 </v>
   <v>       0.52725333       0.36137333       0.63862667 </v>
   <v>       0.69470333       0.36137000       0.80607333 </v>
   <v>       0.08307111       0.25052444       0.25026222 </v>
   <v>       0.08307444       0.08307444       0.08281556 </v>
   <v>       0.25052444       0.08307111       0.25026222 </v>
   <v>       0.36137000       0.19392000       0.30529000 </v>
   <v>       0.19392000       0.36137000       0.30529000 </v>
   <v>       0.36137000       0.36137000       0.47274000 </v>
   <v>       0.74974111       0.25052444       0.91693222 </v>
   <v>       0.74974111       0.08307444       0.74948222 </v>
   <v>       0.91719111       0.08307111       0.91692889 </v>
   <v>       0.02804000       0.19392000       0.97196000 </v>
   <v>       0.86058667       0.36137000       0.97195667 </v>
   <v>       0.02803667       0.36137000       0.13940667 </v>
   <v>       0.08307111       0.58385778       0.58359556 </v>
   <v>       0.08307444       0.41640778       0.41614889 </v>
   <v>       0.25052444       0.41640444       0.58359556 </v>
   <v>       0.36137333       0.52725333       0.63862667 </v>
   <v>       0.19392000       0.69470333       0.63862333 </v>
   <v>       0.36137000       0.69470333       0.80607333 </v>
   <v>       0.74974111       0.58385778       0.25026556 </v>
   <v>       0.74974111       0.41640778       0.08281556 </v>
   <v>       0.91719111       0.41640444       0.25026222 </v>
   <v>       0.02804000       0.52725333       0.30529333 </v>
   <v>       0.86058667       0.69470333       0.30529000 </v>
   <v>       0.02803667       0.69470333       0.47274000 </v>
   <v>       0.74973778       0.91719111       0.58359556 </v>
   <v>       0.74974111       0.74974111       0.41614889 </v>
   <v>       0.91719111       0.74973778       0.58359556 </v>
   <v>       0.02803667       0.86058667       0.63862333 </v>
   <v>       0.86058667       0.02803667       0.63862333 </v>
   <v>       0.02803667       0.02803667       0.80607333 </v>
   <v>       0.52751556       0.36163556       0.47248444 </v>
   <v>       0.52751889       0.19418556       0.30503778 </v>
   <v>       0.69496889       0.19418556       0.47248778 </v>
   <v>       0.80581778       0.30503111       0.52751556 </v>
   <v>       0.63836444       0.47248111       0.52751222 </v>
   <v>       0.80581444       0.47248111       0.69496222 </v>
   <v>       0.19418222       0.36163556       0.13915111 </v>
   <v>       0.19418556       0.19418556       0.97170444 </v>
   <v>       0.36163556       0.19418556       0.13915444 </v>
   <v>       0.47248111       0.30503111       0.19417889 </v>
   <v>       0.30503111       0.47248444       0.19418222 </v>
   <v>       0.47248111       0.47248111       0.36162889 </v>
   <v>       0.52751556       0.69496889       0.80581778 </v>
   <v>       0.52751889       0.52751889       0.63837111 </v>
   <v>       0.69496889       0.52751889       0.80582111 </v>
   <v>       0.80581444       0.63836444       0.86084556 </v>
   <v>       0.63836444       0.80581778       0.86084889 </v>
   <v>       0.80581444       0.80581444       0.02829556 </v>
   <v>       0.19418222       0.69496889       0.47248444 </v>
   <v>       0.19418556       0.52751889       0.30503778 </v>
   <v>       0.36163556       0.52751556       0.47248444 </v>
   <v>       0.47248444       0.63836444       0.52751556 </v>
   <v>       0.30503111       0.80581444       0.52751222 </v>
   <v>       0.47248111       0.80581444       0.69496222 </v>
   <v>       0.86085222       0.69496889       0.13915444 </v>
   <v>       0.86085222       0.52751889       0.97170444 </v>
   <v>       0.02830222       0.52751889       0.13915444 </v>
   <v>       0.13914778       0.63836444       0.19417889 </v>
   <v>       0.97169778       0.80581444       0.19417889 </v>
   <v>       0.13914778       0.80581444       0.36162889 </v>
   <v>       0.19418222       0.02830222       0.80581778 </v>
   <v>       0.19418556       0.86085222       0.63837111 </v>
   <v>       0.36163556       0.86085222       0.80582111 </v>
   <v>       0.47248444       0.97169778       0.86084889 </v>
   <v>       0.30503111       0.13914778       0.86084556 </v>
   <v>       0.47248111       0.13914778       0.02829556 </v>
   <v>       0.86084889       0.02830222       0.47248444 </v>
   <v>       0.86085222       0.86085222       0.30503778 </v>
   <v>       0.02830222       0.86084889       0.47248444 </v>
   <v>       0.13914778       0.97169778       0.52751222 </v>
   <v>       0.97169778       0.13914778       0.52751222 </v>
   <v>       0.13914778       0.13914778       0.69496222 </v>
   <v>       0.63862667       0.47274667       0.36137333 </v>
   <v>       0.63863000       0.30529667       0.19392667 </v>
   <v>       0.80608000       0.30529667       0.36137667 </v>
   <v>       0.91692889       0.41614222       0.41640444 </v>
   <v>       0.74947556       0.58359556       0.41640444 </v>
   <v>       0.91692556       0.58359222       0.58385111 </v>
   <v>       0.30529333       0.47274667       0.02804000 </v>
   <v>       0.30529667       0.30529667       0.86059333 </v>
   <v>       0.47274667       0.30529333       0.02804000 </v>
   <v>       0.58359222       0.41614222       0.08306778 </v>
   <v>       0.41614222       0.58359222       0.08306778 </v>
   <v>       0.58359222       0.58359222       0.25051778 </v>
   <v>       0.63863000       0.80608000       0.69471000 </v>
   <v>       0.63863000       0.63863000       0.52726000 </v>
   <v>       0.80608000       0.63863000       0.69471000 </v>
   <v>       0.91692556       0.74947556       0.74973444 </v>
   <v>       0.74947556       0.91692889       0.74973778 </v>
   <v>       0.91692556       0.91692556       0.91718444 </v>
   <v>       0.30529333       0.80608000       0.36137333 </v>
   <v>       0.30529667       0.63863000       0.19392667 </v>
   <v>       0.47274667       0.63862667       0.36137333 </v>
   <v>       0.58359556       0.74947556       0.41640444 </v>
   <v>       0.41614222       0.91692556       0.41640111 </v>
   <v>       0.58359222       0.91692556       0.58385111 </v>
   <v>       0.97196000       0.80608000       0.02804000 </v>
   <v>       0.97196333       0.63863000       0.86059333 </v>
   <v>       0.13941333       0.63863000       0.02804333 </v>
   <v>       0.25025889       0.74947556       0.08306778 </v>
   <v>       0.08280889       0.91692556       0.08306778 </v>
   <v>       0.25025889       0.91692556       0.25051778 </v>
   <v>       0.30529667       0.13941333       0.69471000 </v>
   <v>       0.30529667       0.97196333       0.52726000 </v>
   <v>       0.47274667       0.97196333       0.69471000 </v>
   <v>       0.58359222       0.08280889       0.74973444 </v>
   <v>       0.41614222       0.25025889       0.74973444 </v>
   <v>       0.58359222       0.25025889       0.91718444 </v>
   <v>       0.97196000       0.13941333       0.36137333 </v>
   <v>       0.97196333       0.97196333       0.19392667 </v>
   <v>       0.13941333       0.97196000       0.36137333 </v>
   <v>       0.25025889       0.08280889       0.41640111 </v>
   <v>       0.08280889       0.25025889       0.41640111 </v>
   <v>       0.25025889       0.25025889       0.58385111 </v>
   <v>       0.41640778       0.58385778       0.91693222 </v>
   <v>       0.41640778       0.41640778       0.74948222 </v>
   <v>       0.58385778       0.41640444       0.91692889 </v>
   <v>       0.69470667       0.52725333       0.97196000 </v>
   <v>       0.52725333       0.69470333       0.97195667 </v>
   <v>       0.69470333       0.69470333       0.13940667 </v>
   <v>       0.41640444       0.91719111       0.25026222 </v>
   <v>       0.41640778       0.74974111       0.08281556 </v>
   <v>       0.58385778       0.74973778       0.25026222 </v>
   <v>       0.69470667       0.86058667       0.30529333 </v>
   <v>       0.52725333       0.02803667       0.30529000 </v>
   <v>       0.69470333       0.02803667       0.47274000 </v>
   <v>       0.08307444       0.91719111       0.91693222 </v>
   <v>       0.08307444       0.74974111       0.74948222 </v>
   <v>       0.25052444       0.74973778       0.91692889 </v>
   <v>       0.36137333       0.86058667       0.97196000 </v>
   <v>       0.19392000       0.02803667       0.97195667 </v>
   <v>       0.36137000       0.02803667       0.13940667 </v>
   <v>       0.52751556       0.02830222       0.13915111 </v>
   <v>       0.52751889       0.86085222       0.97170444 </v>
   <v>       0.69496889       0.86084889       0.13915111 </v>
   <v>       0.80581778       0.97169778       0.19418222 </v>
   <v>       0.63836444       0.13914778       0.19417889 </v>
   <v>       0.80581444       0.13914778       0.36162889 </v>
   <v>       0.63862667       0.13941333       0.02804000 </v>
   <v>       0.63863000       0.97196333       0.86059333 </v>
   <v>       0.80608000       0.97196000       0.02804000 </v>
   <v>       0.91692556       0.08280889       0.08306778 </v>
   <v>       0.74947556       0.25025889       0.08306778 </v>
   <v>       0.91692556       0.25025889       0.25051778 </v>
  </varray>
 </structure>
 <calculation>
  <scstep>
   <time name="diag">   55.47   55.58</time>
   <time name="diis">  110.22  110.45</time>
   <time name="orth">   26.01   26.04</time>
   <time name="total">  191.80  192.18</time>
   <energy>
    <i name="alphaZ">  14146.51071896 </i>
    <i name="ewald">-127057.86411829 </i>
    <i name="hartreedc">  -8579.07655175 </i>
    <i name="XCdc">  -6127.38666465 </i>
    <i name="pawpsdc">  86524.61338861 </i>
    <i name="pawaedc"> -76346.65661974 </i>
    <i name="eentropy">      0.00720171 </i>
    <i name="bandstr">  24331.23706153 </i>
    <i name="atom"> 103951.18894314 </i>
    <i name="e_fr_energy">  10842.57335952 </i>
    <i name="e_wo_entrp">  10842.56615781 </i>
    <i name="e_0_energy">  10842.57095895 </i>
   </energy>
  </scstep>
  <scstep>
   <time name="diag">   55.07   55.12</time>
   <time name="diis">  109.86  110.00</time>
   <time name="orth">   25.38   25.42</time>
   <time name="total">  190.32  190.55</time>
   <energy>
    <i name="e_fr_energy">    878.23575900 </i>
    <i name="e_wo_entrp">    878.23593920 </i>
    <i name="e_0_energy">    878.23581907 </i>
   </energy>
  </scstep>
  <scstep>
   <time name="diag">   54.93   55.03</time>
   <time name="diis">  109.70  110.01</time>
   <time name="orth">   25.32   25.35</time>
   <time name="total">  189.95  190.39</time>
   <energy>
    <i name="e_fr_energy">   -948.87855451 </i>
    <i name="e_wo_entrp">   -948.87770813 </i>
    <i name="e_0_energy">   -948.87827238 </i>
   </energy>
  </scstep>
  <scstep>
   <time name="diag">   54.96   54.99</time>
   <time name="diis">  109.61  109.85</time>
   <time name="orth">   25.46   25.50</time>
   <time name="total">  190.04  190.35</time>
   <energy>
    <i name="e_fr_energy">  -1594.68876059 </i>
    <i name="e_wo_entrp">  -1594.69630703 </i>
    <i name="e_0_energy">  -1594.69127607 </i>
   </energy>
  </scstep>
  <scstep>
   <time name="diag">   55.05   55.12</time>
   <time name="diis">  110.11  110.36</time>
   <time name="orth">   25.73   25.75</time>
   <time name="total">  190.89  191.25</time>
   <energy>
    <i name="e_fr_energy">  -1821.74270640 </i>
    <i name="e_wo_entrp">  -1821.74203706 </i>
    <i name="e_0_energy">  -1821.74248328 </i>
   </energy>
  </scstep>
  <scstep>
   <time name="diag">   55.11   55.21</time>
   <time name="diis">  110.01  110.28</time>
   <time name="orth">   25.27   25.30</time>
   <time name="total">  190.40  190.80</time>
   <energy>
    <i name="e_fr_energy">  -1939.38819535 </i>
    <i name="e_wo_entrp">  -1939.38706669 </i>
    <i name="e_0_energy">  -1939.38781913 </i>
   </energy>
  </scstep>
  <scstep>
   <time name="diag">   54.87   54.90</time>
   <time name="diis">  109.91  110.20</time>
   <time name="orth">   25.39   25.42</time>
   <time name="total">  190.18  190.53</time>
   <energy>
    <i name="e_fr_energy">  -2003.52443881 </i>
    <i name="e_wo_entrp">  -2003.52700442 </i>
    <i name="e_0_energy">  -2003.52529401 </i>
   </energy>
  </scstep>
  <scstep>
   <time name="diag">   55.03   55.16</time>
   <time name="diis">  109.85  110.05</time>
   <time name="orth">   25.34   25.38</time>
   <time name="total">  190.22  190.60</time>
   <energy>
    <i name="e_fr_energy">  -2043.39004458 </i>
    <i name="e_wo_entrp">  -2043.40021656 </i>
    <i name="e_0_energy">  -2043.39343524 </i>
   </energy>
  </scstep>
  <scstep>
   <time name="diag">   54.94   55.00</time>
   <time name="diis">  326.92  327.64</time>
   <time name="orth">   25.43   25.46</time>
   <time name="total">  407.29  408.11</time>
   <energy>
    <i name="e_fr_energy">  -2111.16822073 </i>
    <i name="e_wo_entrp">  -2111.19933264 </i>
    <i name="e_0_energy">  -2111.17859137 </i>
   </energy>
  </scstep>
  <scstep>
   <time name="diag">   55.20   55.31</time>
   <time name="diis">  340.30  340.93</time>
   <time name="orth">   25.49   25.52</time>
   <time name="total">  421.00  421.77</time>
   <energy>
    <i name="e_fr_energy">  -2117.33256280 </i>
    <i name="e_wo_entrp">  -2117.37441337 </i>
    <i name="e_0_energy">  -2117.34651299 </i>
   </energy>
  </scstep>
  <scstep>
   <time name="diag">   55.00   55.12</time>
   <time name="diis">  330.69  331.45</time>
   <time name="orth">   25.53   25.58</time>
   <time name="total">  411.23  412.17</time>
   <energy>
    <i name="e_fr_energy">  -2118.67918598 </i>
    <i name="e_wo_entrp">  -2118.72280496 </i>
    <i name="e_0_energy">  -2118.69372564 </i>
   </energy>
  </scstep>
  <scstep>
   <time name="diag">   55.10   55.20</time>
   <time name="diis">  335.36  336.09</time>
   <time name="orth">   25.38   25.44</time>
   <time name="total">  424.19  425.09</time>
   <energy>
    <i name="e_fr_energy">  -2118.84017995 </i>
    <i name="e_wo_entrp">  -2118.88457645 </i>
    <i name="e_0_energy">  -2118.85497878 </i>
   </energy>
  </scstep>
  <scstep>
   <time name="diag">   54.91   55.01</time>
   <time name="diis">  234.40  234.87</time>
   <time name="orth">   25.83   25.87</time>
   <time name="total">  323.31  323.96</time>
   <energy>
    <i name="e_fr_energy">  -2000.20147551 </i>
    <i name="e_wo_entrp">  -2000.19727338 </i>
    <i name="e_0_energy">  -2000.20007480 </i>
   </energy>
  </scstep>
  <scstep>
   <time name="diag">   54.51   54.57</time>
   <time name="diis">  239.72  240.29</time>
   <time name="orth">   25.84   25.87</time>
   <time name="total">  328.19  328.90</time>
   <energy>
    <i name="e_fr_energy">  -1993.59490772 </i>
    <i name="e_wo_entrp">  -1993.61184575 </i>
    <i name="e_0_energy">  -1993.60055373 </i>
   </energy>
  </scstep>
  <scstep>
   <time name="diag">   54.19   54.24</time>
   <time name="diis">  259.39  260.07</time>
   <time name="orth">   26.01   26.04</time>
   <time name="total">  347.70  348.47</time>
   <energy>
    <i name="e_fr_energy">  -1981.51862182 </i>
    <i name="e_wo_entrp">  -1981.52812858 </i>
    <i name="e_0_energy">  -1981.52179074 </i>
   </energy>
  </scstep>
  <scstep>
   <time name="diag">   54.27   54.37</time>
   <time name="diis">  267.57  268.12</time>
   <time name="orth">   26.04   26.06</time>
   <time name="total">  356.23  356.90</time>
   <energy>
    <i name="e_fr_energy">  -1980.74329489 </i>
    <i name="e_wo_entrp">  -1980.76083061 </i>
    <i name="e_0_energy">  -1980.74914013 </i>
   </energy>
  </scstep>
  <scstep>
   <time name="diag">   54.12   54.22</time>
   <time name="diis">  326.67  327.24</time>
   <time name="orth">   25.79   25.85</time>
   <time name="total">  414.81  415.55</time>
   <energy>
    <i name="e_fr_energy">  -1980.68690574 </i>
    <i name="e_wo_entrp">  -1980.70559829 </i>
    <i name="e_0_energy">  -1980.69313659 </i>
   </energy>
  </scstep>
  <scstep>
   <time name="diag">   54.17   54.24</time>
   <time name="diis">  282.95  283.42</time>
   <time name="orth">   25.81   25.83</time>
   <time name="total">  371.08  371.65</time>
   <energy>
    <i name="e_fr_energy">  -1980.60657488 </i>
    <i name="e_wo_entrp">  -1980.62605108 </i>
    <i name="e_0_energy">  -1980.61306695 </i>
   </energy>
  </scstep>
  <scstep>
   <time name="diag">   54.77   54.83</time>
   <time name="diis">  279.14  279.74</time>
   <time name="orth">   25.66   25.73</time>
   <time name="total">  367.66  368.46</time>
   <energy>
    <i name="e_fr_energy">  -1980.58626301 </i>
    <i name="e_wo_entrp">  -1980.60590809 </i>
    <i name="e_0_energy">  -1980.59281137 </i>
   </energy>
  </scstep>
  <scstep>
   <time name="diag">   54.15   54.17</time>
   <time name="diis">  323.34  323.92</time>
   <time name="orth">   25.87   25.90</time>
   <time name="total">  411.76  412.39</time>
   <energy>
    <i name="e_fr_energy">  -1980.58667465 </i>
    <i name="e_wo_entrp">  -1980.60609347 </i>
    <i name="e_0_energy">  -1980.59314759 </i>
   </energy>
  </scstep>
  <scstep>
   <time name="diag">   54.22   54.32</time>
   <time name="diis">  266.22  266.80</time>
   <time name="orth">   25.81   25.86</time>
   <time name="total">  354.53  355.25</time>
   <energy>
    <i name="e_fr_energy">  -1980.58266568 </i>
    <i name="e_wo_entrp">  -1980.60167365 </i>
    <i name="e_0_energy">  -1980.58900167 </i>
   </energy>
  </scstep>
  <scstep>
   <time name="diag">   54.16   54.24</time>
   <time name="diis">  294.85  295.46</time>
   <time name="orth">   25.89   25.91</time>
   <time name="total">  383.07  383.79</time>
   <energy>
    <i name="e_fr_energy">  -1980.58211071 </i>
    <i name="e_wo_entrp">  -1980.60110428 </i>
    <i name="e_0_energy">  -1980.58844190 </i>
   </energy>
  </scstep>
  <scstep>
   <time name="diag">   53.97   54.02</time>
   <time name="diis">  298.11  298.75</time>
   <time name="orth">   25.91   25.91</time>
   <time name="total">  386.02  386.81</time>
   <energy>
    <i name="e_fr_energy">  -1980.58181745 </i>
    <i name="e_wo_entrp">  -1980.60086940 </i>
    <i name="e_0_energy">  -1980.58816810 </i>
   </energy>
  </scstep>
  <scstep>
   <time name="diag">   53.94   54.03</time>
   <time name="diis">  269.39  269.95</time>
   <time name="orth">   25.64   25.64</time>
   <time name="total">  357.28  358.02</time>
   <energy>
    <i name="e_fr_energy">  -1980.58150803 </i>
    <i name="e_wo_entrp">  -1980.60065683 </i>
    <i name="e_0_energy">  -1980.58789096 </i>
   </energy>
  </scstep>
  <scstep>
   <time name="diag">   53.75   53.78</time>
   <time name="diis">  271.82  272.41</time>
   <time name="orth">   25.84   25.85</time>
   <time name="total">  359.63  360.34</time>
   <energy>
    <i name="e_fr_energy">  -1980.58135094 </i>
    <i name="e_wo_entrp">  -1980.60058167 </i>
    <i name="e_0_energy">  -1980.58776118 </i>
   </energy>
  </scstep>
  <scstep>
   <time name="diag">   53.83   53.86</time>
   <time name="diis">  300.83  301.57</time>
   <time name="orth">   25.69   25.69</time>
   <time name="total">  380.42  381.21</time>
   <energy>
    <i name="alphaZ">  14146.51071896 </i>
    <i name="ewald">-127057.86411829 </i>
    <i name="hartreedc">  -6573.76740583 </i>
    <i name="XCdc">  -6140.18321793 </i>
    <i name="pawpsdc">  98794.83839376 </i>
    <i name="pawaedc"> -89164.40278649 </i>
    <i name="eentropy">      0.01923925 </i>
    <i name="bandstr">  10063.07892148 </i>
    <i name="atom"> 103951.18894314 </i>
    <i name="e_fr_energy">  -1980.58131195 </i>
    <i name="e_wo_entrp">  -1980.60055120 </i>
    <i name="e_0_energy">  -1980.58772503 </i>
   </energy>
  </scstep>
  <structure>
   <crystal>
    <varray name="basis" >
     <v>      -8.19811000      -4.73312000      12.97158000 </v>
     <v>      -0.00004000       9.46633000      12.97158000 </v>
     <v>      -8.19815000       4.73321000     -12.97158000 </v>
    </varray>
    <i name="volume">   3020.02524953 </i>
    <varray name="rec_basis" >
     <v>      -0.06098971      -0.03521278       0.02569720 </v>
     <v>       0.00000039       0.07042504       0.02569720 </v>
     <v>      -0.06098933       0.03521226      -0.02569720 </v>
    </varray>
   </crystal>
   <varray name="positions" >
    <v>       0.02777889       0.36111222       0.97222444 </v>
    <v>       0.97222111       0.30555444       0.69444222 </v>
    <v>       0.13889000       0.47222333       0.86111333 </v>
    <v>       0.08333222       0.41666556       0.58333111 </v>
    <v>       0.58333444       0.25000111       0.75000222 </v>
    <v>       0.52777667       0.19444333       0.47222000 </v>
    <v>       0.25000111       0.25000111       0.41666889 </v>
    <v>       0.19444333       0.19444333       0.13888667 </v>
    <v>       0.91639778       0.25272111       0.08360556 </v>
    <v>       0.86111000       0.19444333       0.80555333 </v>
    <v>       0.25000111       0.58333444       0.75000222 </v>
    <v>       0.19444333       0.52777667       0.47222000 </v>
    <v>       0.91666778       0.58333444       0.41666889 </v>
    <v>       0.86111000       0.52777667       0.13888667 </v>
    <v>       0.91666778       0.91666778       0.75000222 </v>
    <v>       0.86111000       0.86111000       0.47222000 </v>
    <v>       0.69444556       0.36111222       0.63889111 </v>
    <v>       0.63888778       0.30555444       0.36110889 </v>
    <v>       0.36111222       0.36111222       0.30555778 </v>
    <v>       0.30555444       0.30555444       0.02777556 </v>
    <v>       0.69444556       0.69444556       0.97222444 </v>
    <v>       0.63888778       0.63888778       0.69444222 </v>
    <v>       0.36111222       0.69444556       0.63889111 </v>
    <v>       0.30555444       0.63888778       0.36110889 </v>
    <v>       0.02777889       0.69444556       0.30555778 </v>
    <v>       0.97222111       0.63888778       0.02777556 </v>
    <v>       0.36111222       0.02777889       0.97222444 </v>
    <v>       0.30555444       0.97222111       0.69444222 </v>
    <v>       0.02777889       0.02777889       0.63889111 </v>
    <v>       0.97222111       0.97222111       0.36110889 </v>
    <v>       0.80555667       0.47222333       0.52778000 </v>
    <v>       0.74999889       0.41666556       0.24999778 </v>
    <v>       0.47222333       0.47222333       0.19444667 </v>
    <v>       0.41666556       0.41666556       0.91666444 </v>
    <v>       0.80555667       0.80555667       0.86111333 </v>
    <v>       0.74999889       0.74999889       0.58333111 </v>
    <v>       0.47222333       0.80555667       0.52778000 </v>
    <v>       0.41666556       0.74999889       0.24999778 </v>
    <v>       0.13889000       0.80555667       0.19444667 </v>
    <v>       0.08333222       0.74999889       0.91666444 </v>
    <v>       0.47222333       0.13889000       0.86111333 </v>
    <v>       0.41666556       0.08333222       0.58333111 </v>
    <v>       0.13889000       0.13889000       0.52778000 </v>
    <v>       0.08333222       0.08333222       0.24999778 </v>
    <v>       0.58333444       0.58333444       0.08333556 </v>
    <v>       0.52777667       0.52777667       0.80555333 </v>
    <v>       0.58333444       0.91666778       0.41666889 </v>
    <v>       0.52777667       0.86111000       0.13888667 </v>
    <v>       0.25000111       0.91666778       0.08333556 </v>
    <v>       0.19444333       0.86111000       0.80555333 </v>
    <v>       0.69444556       0.02777889       0.30555778 </v>
    <v>       0.63888778       0.97222111       0.02777556 </v>
    <v>       0.80555667       0.13889000       0.19444667 </v>
    <v>       0.74999889       0.08333222       0.91666444 </v>
    <v>       0.86084889       0.36163556       0.80581778 </v>
    <v>       0.86085222       0.19418556       0.63837111 </v>
    <v>       0.02830222       0.19418222       0.80581778 </v>
    <v>       0.13915111       0.30503111       0.86084889 </v>
    <v>       0.97169778       0.47248111       0.86084556 </v>
    <v>       0.13914778       0.47248111       0.02829556 </v>
    <v>       0.97196000       0.47274667       0.69470667 </v>
    <v>       0.97196333       0.30529667       0.52726000 </v>
    <v>       0.13941333       0.30529333       0.69470667 </v>
    <v>       0.25026222       0.41614222       0.74973778 </v>
    <v>       0.08280889       0.58359222       0.74973444 </v>
    <v>       0.25025889       0.58359222       0.91718444 </v>
    <v>       0.41640778       0.25052444       0.58359889 </v>
    <v>       0.41640778       0.08307444       0.41614889 </v>
    <v>       0.58385778       0.08307444       0.58359889 </v>
    <v>       0.69470667       0.19392000       0.63862667 </v>
    <v>       0.52725333       0.36137333       0.63862667 </v>
    <v>       0.69470333       0.36137000       0.80607333 </v>
    <v>       0.08307111       0.25052444       0.25026222 </v>
    <v>       0.08307444       0.08307444       0.08281556 </v>
    <v>       0.25052444       0.08307111       0.25026222 </v>
    <v>       0.36137000       0.19392000       0.30529000 </v>
    <v>       0.19392000       0.36137000       0.30529000 </v>
    <v>       0.36137000       0.36137000       0.47274000 </v>
    <v>       0.74974111       0.25052444       0.91693222 </v>
    <v>       0.74974111       0.08307444       0.74948222 </v>
    <v>       0.91719111       0.08307111       0.91692889 </v>
    <v>       0.02804000       0.19392000       0.97196000 </v>
    <v>       0.86058667       0.36137000       0.97195667 </v>
    <v>       0.02803667       0.36137000       0.13940667 </v>
    <v>       0.08307111       0.58385778       0.58359556 </v>
    <v>       0.08307444       0.41640778       0.41614889 </v>
    <v>       0.25052444       0.41640444       0.58359556 </v>
    <v>       0.36137333       0.52725333       0.63862667 </v>
    <v>       0.19392000       0.69470333       0.63862333 </v>
    <v>       0.36137000       0.69470333       0.80607333 </v>
    <v>       0.74974111       0.58385778       0.25026556 </v>
    <v>       0.74974111       0.41640778       0.08281556 </v>
    <v>       0.91719111       0.41640444       0.25026222 </v>
    <v>       0.02804000       0.52725333       0.30529333 </v>
    <v>       0.86058667       0.69470333       0.30529000 </v>
    <v>       0.02803667       0.69470333       0.47274000 </v>
    <v>       0.74973778       0.91719111       0.58359556 </v>
    <v>       0.74974111       0.74974111       0.41614889 </v>
    <v>       0.91719111       0.74973778       0.58359556 </v>
    <v>       0.02803667       0.86058667       0.63862333 </v>
    <v>       0.86058667       0.02803667       0.63862333 </v>
    <v>       0.02803667       0.02803667       0.80607333 </v>
    <v>       0.52751556       0.36163556       0.47248444 </v>
    <v>       0.52751889       0.19418556       0.30503778 </v>
    <v>       0.69496889       0.19418556       0.47248778 </v>
    <v>       0.80581778       0.30503111       0.52751556 </v>
    <v>       0.63836444       0.47248111       0.52751222 </v>
    <v>       0.80581444       0.47248111       0.69496222 </v>
    <v>       0.19418222       0.36163556       0.13915111 </v>
    <v>       0.19418556       0.19418556       0.97170444 </v>
    <v>       0.36163556       0.19418556       0.13915444 </v>
    <v>       0.47248111       0.30503111       0.19417889 </v>
    <v>       0.30503111       0.47248444       0.19418222 </v>
    <v>       0.47248111       0.47248111       0.36162889 </v>
    <v>       0.52751556       0.69496889       0.80581778 </v>
    <v>       0.52751889       0.52751889       0.63837111 </v>
    <v>       0.69496889       0.52751889       0.80582111 </v>
    <v>       0.80581444       0.63836444       0.86084556 </v>
    <v>       0.63836444       0.80581778       0.86084889 </v>
    <v>       0.80581444       0.80581444       0.02829556 </v>
    <v>       0.19418222       0.69496889       0.47248444 </v>
    <v>       0.19418556       0.52751889       0.30503778 </v>
    <v>       0.36163556       0.52751556       0.47248444 </v>
    <v>       0.47248444       0.63836444       0.52751556 </v>
    <v>       0.30503111       0.80581444       0.52751222 </v>
    <v>       0.47248111       0.80581444       0.69496222 </v>
    <v>       0.86085222       0.69496889       0.13915444 </v>
    <v>       0.86085222       0.52751889       0.97170444 </v>
    <v>       0.02830222       0.52751889       0.13915444 </v>
    <v>       0.13914778       0.63836444       0.19417889 </v>
    <v>       0.97169778       0.80581444       0.19417889 </v>
    <v>       0.13914778       0.80581444       0.36162889 </v>
    <v>       0.19418222       0.02830222       0.80581778 </v>
    <v>       0.19418556       0.86085222       0.63837111 </v>
    <v>       0.36163556       0.86085222       0.80582111 </v>
    <v>       0.47248444       0.97169778       0.86084889 </v>
    <v>       0.30503111       0.13914778       0.86084556 </v>
    <v>       0.47248111       0.13914778       0.02829556 </v>
    <v>       0.86084889       0.02830222       0.47248444 </v>
    <v>       0.86085222       0.86085222       0.30503778 </v>
    <v>       0.02830222       0.86084889       0.47248444 </v>
    <v>       0.13914778       0.97169778       0.52751222 </v>
    <v>       0.97169778       0.13914778       0.52751222 </v>
    <v>       0.13914778       0.13914778       0.69496222 </v>
    <v>       0.63862667       0.47274667       0.36137333 </v>
    <v>       0.63863000       0.30529667       0.19392667 </v>
    <v>       0.80608000       0.30529667       0.36137667 </v>
    <v>       0.91692889       0.41614222       0.41640444 </v>
    <v>       0.74947556       0.58359556       0.41640444 </v>
    <v>       0.91692556       0.58359222       0.58385111 </v>
    <v>       0.30529333       0.47274667       0.02804000 </v>
    <v>       0.30529667       0.30529667       0.86059333 </v>
    <v>       0.47274667       0.30529333       0.02804000 </v>
    <v>       0.58359222       0.41614222       0.08306778 </v>
    <v>       0.41614222       0.58359222       0.08306778 </v>
    <v>       0.58359222       0.58359222       0.25051778 </v>
    <v>       0.63863000       0.80608000       0.69471000 </v>
    <v>       0.63863000       0.63863000       0.52726000 </v>
    <v>       0.80608000       0.63863000       0.69471000 </v>
    <v>       0.91692556       0.74947556       0.74973444 </v>
    <v>       0.74947556       0.91692889       0.74973778 </v>
    <v>       0.91692556       0.91692556       0.91718444 </v>
    <v>       0.30529333       0.80608000       0.36137333 </v>
    <v>       0.30529667       0.63863000       0.19392667 </v>
    <v>       0.47274667       0.63862667       0.36137333 </v>
    <v>       0.58359556       0.74947556       0.41640444 </v>
    <v>       0.41614222       0.91692556       0.41640111 </v>
    <v>       0.58359222       0.91692556       0.58385111 </v>
    <v>       0.97196000       0.80608000       0.02804000 </v>
    <v>       0.97196333       0.63863000       0.86059333 </v>
    <v>       0.13941333       0.63863000       0.02804333 </v>
    <v>       0.25025889       0.74947556       0.08306778 </v>
    <v>       0.08280889       0.91692556       0.08306778 </v>
    <v>       0.25025889       0.91692556       0.25051778 </v>
    <v>       0.30529667       0.13941333       0.69471000 </v>
    <v>       0.30529667       0.97196333       0.52726000 </v>
    <v>       0.47274667       0.97196333       0.69471000 </v>
    <v>       0.58359222       0.08280889       0.74973444 </v>
    <v>       0.41614222       0.25025889       0.74973444 </v>
    <v>       0.58359222       0.25025889       0.91718444 </v>
    <v>       0.97196000       0.13941333       0.36137333 </v>
    <v>       0.97196333       0.97196333       0.19392667 </v>
    <v>       0.13941333       0.97196000       0.36137333 </v>
    <v>       0.25025889       0.08280889       0.41640111 </v>
    <v>       0.08280889       0.25025889       0.41640111 </v>
    <v>       0.25025889       0.25025889       0.58385111 </v>
    <v>       0.41640778       0.58385778       0.91693222 </v>
    <v>       0.41640778       0.41640778       0.74948222 </v>
    <v>       0.58385778       0.41640444       0.91692889 </v>
    <v>       0.69470667       0.52725333       0.97196000 </v>
    <v>       0.52725333       0.69470333       0.97195667 </v>
    <v>       0.69470333       0.69470333       0.13940667 </v>
    <v>       0.41640444       0.91719111       0.25026222 </v>
    <v>       0.41640778       0.74974111       0.08281556 </v>
    <v>       0.58385778       0.74973778       0.25026222 </v>
    <v>       0.69470667       0.86058667       0.30529333 </v>
    <v>       0.52725333       0.02803667       0.30529000 </v>
    <v>       0.69470333       0.02803667       0.47274000 </v>
    <v>       0.08307444       0.91719111       0.91693222 </v>
    <v>       0.08307444       0.74974111       0.74948222 </v>
    <v>       0.25052444       0.74973778       0.91692889 </v>
    <v>       0.36137333       0.86058667       0.97196000 </v>
    <v>       0.19392000       0.02803667       0.97195667 </v>
    <v>       0.36137000       0.02803667       0.13940667 </v>
    <v>       0.52751556       0.02830222       0.13915111 </v>
    <v>       0.52751889       0.86085222       0.97170444 </v>
    <v>       0.69496889       0.86084889       0.13915111 </v>
    <v>       0.80581778       0.97169778       0.19418222 </v>
    <v>       0.63836444       0.13914778       0.19417889 </v>
    <v>       0.80581444       0.13914778       0.36162889 </v>
    <v>       0.63862667       0.13941333       0.02804000 </v>
    <v>       0.63863000       0.97196333       0.86059333 </v>
    <v>       0.80608000       0.97196000       0.02804000 </v>
    <v>       0.91692556       0.08280889       0.08306778 </v>
    <v>       0.74947556       0.25025889       0.08306778 </v>
    <v>       0.91692556       0.25025889       0.25051778 </v>
   </varray>
  </structure>
  <varray name="forces" >
   <v>       0.00072389       0.00110094       0.01511079 </v>
   <v>      -0.00158259      -0.00238923       0.00836117 </v>
   <v>       0.00074553      -0.00055646      -0.00325879 </v>
   <v>      -0.00093829       0.00110096       0.00210746 </v>
   <v>       0.00301529      -0.00033836      -0.00148776 </v>
   <v>      -0.00059949      -0.00035448       0.00163845 </v>
   <v>      -0.00192029      -0.00043895      -0.00149995 </v>
   <v>      -0.00453124      -0.00817340       0.00039896 </v>
   <v>       0.00060428      -0.45020452      -0.45967119 </v>
   <v>       0.00344550      -0.00810573       0.00038162 </v>
   <v>       0.00064082      -0.00047210      -0.00570227 </v>
   <v>      -0.00004482       0.00052189       0.00181584 </v>
   <v>      -0.00497332       0.01157591      -0.00168297 </v>
   <v>      -0.00059545       0.02740780       0.02129214 </v>
   <v>      -0.00804612       0.01102142      -0.00130042 </v>
   <v>      -0.00061390       0.00072603       0.00233366 </v>
   <v>      -0.00009126      -0.00113411      -0.00357585 </v>
   <v>      -0.00055644      -0.00094111       0.00819923 </v>
   <v>       0.00135850      -0.00117816      -0.00356972 </v>
   <v>       0.00045527      -0.00238573       0.00834249 </v>
   <v>      -0.00063034      -0.00132459      -0.00292927 </v>
   <v>      -0.00024006       0.00068021       0.00201619 </v>
   <v>       0.00069188      -0.00002113      -0.00239763 </v>
   <v>      -0.00086445       0.00075096       0.00201223 </v>
   <v>       0.00176511      -0.00128746      -0.00293792 </v>
   <v>      -0.00040366       0.00265554       0.01016580 </v>
   <v>      -0.00106417      -0.00123912      -0.00284267 </v>
   <v>      -0.00050719       0.00253378       0.00217789 </v>
   <v>       0.00245183      -0.00135700      -0.00281593 </v>
   <v>       0.00272996      -0.00153394       0.00990041 </v>
   <v>       0.00035073      -0.00211084      -0.00231309 </v>
   <v>      -0.00060795       0.00004355      -0.00598344 </v>
   <v>       0.00098641      -0.00220785      -0.00230425 </v>
   <v>      -0.00012843       0.00101771       0.00210387 </v>
   <v>       0.00253355      -0.00178719      -0.00310266 </v>
   <v>      -0.00006756       0.00040887       0.00204267 </v>
   <v>       0.00060596       0.00065226      -0.00184260 </v>
   <v>      -0.00102059       0.00032474       0.00207182 </v>
   <v>      -0.00130824      -0.00184433      -0.00306550 </v>
   <v>      -0.00036572       0.00146087       0.00173143 </v>
   <v>       0.00003707      -0.00070029      -0.00400395 </v>
   <v>      -0.00041552       0.00015908       0.00190897 </v>
   <v>       0.00116786      -0.00079642      -0.00398439 </v>
   <v>       0.01901615       0.00441346       0.01381637 </v>
   <v>       0.00613383       0.01154981      -0.00169425 </v>
   <v>      -0.00119095       0.00057530       0.00182301 </v>
   <v>       0.00065526       0.00067379      -0.00562288 </v>
   <v>      -0.00047675       0.00077853       0.00233710 </v>
   <v>       0.00934087       0.01110675      -0.00129433 </v>
   <v>      -0.00049224       0.00110548       0.00311807 </v>
   <v>       0.00066591      -0.00072186      -0.00296617 </v>
   <v>      -0.00382021      -0.00141397       0.00986123 </v>
   <v>       0.00069702       0.00183115       0.01486211 </v>
   <v>      -0.01985036       0.00453359       0.01382895 </v>
   <v>       0.00284612      -0.00631126      -0.00309778 </v>
   <v>      -0.00404373       0.00217809      -0.00029251 </v>
   <v>       0.00245426       0.00245282       0.00007158 </v>
   <v>       0.00016875       0.00737434       0.00132227 </v>
   <v>      -0.00508265      -0.00289704       0.00076827 </v>
   <v>       0.00397682      -0.00272513       0.00075130 </v>
   <v>       0.00025005      -0.00700264      -0.00151230 </v>
   <v>      -0.00619507       0.00378142      -0.00101139 </v>
   <v>       0.00484722       0.00349881      -0.00166489 </v>
   <v>       0.00018816       0.00597025       0.00165541 </v>
   <v>      -0.00563842      -0.00353225       0.00199974 </v>
   <v>       0.00440575      -0.00351627       0.00205677 </v>
   <v>       0.00082463      -0.00834346      -0.00202822 </v>
   <v>      -0.00519844       0.00237279      -0.00244554 </v>
   <v>       0.00671066       0.00226402      -0.00231423 </v>
   <v>      -0.00041937       0.00606116       0.00130084 </v>
   <v>      -0.00687803      -0.00385575       0.00222434 </v>
   <v>       0.00610619       0.00082946       0.00563301 </v>
   <v>       0.01826458      -0.00499598       0.00110665 </v>
   <v>      -0.00199224       0.03482454       0.00162661 </v>
   <v>       0.00615942       0.00960015      -0.00269572 </v>
   <v>      -0.00045027       0.00599045       0.00117698 </v>
   <v>      -0.00753953       0.00088950       0.00561698 </v>
   <v>       0.00588029      -0.00329483       0.00199792 </v>
   <v>      -0.01744256      -0.00507180       0.00114608 </v>
   <v>      -0.00506861       0.00898433      -0.00271157 </v>
   <v>       0.00317263       0.03553448       0.00177905 </v>
   <v>       0.00013236       0.00658836      -0.00046119 </v>
   <v>       0.07335560       0.04577071       0.09592460 </v>
   <v>      -0.07467358       0.04583396       0.09591786 </v>
   <v>       0.00143921      -0.00788952      -0.00226744 </v>
   <v>      -0.00534203       0.01048612      -0.00228567 </v>
   <v>       0.00583775       0.00304813      -0.00133906 </v>
   <v>       0.00006622       0.00662845       0.00223986 </v>
   <v>      -0.00594636      -0.00287058       0.00270470 </v>
   <v>       0.00467376      -0.00285877       0.00270416 </v>
   <v>       0.00074675       0.00145591      -0.00345167 </v>
   <v>       0.03260852       0.04172719       0.00153691 </v>
   <v>      -0.03161181       0.04247917       0.00157427 </v>
   <v>      -0.00532833       0.00865940       0.00129592 </v>
   <v>      -0.00590279      -0.00438159       0.00028645 </v>
   <v>       0.00566369      -0.00320968       0.00157049 </v>
   <v>       0.00135475      -0.00789743      -0.00166123 </v>
   <v>      -0.00475558       0.00008926      -0.00280080 </v>
   <v>       0.00135569       0.01026966      -0.00222950 </v>
   <v>      -0.00147204       0.00559199       0.00249034 </v>
   <v>      -0.00630361      -0.00002775       0.00283635 </v>
   <v>       0.00033568      -0.00125722      -0.00104944 </v>
   <v>      -0.00001599      -0.00701767      -0.00106982 </v>
   <v>      -0.00467200       0.00311604      -0.00110951 </v>
   <v>       0.00616281       0.00321439      -0.00111835 </v>
   <v>       0.00024555       0.00617087       0.00095588 </v>
   <v>      -0.00678646      -0.00300862       0.00307285 </v>
   <v>       0.00368918      -0.00147454       0.00006064 </v>
   <v>      -0.00282246      -0.00623093      -0.00303721 </v>
   <v>      -0.00147540       0.00159416       0.00006003 </v>
   <v>       0.00551442       0.00222757      -0.00027757 </v>
   <v>      -0.00106968       0.00620260       0.00101513 </v>
   <v>      -0.00454933      -0.00236183       0.00008617 </v>
   <v>       0.00544567      -0.00315381       0.00306338 </v>
   <v>       0.00021397      -0.00616654      -0.00148432 </v>
   <v>      -0.00518391       0.00275430      -0.00168541 </v>
   <v>       0.00376739       0.00132259      -0.00064951 </v>
   <v>      -0.00283137       0.00542330      -0.00015653 </v>
   <v>      -0.00485658      -0.00315065       0.00248975 </v>
   <v>       0.00611896      -0.00476919      -0.00111105 </v>
   <v>      -0.00030705      -0.00625432      -0.00154298 </v>
   <v>      -0.00232577       0.00136329      -0.00063752 </v>
   <v>       0.00605648       0.00352459      -0.00179732 </v>
   <v>       0.00008760       0.00750272       0.00141503 </v>
   <v>      -0.00512846      -0.00377272       0.00156497 </v>
   <v>       0.00363769      -0.00369698       0.00164329 </v>
   <v>       0.00092611      -0.00719211      -0.00330957 </v>
   <v>      -0.00113096       0.00436271       0.00336831 </v>
   <v>       0.00259580       0.00433794       0.00319699 </v>
   <v>       0.00116454       0.00534052      -0.00015158 </v>
   <v>      -0.00742010      -0.00448186      -0.00104193 </v>
   <v>       0.00397395      -0.00250789       0.00255073 </v>
   <v>       0.00010719      -0.00502066      -0.00094206 </v>
   <v>      -0.00440422       0.00256171      -0.00281045 </v>
   <v>       0.00592041       0.00265759      -0.00281758 </v>
   <v>       0.00122340       0.00679782       0.00225227 </v>
   <v>      -0.00736599      -0.00320192       0.00094166 </v>
   <v>       0.00639639      -0.00067072       0.00001613 </v>
   <v>      -0.00013767      -0.00750783      -0.00131485 </v>
   <v>      -0.00508239       0.00264850      -0.00179984 </v>
   <v>       0.00535509       0.00426479      -0.00058723 </v>
   <v>      -0.00201722       0.00676462       0.00227961 </v>
   <v>      -0.00764280      -0.00070703       0.00008523 </v>
   <v>       0.00600762      -0.00336308       0.00114689 </v>
   <v>      -0.00002595      -0.00789439       0.00063935 </v>
   <v>      -0.00636715       0.00345125      -0.00408960 </v>
   <v>       0.00778362       0.00359199      -0.00409154 </v>
   <v>       0.00083939       0.00963866       0.00257536 </v>
   <v>      -0.00788752      -0.00314368       0.00269148 </v>
   <v>       0.00548903      -0.00297481       0.00131278 </v>
   <v>      -0.00027731      -0.00689484      -0.00158293 </v>
   <v>      -0.00380225       0.00263615      -0.00166532 </v>
   <v>       0.00726039       0.00447552      -0.00103325 </v>
   <v>      -0.00154349       0.00961916       0.00255501 </v>
   <v>      -0.00688044      -0.00298883       0.00132590 </v>
   <v>       0.00690555      -0.00261254       0.00283411 </v>
   <v>       0.00052400      -0.00613299      -0.00199785 </v>
   <v>      -0.00489046       0.00249655      -0.00235419 </v>
   <v>       0.00559347       0.00357782      -0.00117110 </v>
   <v>      -0.00166897       0.00539258       0.00197898 </v>
   <v>      -0.00453365      -0.00348530      -0.00015993 </v>
   <v>       0.00504844       0.00190015       0.00406842 </v>
   <v>       0.00016347      -0.00621192      -0.00196409 </v>
   <v>      -0.00393761       0.00369308      -0.00106130 </v>
   <v>       0.00565962       0.00315911      -0.00224621 </v>
   <v>       0.00007544       0.00731546       0.00335840 </v>
   <v>      -0.00639598      -0.00248900       0.00318496 </v>
   <v>       0.00508612      -0.00238175       0.00309664 </v>
   <v>       0.00012860      -0.00878763      -0.00005344 </v>
   <v>      -0.00485389       0.00227557      -0.00108499 </v>
   <v>       0.00656620       0.00228382      -0.00107817 </v>
   <v>       0.00012157       0.00539289       0.00189746 </v>
   <v>      -0.00638100       0.00208189       0.00394161 </v>
   <v>       0.00371028      -0.00285804      -0.00025647 </v>
   <v>       0.00094291      -0.00652124      -0.00112962 </v>
   <v>      -0.00452878       0.00252729      -0.00201552 </v>
   <v>       0.00604987       0.00240811      -0.00210418 </v>
   <v>       0.00234546       0.00655449       0.00162225 </v>
   <v>      -0.00739995      -0.00266408       0.00210229 </v>
   <v>       0.00526211      -0.00407605       0.00013528 </v>
   <v>       0.00118470      -0.01004069       0.00284966 </v>
   <v>      -0.00278043       0.00656221       0.00056456 </v>
   <v>       0.00556618       0.00367113      -0.00205770 </v>
   <v>      -0.00389597       0.00649712       0.00158404 </v>
   <v>      -0.00655467      -0.00392936       0.00002001 </v>
   <v>       0.00592612      -0.00300753       0.00201842 </v>
   <v>      -0.00067174      -0.00788013      -0.00221923 </v>
   <v>      -0.00489224       0.00238066      -0.00139476 </v>
   <v>       0.00623989       0.01115144      -0.00221182 </v>
   <v>       0.00531914       0.00872164       0.00134403 </v>
   <v>      -0.00705045      -0.00315990       0.00164156 </v>
   <v>       0.00436850      -0.00457745       0.00035290 </v>
   <v>      -0.00146247      -0.00796579      -0.00161742 </v>
   <v>      -0.00018114       0.00946025      -0.00228486 </v>
   <v>       0.00558591       0.00079545      -0.00285599 </v>
[...]
       <r>     8.3495   173.8392  1646.2579 </r>
       <r>     8.3983   185.0867  1655.2992 </r>
       <r>     8.4472   203.0753  1665.2193 </r>
       <r>     8.4960   197.5340  1674.8687 </r>
       <r>     8.5449   170.5717  1683.2010 </r>
       <r>     8.5937   136.1759  1689.8531 </r>
       <r>     8.6426   117.8363  1695.6093 </r>
       <r>     8.6914   131.2457  1702.0206 </r>
       <r>     8.7403   165.6983  1710.1148 </r>
       <r>     8.7891   202.2439  1719.9943 </r>
       <r>     8.8380   227.8942  1731.1267 </r>
       <r>     8.8868   233.2560  1742.5211 </r>
       <r>     8.9357   209.3616  1752.7483 </r>
       <r>     8.9845   166.4564  1760.8796 </r>
       <r>     9.0334   137.9805  1767.6198 </r>
       <r>     9.0822   137.6946  1774.3461 </r>
       <r>     9.1311   150.2458  1781.6855 </r>
       <r>     9.1799   166.3341  1789.8108 </r>
       <r>     9.2288   184.6105  1798.8289 </r>
       <r>     9.2776   196.8616  1808.4454 </r>
       <r>     9.3265   204.1999  1818.4205 </r>
       <r>     9.3753   224.4495  1829.3847 </r>
       <r>     9.4242   249.9037  1841.5923 </r>
       <r>     9.4730   248.2766  1853.7204 </r>
       <r>     9.5219   223.0801  1864.6177 </r>
       <r>     9.5707   206.8083  1874.7202 </r>
       <r>     9.6196   220.7274  1885.5025 </r>
       <r>     9.6684   256.1156  1898.0136 </r>
       <r>     9.7173   285.1631  1911.9436 </r>
       <r>     9.7661   299.1763  1926.5582 </r>
       <r>     9.8150   307.1800  1941.5637 </r>
       <r>     9.8638   308.8387  1956.6502 </r>
       <r>     9.9127   293.8744  1971.0058 </r>
       <r>     9.9615   279.4719  1984.6578 </r>
       <r>    10.0104   306.8253  1999.6460 </r>
       <r>    10.0592   371.3062  2017.7840 </r>
       <r>    10.1081   414.8763  2038.0505 </r>
       <r>    10.1569   412.3408  2058.1930 </r>
       <r>    10.2058   397.5421  2077.6127 </r>
       <r>    10.2546   393.8292  2096.8509 </r>
       <r>    10.3035   383.5109  2115.5852 </r>
       <r>    10.3523   349.3905  2132.6527 </r>
       <r>    10.4012   299.8211  2147.2987 </r>
       <r>    10.4500   243.0947  2159.1737 </r>
       <r>    10.4989   175.4500  2167.7443 </r>
       <r>    10.5477   101.2371  2172.6897 </r>
       <r>    10.5966    40.0696  2174.6470 </r>
       <r>    10.6454     7.2319  2175.0003 </r>
       <r>    10.6943    -1.9634  2174.9044 </r>
       <r>    10.7431    -1.7257  2174.8201 </r>
       <r>    10.7919    -0.5678  2174.7924 </r>
       <r>    10.8408    -0.1500  2174.7850 </r>
       <r>    10.8896    -0.0542  2174.7824 </r>
       <r>    10.9385    -0.0188  2174.7815 </r>
       <r>    10.9873    -0.0042  2174.7813 </r>
       <r>    11.0362    -0.0005  2174.7813 </r>
       <r>    11.0850    -0.0000  2174.7813 </r>
       <r>    11.1339    -0.0000  2174.7813 </r>
       <r>    11.1827    -0.0000  2174.7813 </r>
       <r>    11.2316    -0.0000  2174.7813 </r>
       <r>    11.2804    -0.0000  2174.7812 </r>
       <r>    11.3293    -0.0000  2174.7812 </r>
       <r>    11.3781    -0.0000  2174.7812 </r>
       <r>    11.4270    -0.0000  2174.7812 </r>
       <r>    11.4758    -0.0000  2174.7812 </r>
       <r>    11.5247    -0.0000  2174.7812 </r>
       <r>    11.5735    -0.0000  2174.7812 </r>
       <r>    11.6224    -0.0000  2174.7812 </r>
       <r>    11.6712    -0.0000  2174.7812 </r>
       <r>    11.7201    -0.0000  2174.7812 </r>
       <r>    11.7689    -0.0000  2174.7812 </r>
       <r>    11.8178    -0.0000  2174.7812 </r>
       <r>    11.8666    -0.0000  2174.7812 </r>
       <r>    11.9155    -0.0001  2174.7812 </r>
       <r>    11.9643    -0.0008  2174.7812 </r>
       <r>    12.0132    -0.0058  2174.7809 </r>
       <r>    12.0620    -0.0224  2174.7798 </r>
       <r>    12.1109    -0.0302  2174.7784 </r>
       <r>    12.1597     0.0680  2174.7817 </r>
       <r>    12.2086     0.3279  2174.7977 </r>
       <r>    12.2574     0.6333  2174.8286 </r>
       <r>    12.3063     1.0097  2174.8780 </r>
       <r>    12.3551     1.6401  2174.9581 </r>
       <r>    12.4040     2.3198  2175.0714 </r>
       <r>    12.4528     2.6034  2175.1986 </r>
       <r>    12.5017     2.3822  2175.3149 </r>
       <r>    12.5505     1.9495  2175.4102 </r>
       <r>    12.5994     1.6647  2175.4915 </r>
       <r>    12.6482     1.4762  2175.5636 </r>
       <r>    12.6971     1.1251  2175.6186 </r>
       <r>    12.7459     0.9204  2175.6635 </r>
       <r>    12.7948     1.0321  2175.7139 </r>
       <r>    12.8436     1.0625  2175.7658 </r>
       <r>    12.8925     1.1164  2175.8204 </r>
       <r>    12.9413     1.4556  2175.8915 </r>
       <r>    12.9902     1.4623  2175.9629 </r>
       <r>    13.0390     0.7741  2176.0007 </r>
       <r>    13.0879     0.1122  2176.0062 </r>
       <r>    13.1367    -0.0755  2176.0025 </r>
       <r>    13.1856    -0.0414  2176.0005 </r>
       <r>    13.2344    -0.0090  2176.0001 </r>
       <r>    13.2833    -0.0010  2176.0000 </r>
       <r>    13.3321    -0.0001  2176.0000 </r>
       <r>    13.3810    -0.0000  2176.0000 </r>
       <r>    13.4298    -0.0000  2176.0000 </r>
       <r>    13.4787    -0.0000  2176.0000 </r>
       <r>    13.5275    -0.0000  2176.0000 </r>
       <r>    13.5764    -0.0000  2176.0000 </r>
       <r>    13.6252    -0.0000  2176.0000 </r>
       <r>    13.6741     0.0000  2176.0000 </r>
       <r>    13.7229     0.0000  2176.0000 </r>
       <r>    13.7718     0.0000  2176.0000 </r>
       <r>    13.8206     0.0000  2176.0000 </r>
       <r>    13.8695     0.0000  2176.0000 </r>
       <r>    13.9183     0.0000  2176.0000 </r>
       <r>    13.9672     0.0000  2176.0000 </r>
      </set>
     </set>
    </array>
   </total>
  </dos>
 </calculation>
 <structure name="finalpos" >
  <crystal>
   <varray name="basis" >
    <v>      -8.19811000      -4.73312000      12.97158000 </v>
    <v>      -0.00004000       9.46633000      12.97158000 </v>
    <v>      -8.19815000       4.73321000     -12.97158000 </v>
   </varray>
   <i name="volume">   3020.02524953 </i>
   <varray name="rec_basis" >
    <v>      -0.06098971      -0.03521278       0.02569720 </v>
    <v>       0.00000039       0.07042504       0.02569720 </v>
    <v>      -0.06098933       0.03521226      -0.02569720 </v>
   </varray>
  </crystal>
  <varray name="positions" >
   <v>       0.02777889       0.36111222       0.97222444 </v>
   <v>       0.97222111       0.30555444       0.69444222 </v>
   <v>       0.13889000       0.47222333       0.86111333 </v>
   <v>       0.08333222       0.41666556       0.58333111 </v>
   <v>       0.58333444       0.25000111       0.75000222 </v>
   <v>       0.52777667       0.19444333       0.47222000 </v>
   <v>       0.25000111       0.25000111       0.41666889 </v>
   <v>       0.19444333       0.19444333       0.13888667 </v>
   <v>       0.91639778       0.25272111       0.08360556 </v>
   <v>       0.86111000       0.19444333       0.80555333 </v>
   <v>       0.25000111       0.58333444       0.75000222 </v>
   <v>       0.19444333       0.52777667       0.47222000 </v>
   <v>       0.91666778       0.58333444       0.41666889 </v>
   <v>       0.86111000       0.52777667       0.13888667 </v>
   <v>       0.91666778       0.91666778       0.75000222 </v>
   <v>       0.86111000       0.86111000       0.47222000 </v>
   <v>       0.69444556       0.36111222       0.63889111 </v>
   <v>       0.63888778       0.30555444       0.36110889 </v>
   <v>       0.36111222       0.36111222       0.30555778 </v>
   <v>       0.30555444       0.30555444       0.02777556 </v>
   <v>       0.69444556       0.69444556       0.97222444 </v>
   <v>       0.63888778       0.63888778       0.69444222 </v>
   <v>       0.36111222       0.69444556       0.63889111 </v>
   <v>       0.30555444       0.63888778       0.36110889 </v>
   <v>       0.02777889       0.69444556       0.30555778 </v>
   <v>       0.97222111       0.63888778       0.02777556 </v>
   <v>       0.36111222       0.02777889       0.97222444 </v>
   <v>       0.30555444       0.97222111       0.69444222 </v>
   <v>       0.02777889       0.02777889       0.63889111 </v>
   <v>       0.97222111       0.97222111       0.36110889 </v>
   <v>       0.80555667       0.47222333       0.52778000 </v>
   <v>       0.74999889       0.41666556       0.24999778 </v>
   <v>       0.47222333       0.47222333       0.19444667 </v>
   <v>       0.41666556       0.41666556       0.91666444 </v>
   <v>       0.80555667       0.80555667       0.86111333 </v>
   <v>       0.74999889       0.74999889       0.58333111 </v>
   <v>       0.47222333       0.80555667       0.52778000 </v>
   <v>       0.41666556       0.74999889       0.24999778 </v>
   <v>       0.13889000       0.80555667       0.19444667 </v>
   <v>       0.08333222       0.74999889       0.91666444 </v>
   <v>       0.47222333       0.13889000       0.86111333 </v>
   <v>       0.41666556       0.08333222       0.58333111 </v>
   <v>       0.13889000       0.13889000       0.52778000 </v>
   <v>       0.08333222       0.08333222       0.24999778 </v>
   <v>       0.58333444       0.58333444       0.08333556 </v>
   <v>       0.52777667       0.52777667       0.80555333 </v>
   <v>       0.58333444       0.91666778       0.41666889 </v>
   <v>       0.52777667       0.86111000       0.13888667 </v>
   <v>       0.25000111       0.91666778       0.08333556 </v>
   <v>       0.19444333       0.86111000       0.80555333 </v>
   <v>       0.69444556       0.02777889       0.30555778 </v>
   <v>       0.63888778       0.97222111       0.02777556 </v>
   <v>       0.80555667       0.13889000       0.19444667 </v>
   <v>       0.74999889       0.08333222       0.91666444 </v>
   <v>       0.86084889       0.36163556       0.80581778 </v>
   <v>       0.86085222       0.19418556       0.63837111 </v>
   <v>       0.02830222       0.19418222       0.80581778 </v>
   <v>       0.13915111       0.30503111       0.86084889 </v>
   <v>       0.97169778       0.47248111       0.86084556 </v>
   <v>       0.13914778       0.47248111       0.02829556 </v>
   <v>       0.97196000       0.47274667       0.69470667 </v>
   <v>       0.97196333       0.30529667       0.52726000 </v>
   <v>       0.13941333       0.30529333       0.69470667 </v>
   <v>       0.25026222       0.41614222       0.74973778 </v>
   <v>       0.08280889       0.58359222       0.74973444 </v>
   <v>       0.25025889       0.58359222       0.91718444 </v>
   <v>       0.41640778       0.25052444       0.58359889 </v>
   <v>       0.41640778       0.08307444       0.41614889 </v>
   <v>       0.58385778       0.08307444       0.58359889 </v>
   <v>       0.69470667       0.19392000       0.63862667 </v>
   <v>       0.52725333       0.36137333       0.63862667 </v>
   <v>       0.69470333       0.36137000       0.80607333 </v>
   <v>       0.08307111       0.25052444       0.25026222 </v>
   <v>       0.08307444       0.08307444       0.08281556 </v>
   <v>       0.25052444       0.08307111       0.25026222 </v>
   <v>       0.36137000       0.19392000       0.30529000 </v>
   <v>       0.19392000       0.36137000       0.30529000 </v>
   <v>       0.36137000       0.36137000       0.47274000 </v>
   <v>       0.74974111       0.25052444       0.91693222 </v>
   <v>       0.74974111       0.08307444       0.74948222 </v>
   <v>       0.91719111       0.08307111       0.91692889 </v>
   <v>       0.02804000       0.19392000       0.97196000 </v>
   <v>       0.86058667       0.36137000       0.97195667 </v>
   <v>       0.02803667       0.36137000       0.13940667 </v>
   <v>       0.08307111       0.58385778       0.58359556 </v>
   <v>       0.08307444       0.41640778       0.41614889 </v>
   <v>       0.25052444       0.41640444       0.58359556 </v>
   <v>       0.36137333       0.52725333       0.63862667 </v>
   <v>       0.19392000       0.69470333       0.63862333 </v>
   <v>       0.36137000       0.69470333       0.80607333 </v>
   <v>       0.74974111       0.58385778       0.25026556 </v>
   <v>       0.74974111       0.41640778       0.08281556 </v>
   <v>       0.91719111       0.41640444       0.25026222 </v>
   <v>       0.02804000       0.52725333       0.30529333 </v>
   <v>       0.86058667       0.69470333       0.30529000 </v>
   <v>       0.02803667       0.69470333       0.47274000 </v>
   <v>       0.74973778       0.91719111       0.58359556 </v>
   <v>       0.74974111       0.74974111       0.41614889 </v>
   <v>       0.91719111       0.74973778       0.58359556 </v>
   <v>       0.02803667       0.86058667       0.63862333 </v>
   <v>       0.86058667       0.02803667       0.63862333 </v>
   <v>       0.02803667       0.02803667       0.80607333 </v>
   <v>       0.52751556       0.36163556       0.47248444 </v>
   <v>       0.52751889       0.19418556       0.30503778 </v>
   <v>       0.69496889       0.19418556       0.47248778 </v>
   <v>       0.80581778       0.30503111       0.52751556 </v>
   <v>       0.63836444       0.47248111       0.52751222 </v>
   <v>       0.80581444       0.47248111       0.69496222 </v>
   <v>       0.19418222       0.36163556       0.13915111 </v>
   <v>       0.19418556       0.19418556       0.97170444 </v>
   <v>       0.36163556       0.19418556       0.13915444 </v>
   <v>       0.47248111       0.30503111       0.19417889 </v>
   <v>       0.30503111       0.47248444       0.19418222 </v>
   <v>       0.47248111       0.47248111       0.36162889 </v>
   <v>       0.52751556       0.69496889       0.80581778 </v>
   <v>       0.52751889       0.52751889       0.63837111 </v>
   <v>       0.69496889       0.52751889       0.80582111 </v>
   <v>       0.80581444       0.63836444       0.86084556 </v>
   <v>       0.63836444       0.80581778       0.86084889 </v>
   <v>       0.80581444       0.80581444       0.02829556 </v>
   <v>       0.19418222       0.69496889       0.47248444 </v>
   <v>       0.19418556       0.52751889       0.30503778 </v>
   <v>       0.36163556       0.52751556       0.47248444 </v>
   <v>       0.47248444       0.63836444       0.52751556 </v>
   <v>       0.30503111       0.80581444       0.52751222 </v>
   <v>       0.47248111       0.80581444       0.69496222 </v>
   <v>       0.86085222       0.69496889       0.13915444 </v>
   <v>       0.86085222       0.52751889       0.97170444 </v>
   <v>       0.02830222       0.52751889       0.13915444 </v>
   <v>       0.13914778       0.63836444       0.19417889 </v>
   <v>       0.97169778       0.80581444       0.19417889 </v>
   <v>       0.13914778       0.80581444       0.36162889 </v>
   <v>       0.19418222       0.02830222       0.80581778 </v>
   <v>       0.19418556       0.86085222       0.63837111 </v>
   <v>       0.36163556       0.86085222       0.80582111 </v>
   <v>       0.47248444       0.97169778       0.86084889 </v>
   <v>       0.30503111       0.13914778       0.86084556 </v>
   <v>       0.47248111       0.13914778       0.02829556 </v>
   <v>       0.86084889       0.02830222       0.47248444 </v>
   <v>       0.86085222       0.86085222       0.30503778 </v>
   <v>       0.02830222       0.86084889       0.47248444 </v>
   <v>       0.13914778       0.97169778       0.52751222 </v>
   <v>       0.97169778       0.13914778       0.52751222 </v>
   <v>       0.13914778       0.13914778       0.69496222 </v>
   <v>       0.63862667       0.47274667       0.36137333 </v>
   <v>       0.63863000       0.30529667       0.19392667 </v>
   <v>       0.80608000       0.30529667       0.36137667 </v>
   <v>       0.91692889       0.41614222       0.41640444 </v>
   <v>       0.74947556       0.58359556       0.41640444 </v>
   <v>       0.91692556       0.58359222       0.58385111 </v>
   <v>       0.30529333       0.47274667       0.02804000 </v>
   <v>       0.30529667       0.30529667       0.86059333 </v>
   <v>       0.47274667       0.30529333       0.02804000 </v>
   <v>       0.58359222       0.41614222       0.08306778 </v>
   <v>       0.41614222       0.58359222       0.08306778 </v>
   <v>       0.58359222       0.58359222       0.25051778 </v>
   <v>       0.63863000       0.80608000       0.69471000 </v>
   <v>       0.63863000       0.63863000       0.52726000 </v>
   <v>       0.80608000       0.63863000       0.69471000 </v>
   <v>       0.91692556       0.74947556       0.74973444 </v>
   <v>       0.74947556       0.91692889       0.74973778 </v>
   <v>       0.91692556       0.91692556       0.91718444 </v>
   <v>       0.30529333       0.80608000       0.36137333 </v>
   <v>       0.30529667       0.63863000       0.19392667 </v>
   <v>       0.47274667       0.63862667       0.36137333 </v>
   <v>       0.58359556       0.74947556       0.41640444 </v>
   <v>       0.41614222       0.91692556       0.41640111 </v>
   <v>       0.58359222       0.91692556       0.58385111 </v>
   <v>       0.97196000       0.80608000       0.02804000 </v>
   <v>       0.97196333       0.63863000       0.86059333 </v>
   <v>       0.13941333       0.63863000       0.02804333 </v>
   <v>       0.25025889       0.74947556       0.08306778 </v>
   <v>       0.08280889       0.91692556       0.08306778 </v>
   <v>       0.25025889       0.91692556       0.25051778 </v>
   <v>       0.30529667       0.13941333       0.69471000 </v>
   <v>       0.30529667       0.97196333       0.52726000 </v>
   <v>       0.47274667       0.97196333       0.69471000 </v>
   <v>       0.58359222       0.08280889       0.74973444 </v>
   <v>       0.41614222       0.25025889       0.74973444 </v>
   <v>       0.58359222       0.25025889       0.91718444 </v>
   <v>       0.97196000       0.13941333       0.36137333 </v>
   <v>       0.97196333       0.97196333       0.19392667 </v>
   <v>       0.13941333       0.97196000       0.36137333 </v>
   <v>       0.25025889       0.08280889       0.41640111 </v>
   <v>       0.08280889       0.25025889       0.41640111 </v>
   <v>       0.25025889       0.25025889       0.58385111 </v>
   <v>       0.41640778       0.58385778       0.91693222 </v>
   <v>       0.41640778       0.41640778       0.74948222 </v>
   <v>       0.58385778       0.41640444       0.91692889 </v>
   <v>       0.69470667       0.52725333       0.97196000 </v>
   <v>       0.52725333       0.69470333       0.97195667 </v>
   <v>       0.69470333       0.69470333       0.13940667 </v>
   <v>       0.41640444       0.91719111       0.25026222 </v>
   <v>       0.41640778       0.74974111       0.08281556 </v>
   <v>       0.58385778       0.74973778       0.25026222 </v>
   <v>       0.69470667       0.86058667       0.30529333 </v>
   <v>       0.52725333       0.02803667       0.30529000 </v>
   <v>       0.69470333       0.02803667       0.47274000 </v>
   <v>       0.08307444       0.91719111       0.91693222 </v>
   <v>       0.08307444       0.74974111       0.74948222 </v>
   <v>       0.25052444       0.74973778       0.91692889 </v>
   <v>       0.36137333       0.86058667       0.97196000 </v>
   <v>       0.19392000       0.02803667       0.97195667 </v>
   <v>       0.36137000       0.02803667       0.13940667 </v>
   <v>       0.52751556       0.02830222       0.13915111 </v>
   <v>       0.52751889       0.86085222       0.97170444 </v>
   <v>       0.69496889       0.86084889       0.13915111 </v>
   <v>       0.80581778       0.97169778       0.19418222 </v>
   <v>       0.63836444       0.13914778       0.19417889 </v>
   <v>       0.80581444       0.13914778       0.36162889 </v>
   <v>       0.63862667       0.13941333       0.02804000 </v>
   <v>       0.63863000       0.97196333       0.86059333 </v>
   <v>       0.80608000       0.97196000       0.02804000 </v>
   <v>       0.91692556       0.08280889       0.08306778 </v>
   <v>       0.74947556       0.25025889       0.08306778 </v>
   <v>       0.91692556       0.25025889       0.25051778 </v>
  </varray>
 </structure>
</modeling>
