   1   1   0   0
  0.1382907E+02  0.2693527E-09  0.2694777E-09  0.2694245E-09  0.5000000E-15
  1.000000000000000E-004
  CAR 
 Ir_Ru                                   
    213.15070678     -9.25214241  301      8.60263739      1.00000000
     -9.252  0.0000E+00  0.0000E+00
     -8.511  0.0000E+00  0.0000E+00
     -7.769  0.0000E+00  0.0000E+00
     -7.028  0.0000E+00  0.0000E+00
     -6.287  0.0000E+00  0.0000E+00
     -5.545  0.0000E+00  0.0000E+00
     -4.804  0.0000E+00  0.0000E+00
     -4.063  0.0000E+00  0.0000E+00
     -3.321  0.0000E+00  0.0000E+00
     -2.580  0.0000E+00  0.0000E+00
     -1.839  0.0000E+00  0.0000E+00
     -1.097  0.0000E+00  0.0000E+00
     -0.356  0.0000E+00  0.0000E+00
      0.385  0.0000E+00  0.0000E+00
      1.127  0.3115E-01  0.4672E-02
      1.868  0.7613E-01  0.4438E-01
      2.609  0.3095E+00  0.1436E+00
      3.351  0.1685E+01  0.8766E+00
      4.092  0.1326E+01  0.2137E+01
      4.833  0.1215E+01  0.2975E+01
      5.575  0.1308E+01  0.3810E+01
      6.316  0.1987E+01  0.4886E+01
      7.057  0.1422E+01  0.6119E+01
      7.799  0.1298E+01  0.6965E+01
      8.540  0.1180E+01  0.7928E+01
      9.281  0.1027E+01  0.8692E+01
     10.023  0.1779E+01  0.9582E+01
     10.764  0.2914E+00  0.1055E+02
     11.505  0.2397E+00  0.1072E+02
     12.247  0.2462E+00  0.1090E+02
     12.988  0.2477E+00  0.1108E+02
     13.729  0.2435E+00  0.1127E+02
     14.471  0.2314E+00  0.1144E+02
     15.212  0.2081E+00  0.1161E+02
     15.954  0.1810E+00  0.1175E+02
     16.695  0.1454E+00  0.1187E+02
     17.436  0.6779E-01  0.1196E+02
     18.178  0.2755E+00  0.1201E+02
     18.919  0.3665E+00  0.1237E+02
     19.660  0.3026E+00  0.1261E+02
     20.402  0.2769E+00  0.1283E+02
     21.143  0.2916E+00  0.1303E+02
     21.884  0.5504E+00  0.1333E+02
     22.626  0.5767E+00  0.1375E+02
     23.367  0.5533E+00  0.1417E+02
     24.108  0.5655E+00  0.1458E+02
     24.850  0.7250E+00  0.1505E+02
     25.591  0.7660E+00  0.1570E+02
     26.332  0.6647E+00  0.1620E+02
     27.074  0.7152E+00  0.1669E+02
     27.815  0.4671E+00  0.1706E+02
     28.556  0.2570E+00  0.1735E+02
     29.298  0.2853E+00  0.1754E+02
     30.039  0.5612E+00  0.1783E+02
     30.780  0.8482E+00  0.1839E+02
     31.522  0.7089E+00  0.1896E+02
     32.263  0.6567E+00  0.1945E+02
     33.004  0.3400E+00  0.1985E+02
     33.746  0.2647E+00  0.2004E+02
     34.487  0.2746E+00  0.2022E+02
     35.228  0.5659E+00  0.2053E+02
     35.970  0.5965E+00  0.2095E+02
     36.711  0.6553E+00  0.2142E+02
     37.452  0.5911E+00  0.2187E+02
     38.194  0.6636E+00  0.2235E+02
     38.935  0.9180E+00  0.2289E+02
     39.676  0.1313E+01  0.2373E+02
     40.418  0.6185E+01  0.2961E+02
     41.159  0.6900E+00  0.3067E+02
     41.901  0.5095E+00  0.3111E+02
     42.642  0.6288E+00  0.3153E+02
     43.383  0.7255E+00  0.3201E+02
     44.125  0.9838E+00  0.3267E+02
     44.866  0.1929E+01  0.3380E+02
     45.607  0.6395E+00  0.3469E+02
     46.349  0.9436E+00  0.3514E+02
     47.090  0.7830E+00  0.3577E+02
     47.831  0.6832E+00  0.3631E+02
     48.573  0.8343E+00  0.3685E+02
     49.314  0.1004E+01  0.3754E+02
     50.055  0.4463E+00  0.3807E+02
     50.797  0.4078E+00  0.3836E+02
     51.538  0.5266E+00  0.3871E+02
     52.279  0.4406E+00  0.3908E+02
     53.021  0.2466E+00  0.3933E+02
     53.762  0.1379E+00  0.3946E+02
     54.503  0.7826E-01  0.3954E+02
     55.245  0.5214E-01  0.3959E+02
     55.986  0.3759E-01  0.3962E+02
     56.727  0.2872E-01  0.3965E+02
     57.469  0.2306E-01  0.3966E+02
     58.210  0.1924E-01  0.3968E+02
     58.951  0.1620E-01  0.3969E+02
     59.693  0.1389E-01  0.3970E+02
     60.434  0.1223E-01  0.3971E+02
     61.175  0.1089E-01  0.3972E+02
     61.917  0.9796E-02  0.3973E+02
     62.658  0.8902E-02  0.3974E+02
     63.399  0.8147E-02  0.3974E+02
     64.141  0.7506E-02  0.3975E+02
     64.882  0.6998E-02  0.3975E+02
     65.623  0.6581E-02  0.3976E+02
     66.365  0.6237E-02  0.3976E+02
     67.106  0.5949E-02  0.3977E+02
     67.848  0.5691E-02  0.3977E+02
     68.589  0.5461E-02  0.3978E+02
     69.330  0.5258E-02  0.3978E+02
     70.072  0.5081E-02  0.3979E+02
     70.813  0.4926E-02  0.3979E+02
     71.554  0.4795E-02  0.3979E+02
     72.296  0.4686E-02  0.3980E+02
     73.037  0.4596E-02  0.3980E+02
     73.778  0.4516E-02  0.3980E+02
     74.520  0.4443E-02  0.3981E+02
     75.261  0.4374E-02  0.3981E+02
     76.002  0.4309E-02  0.3981E+02
     76.744  0.4247E-02  0.3982E+02
     77.485  0.4188E-02  0.3982E+02
     78.226  0.4132E-02  0.3982E+02
     78.968  0.4078E-02  0.3983E+02
     79.709  0.4026E-02  0.3983E+02
     80.450  0.3975E-02  0.3983E+02
     81.192  0.3926E-02  0.3983E+02
     81.933  0.3879E-02  0.3984E+02
     82.674  0.3832E-02  0.3984E+02
     83.416  0.3787E-02  0.3984E+02
     84.157  0.3742E-02  0.3985E+02
     84.898  0.3698E-02  0.3985E+02
     85.640  0.3653E-02  0.3985E+02
     86.381  0.3609E-02  0.3985E+02
     87.122  0.3565E-02  0.3986E+02
     87.864  0.3522E-02  0.3986E+02
     88.605  0.3479E-02  0.3986E+02
     89.346  0.3436E-02  0.3986E+02
     90.088  0.3393E-02  0.3987E+02
     90.829  0.3351E-02  0.3987E+02
     91.570  0.3309E-02  0.3987E+02
     92.312  0.3267E-02  0.3987E+02
     93.053  0.3225E-02  0.3988E+02
     93.795  0.3184E-02  0.3988E+02
     94.536  0.3143E-02  0.3988E+02
     95.277  0.3102E-02  0.3988E+02
     96.019  0.3061E-02  0.3989E+02
     96.760  0.3021E-02  0.3989E+02
     97.501  0.2981E-02  0.3989E+02
     98.243  0.2941E-02  0.3989E+02
     98.984  0.2902E-02  0.3989E+02
     99.725  0.2863E-02  0.3990E+02
    100.467  0.2824E-02  0.3990E+02
    101.208  0.2785E-02  0.3990E+02
    101.949  0.2746E-02  0.3990E+02
    102.691  0.2708E-02  0.3990E+02
    103.432  0.2670E-02  0.3991E+02
    104.173  0.2633E-02  0.3991E+02
    104.915  0.2595E-02  0.3991E+02
    105.656  0.2558E-02  0.3991E+02
    106.397  0.2522E-02  0.3991E+02
    107.139  0.2485E-02  0.3992E+02
    107.880  0.2449E-02  0.3992E+02
    108.621  0.2413E-02  0.3992E+02
    109.363  0.2377E-02  0.3992E+02
    110.104  0.2341E-02  0.3992E+02
    110.845  0.2306E-02  0.3993E+02
    111.587  0.2271E-02  0.3993E+02
    112.328  0.2236E-02  0.3993E+02
    113.069  0.2202E-02  0.3993E+02
    113.811  0.2168E-02  0.3993E+02
    114.552  0.2134E-02  0.3993E+02
    115.293  0.2100E-02  0.3994E+02
    116.035  0.2067E-02  0.3994E+02
    116.776  0.2034E-02  0.3994E+02
    117.517  0.2001E-02  0.3994E+02
    118.259  0.1968E-02  0.3994E+02
    119.000  0.1936E-02  0.3994E+02
    119.742  0.1904E-02  0.3994E+02
    120.483  0.1872E-02  0.3995E+02
    121.224  0.1841E-02  0.3995E+02
    121.966  0.1810E-02  0.3995E+02
    122.707  0.1779E-02  0.3995E+02
    123.448  0.1748E-02  0.3995E+02
    124.190  0.1718E-02  0.3995E+02
    124.931  0.1687E-02  0.3995E+02
    125.672  0.1657E-02  0.3995E+02
    126.414  0.1628E-02  0.3996E+02
    127.155  0.1598E-02  0.3996E+02
    127.896  0.1569E-02  0.3996E+02
    128.638  0.1540E-02  0.3996E+02
    129.379  0.1512E-02  0.3996E+02
    130.120  0.1484E-02  0.3996E+02
    130.862  0.1456E-02  0.3996E+02
    131.603  0.1428E-02  0.3996E+02
    132.344  0.1400E-02  0.3996E+02
    133.086  0.1373E-02  0.3997E+02
    133.827  0.1346E-02  0.3997E+02
    134.568  0.1319E-02  0.3997E+02
    135.310  0.1293E-02  0.3997E+02
    136.051  0.1267E-02  0.3997E+02
    136.792  0.1241E-02  0.3997E+02
    137.534  0.1215E-02  0.3997E+02
    138.275  0.1190E-02  0.3997E+02
    139.016  0.1165E-02  0.3997E+02
    139.758  0.1140E-02  0.3997E+02
    140.499  0.1115E-02  0.3998E+02
    141.240  0.1091E-02  0.3998E+02
    141.982  0.1067E-02  0.3998E+02
    142.723  0.1043E-02  0.3998E+02
    143.464  0.1019E-02  0.3998E+02
    144.206  0.9962E-03  0.3998E+02
    144.947  0.9732E-03  0.3998E+02
    145.689  0.9505E-03  0.3998E+02
    146.430  0.9280E-03  0.3998E+02
    147.171  0.9058E-03  0.3998E+02
    147.913  0.8839E-03  0.3998E+02
    148.654  0.8622E-03  0.3998E+02
    149.395  0.8409E-03  0.3998E+02
    150.137  0.8197E-03  0.3998E+02
    150.878  0.7989E-03  0.3998E+02
    151.619  0.7783E-03  0.3999E+02
    152.361  0.7579E-03  0.3999E+02
    153.102  0.7379E-03  0.3999E+02
    153.843  0.7181E-03  0.3999E+02
    154.585  0.6985E-03  0.3999E+02
    155.326  0.6793E-03  0.3999E+02
    156.067  0.6603E-03  0.3999E+02
    156.809  0.6415E-03  0.3999E+02
    157.550  0.6231E-03  0.3999E+02
    158.291  0.6049E-03  0.3999E+02
    159.033  0.5869E-03  0.3999E+02
    159.774  0.5693E-03  0.3999E+02
    160.515  0.5519E-03  0.3999E+02
    161.257  0.5347E-03  0.3999E+02
    161.998  0.5179E-03  0.3999E+02
    162.739  0.5013E-03  0.3999E+02
    163.481  0.4849E-03  0.3999E+02
    164.222  0.4689E-03  0.3999E+02
    164.963  0.4530E-03  0.3999E+02
    165.705  0.4375E-03  0.3999E+02
    166.446  0.4222E-03  0.3999E+02
    167.187  0.4072E-03  0.3999E+02
    167.929  0.3925E-03  0.3999E+02
    168.670  0.3780E-03  0.4000E+02
    169.411  0.3638E-03  0.4000E+02
    170.153  0.3499E-03  0.4000E+02
    170.894  0.3362E-03  0.4000E+02
    171.636  0.3228E-03  0.4000E+02
    172.377  0.3096E-03  0.4000E+02
    173.118  0.2967E-03  0.4000E+02
    173.860  0.2841E-03  0.4000E+02
    174.601  0.2718E-03  0.4000E+02
    175.342  0.2597E-03  0.4000E+02
    176.084  0.2479E-03  0.4000E+02
    176.825  0.2363E-03  0.4000E+02
    177.566  0.2250E-03  0.4000E+02
    178.308  0.2140E-03  0.4000E+02
    179.049  0.2033E-03  0.4000E+02
    179.790  0.1928E-03  0.4000E+02
    180.532  0.1826E-03  0.4000E+02
    181.273  0.1726E-03  0.4000E+02
    182.014  0.1629E-03  0.4000E+02
    182.756  0.1535E-03  0.4000E+02
    183.497  0.1444E-03  0.4000E+02
    184.238  0.1355E-03  0.4000E+02
    184.980  0.1268E-03  0.4000E+02
    185.721  0.1185E-03  0.4000E+02
    186.462  0.1104E-03  0.4000E+02
    187.204  0.1026E-03  0.4000E+02
    187.945  0.9501E-04  0.4000E+02
    188.686  0.8766E-04  0.4000E+02
    189.428  0.8055E-04  0.4000E+02
    190.169  0.7369E-04  0.4000E+02
    190.910  0.6711E-04  0.4000E+02
    191.652  0.6080E-04  0.4000E+02
    192.393  0.5476E-04  0.4000E+02
    193.134  0.4901E-04  0.4000E+02
    193.876  0.4332E-04  0.4000E+02
    194.617  0.3743E-04  0.4000E+02
    195.358  0.3128E-04  0.4000E+02
    196.100  0.2492E-04  0.4000E+02
    196.841  0.1790E-04  0.4000E+02
    197.583  0.9916E-05  0.4000E+02
    198.324  0.4849E-05  0.4000E+02
    199.065  0.2020E-05  0.4000E+02
    199.807  0.6032E-06  0.4000E+02
    200.548  0.1704E-06  0.4000E+02
    201.289  0.5871E-07  0.4000E+02
    202.031  0.1157E-07  0.4000E+02
    202.772  0.1330E-09  0.4000E+02
    203.513  0.0000E+00  0.4000E+02
    204.255  0.0000E+00  0.4000E+02
    204.996  0.0000E+00  0.4000E+02
    205.737  0.0000E+00  0.4000E+02
    206.479  0.0000E+00  0.4000E+02
    207.220  0.0000E+00  0.4000E+02
    207.961  0.0000E+00  0.4000E+02
    208.703  0.0000E+00  0.4000E+02
    209.444  0.0000E+00  0.4000E+02
    210.185  0.0000E+00  0.4000E+02
    210.927  0.0000E+00  0.4000E+02
    211.668  0.0000E+00  0.4000E+02
    212.409  0.0000E+00  0.4000E+02
    213.151  0.0000E+00  0.4000E+02
