       N       E                     dE             d eps       ncg     rms          rms(c)
RMM:   1     0.678284242672E+01    0.67828E+01   -0.79778E+02 80080   0.127E+02
RMM:   2    -0.842939393207E+01   -0.15212E+02   -0.85297E+01 80080   0.380E+01
RMM:   3    -0.967137301858E+01   -0.12420E+01   -0.23498E+00 80080   0.720E+00
RMM:   4    -0.970981060949E+01   -0.38438E-01   -0.21482E-01 80080   0.209E+00
RMM:   5    -0.971426535588E+01   -0.44547E-02   -0.25170E-02 80080   0.698E-01
RMM:   6    -0.971483954965E+01   -0.57419E-03   -0.34074E-03 80080   0.245E-01
RMM:   7    -0.971491686875E+01   -0.77319E-04   -0.45205E-04 80080   0.859E-02
RMM:   8    -0.971492685026E+01   -0.99815E-05   -0.58228E-05 80080   0.294E-02
RMM:   9    -0.971492816208E+01   -0.13118E-05   -0.81681E-06203424   0.969E-03
RMM:  10    -0.971492820873E+01   -0.46649E-07   -0.29499E-07193594   0.162E-03
RMM:  11    -0.971492821118E+01   -0.24467E-08   -0.13631E-08179984   0.476E-04
RMM:  12    -0.971492821175E+01   -0.57048E-09   -0.11063E-09155096   0.284E-04    0.487E+00
RMM:  13    -0.916525443750E+01    0.54967E+00   -0.16734E-01197896   0.218E+00    0.153E+00
RMM:  14    -0.909645348352E+01    0.68801E-01   -0.27017E-02205232   0.843E-01    0.174E-01
RMM:  15    -0.908952413714E+01    0.69293E-02   -0.13383E-03225304   0.195E-01    0.327E-02
RMM:  16    -0.908954914765E+01   -0.25011E-04   -0.12780E-05224723   0.160E-02
   1 F= -.90895491E+01 E0= -.90895491E+01  d E =0.000000E+00
