  64  64   0   0
  0.1390681E+02  0.1145161E-08  0.1145161E-08  0.1079808E-08  0.5000000E-15
  1.000000000000000E-004
  CAR 
 Ir_Ru                                   
     11.20193691     -0.40263088  301      8.63924959      1.00000000
     -0.403  0.0000E+00  0.0000E+00
     -0.364  0.0000E+00  0.0000E+00
     -0.325  0.0000E+00  0.0000E+00
     -0.287  0.0000E+00  0.0000E+00
     -0.248  0.0000E+00  0.0000E+00
     -0.209  0.0000E+00  0.0000E+00
     -0.171  0.0000E+00  0.0000E+00
     -0.132  0.0000E+00  0.0000E+00
     -0.093  0.0000E+00  0.0000E+00
     -0.054  0.0000E+00  0.0000E+00
     -0.016  0.0000E+00  0.0000E+00
      0.023  0.0000E+00  0.0000E+00
      0.062  0.0000E+00  0.0000E+00
      0.100  0.0000E+00  0.0000E+00
      0.139  0.0000E+00  0.0000E+00
      0.178  0.0000E+00  0.0000E+00
      0.216  0.0000E+00  0.0000E+00
      0.255  0.0000E+00  0.0000E+00
      0.294  0.0000E+00  0.0000E+00
      0.332  0.0000E+00  0.0000E+00
      0.371  0.0000E+00  0.0000E+00
      0.410  0.0000E+00  0.0000E+00
      0.448  0.0000E+00  0.0000E+00
      0.487  0.0000E+00  0.0000E+00
      0.526  0.0000E+00  0.0000E+00
      0.564  0.0000E+00  0.0000E+00
      0.603  0.4434E-02  0.8467E-05
      0.642  0.2664E+00  0.3944E-02
      0.680  0.8609E+00  0.2535E-01
      0.719  0.1368E+01  0.6897E-01
      0.758  0.1755E+01  0.1299E+00
      0.797  0.2023E+01  0.2031E+00
      0.835  0.2599E+01  0.2919E+00
      0.874  0.3150E+01  0.4041E+00
      0.913  0.3341E+01  0.5306E+00
      0.951  0.3201E+01  0.6585E+00
      0.990  0.3142E+01  0.7814E+00
      1.029  0.3023E+01  0.9008E+00
      1.067  0.2903E+01  0.1019E+01
      1.106  0.2642E+01  0.1126E+01
      1.145  0.2513E+01  0.1224E+01
      1.183  0.2827E+01  0.1325E+01
      1.222  0.3802E+01  0.1448E+01
      1.261  0.4228E+01  0.1604E+01
      1.299  0.4022E+01  0.1761E+01
      1.338  0.4356E+01  0.1919E+01
      1.377  0.4425E+01  0.2081E+01
      1.415  0.4362E+01  0.2264E+01
      1.454  0.3794E+01  0.2423E+01
      1.493  0.3262E+01  0.2559E+01
      1.531  0.3169E+01  0.2683E+01
      1.570  0.3252E+01  0.2806E+01
      1.609  0.3730E+01  0.2939E+01
      1.648  0.4512E+01  0.3099E+01
      1.686  0.5362E+01  0.3288E+01
      1.725  0.6631E+01  0.3519E+01
      1.764  0.1042E+02  0.3866E+01
      1.802  0.7789E+01  0.4212E+01
      1.841  0.7535E+01  0.4515E+01
      1.880  0.6664E+01  0.4783E+01
      1.918  0.8487E+01  0.5090E+01
      1.957  0.8137E+01  0.5402E+01
      1.996  0.8712E+01  0.5712E+01
      2.034  0.4158E+01  0.5940E+01
      2.073  0.4984E+01  0.6098E+01
      2.112  0.8028E+01  0.6386E+01
      2.150  0.7806E+01  0.6682E+01
      2.189  0.8528E+01  0.7004E+01
      2.228  0.9251E+01  0.7348E+01
      2.266  0.8625E+01  0.7696E+01
      2.305  0.1151E+02  0.8023E+01
      2.344  0.2219E+02  0.8678E+01
      2.382  0.1557E+02  0.9508E+01
      2.421  0.1084E+02  0.9962E+01
      2.460  0.1263E+02  0.1041E+02
      2.499  0.2497E+02  0.1104E+02
      2.537  0.2182E+02  0.1204E+02
      2.576  0.2411E+02  0.1291E+02
      2.615  0.3301E+02  0.1389E+02
      2.653  0.2335E+02  0.1488E+02
      2.692  0.2985E+02  0.1584E+02
      2.731  0.3450E+02  0.1704E+02
      2.769  0.4586E+02  0.1862E+02
      2.808  0.5111E+02  0.2057E+02
      2.847  0.5976E+02  0.2277E+02
      2.885  0.6264E+02  0.2493E+02
      2.924  0.5905E+02  0.2727E+02
      2.963  0.6030E+02  0.2955E+02
      3.001  0.6728E+02  0.3203E+02
      3.040  0.7759E+02  0.3504E+02
      3.079  0.8219E+02  0.3810E+02
      3.117  0.8385E+02  0.4126E+02
      3.156  0.7701E+02  0.4438E+02
      3.195  0.8316E+02  0.4758E+02
      3.233  0.8715E+02  0.5099E+02
      3.272  0.8736E+02  0.5435E+02
      3.311  0.1068E+03  0.5777E+02
      3.350  0.1061E+03  0.6186E+02
      3.388  0.1158E+03  0.6564E+02
      3.427  0.1088E+03  0.6984E+02
      3.466  0.1298E+03  0.7453E+02
      3.504  0.1322E+03  0.7958E+02
      3.543  0.1027E+03  0.8422E+02
      3.582  0.1062E+03  0.8844E+02
      3.620  0.9481E+02  0.9256E+02
      3.659  0.1152E+03  0.9674E+02
      3.698  0.1020E+03  0.1008E+03
      3.736  0.1111E+03  0.1051E+03
      3.775  0.1040E+03  0.1088E+03
      3.814  0.9243E+02  0.1126E+03
      3.852  0.1008E+03  0.1164E+03
      3.891  0.1034E+03  0.1204E+03
      3.930  0.1089E+03  0.1245E+03
      3.968  0.9565E+02  0.1282E+03
      4.007  0.8604E+02  0.1318E+03
      4.046  0.7485E+02  0.1349E+03
      4.084  0.7281E+02  0.1378E+03
      4.123  0.7254E+02  0.1405E+03
      4.162  0.6651E+02  0.1432E+03
      4.201  0.7001E+02  0.1458E+03
      4.239  0.7444E+02  0.1486E+03
      4.278  0.8160E+02  0.1516E+03
      4.317  0.7920E+02  0.1548E+03
      4.355  0.6912E+02  0.1577E+03
      4.394  0.6579E+02  0.1602E+03
      4.433  0.6409E+02  0.1628E+03
      4.471  0.6367E+02  0.1652E+03
      4.510  0.6845E+02  0.1676E+03
      4.549  0.7138E+02  0.1703E+03
      4.587  0.6646E+02  0.1729E+03
      4.626  0.7134E+02  0.1757E+03
      4.665  0.7819E+02  0.1786E+03
      4.703  0.7647E+02  0.1816E+03
      4.742  0.7778E+02  0.1847E+03
      4.781  0.7602E+02  0.1878E+03
      4.819  0.7604E+02  0.1910E+03
      4.858  0.9475E+02  0.1941E+03
      4.897  0.7049E+02  0.1973E+03
      4.935  0.5809E+02  0.1997E+03
      4.974  0.8388E+02  0.2021E+03
      5.013  0.7881E+02  0.2048E+03
      5.052  0.7665E+02  0.2076E+03
      5.090  0.7594E+02  0.2107E+03
      5.129  0.7615E+02  0.2135E+03
      5.168  0.7278E+02  0.2164E+03
      5.206  0.7876E+02  0.2194E+03
      5.245  0.7030E+02  0.2223E+03
      5.284  0.7817E+02  0.2253E+03
      5.322  0.7559E+02  0.2283E+03
      5.361  0.7019E+02  0.2311E+03
      5.400  0.7193E+02  0.2339E+03
      5.438  0.6766E+02  0.2367E+03
      5.477  0.6875E+02  0.2394E+03
      5.516  0.6845E+02  0.2420E+03
      5.554  0.7564E+02  0.2448E+03
      5.593  0.7410E+02  0.2478E+03
      5.632  0.7489E+02  0.2505E+03
      5.670  0.7769E+02  0.2534E+03
      5.709  0.8861E+02  0.2566E+03
      5.748  0.8614E+02  0.2600E+03
      5.786  0.8487E+02  0.2633E+03
      5.825  0.8158E+02  0.2664E+03
      5.864  0.8811E+02  0.2697E+03
      5.903  0.8483E+02  0.2731E+03
      5.941  0.8342E+02  0.2763E+03
      5.980  0.8734E+02  0.2796E+03
      6.019  0.9387E+02  0.2831E+03
      6.057  0.9928E+02  0.2868E+03
      6.096  0.1105E+03  0.2909E+03
      6.135  0.1207E+03  0.2953E+03
      6.173  0.1253E+03  0.3000E+03
      6.212  0.1200E+03  0.3047E+03
      6.251  0.1168E+03  0.3093E+03
      6.289  0.1187E+03  0.3138E+03
      6.328  0.1207E+03  0.3184E+03
      6.367  0.1269E+03  0.3232E+03
      6.405  0.1221E+03  0.3279E+03
      6.444  0.1375E+03  0.3328E+03
      6.483  0.1326E+03  0.3381E+03
      6.521  0.1463E+03  0.3435E+03
      6.560  0.1278E+03  0.3491E+03
      6.599  0.1329E+03  0.3541E+03
      6.637  0.1130E+03  0.3588E+03
      6.676  0.1059E+03  0.3628E+03
      6.715  0.8546E+02  0.3666E+03
      6.754  0.1095E+03  0.3704E+03
      6.792  0.8041E+02  0.3743E+03
      6.831  0.6982E+02  0.3771E+03
      6.870  0.6678E+02  0.3797E+03
      6.908  0.7088E+02  0.3824E+03
      6.947  0.7801E+02  0.3853E+03
      6.986  0.8773E+02  0.3885E+03
      7.024  0.8047E+02  0.3918E+03
      7.063  0.7071E+02  0.3947E+03
      7.102  0.7157E+02  0.3975E+03
      7.140  0.7656E+02  0.4003E+03
      7.179  0.7510E+02  0.4032E+03
      7.218  0.7640E+02  0.4062E+03
      7.256  0.8115E+02  0.4092E+03
      7.295  0.7388E+02  0.4122E+03
      7.334  0.6666E+02  0.4149E+03
      7.372  0.6619E+02  0.4175E+03
      7.411  0.6733E+02  0.4201E+03
      7.450  0.6996E+02  0.4227E+03
      7.488  0.6792E+02  0.4254E+03
      7.527  0.6768E+02  0.4280E+03
      7.566  0.7162E+02  0.4307E+03
      7.605  0.6965E+02  0.4335E+03
      7.643  0.6751E+02  0.4361E+03
      7.682  0.7071E+02  0.4389E+03
      7.721  0.6527E+02  0.4415E+03
      7.759  0.7484E+02  0.4442E+03
      7.798  0.7599E+02  0.4472E+03
      7.837  0.9057E+02  0.4504E+03
      7.875  0.8793E+02  0.4537E+03
      7.914  0.9250E+02  0.4572E+03
      7.953  0.8792E+02  0.4606E+03
      7.991  0.9502E+02  0.4641E+03
      8.030  0.7957E+02  0.4675E+03
      8.069  0.8213E+02  0.4707E+03
      8.107  0.8975E+02  0.4740E+03
      8.146  0.8822E+02  0.4775E+03
      8.185  0.8844E+02  0.4809E+03
      8.223  0.7684E+02  0.4839E+03
      8.262  0.7735E+02  0.4870E+03
      8.301  0.7034E+02  0.4898E+03
      8.339  0.8559E+02  0.4929E+03
      8.378  0.8191E+02  0.4962E+03
      8.417  0.8040E+02  0.4993E+03
      8.456  0.7916E+02  0.5024E+03
      8.494  0.6951E+02  0.5053E+03
      8.533  0.6819E+02  0.5079E+03
      8.572  0.7543E+02  0.5107E+03
      8.610  0.8060E+02  0.5138E+03
      8.649  0.7012E+02  0.5167E+03
      8.688  0.6848E+02  0.5194E+03
      8.726  0.6686E+02  0.5220E+03
      8.765  0.6564E+02  0.5246E+03
      8.804  0.5636E+02  0.5268E+03
      8.842  0.5640E+02  0.5290E+03
      8.881  0.5718E+02  0.5312E+03
      8.920  0.6408E+02  0.5336E+03
      8.958  0.6673E+02  0.5362E+03
      8.997  0.7105E+02  0.5388E+03
      9.036  0.7265E+02  0.5418E+03
      9.074  0.7387E+02  0.5446E+03
      9.113  0.6368E+02  0.5473E+03
      9.152  0.6703E+02  0.5498E+03
      9.190  0.5108E+02  0.5521E+03
      9.229  0.5009E+02  0.5541E+03
      9.268  0.5200E+02  0.5560E+03
      9.307  0.6333E+02  0.5582E+03
      9.345  0.8325E+02  0.5612E+03
      9.384  0.7526E+02  0.5642E+03
      9.423  0.6617E+02  0.5668E+03
      9.461  0.6031E+02  0.5692E+03
      9.500  0.6577E+02  0.5715E+03
      9.539  0.7189E+02  0.5742E+03
      9.577  0.6979E+02  0.5772E+03
      9.616  0.7588E+02  0.5799E+03
      9.655  0.7097E+02  0.5828E+03
      9.693  0.7819E+02  0.5856E+03
      9.732  0.8117E+02  0.5885E+03
      9.771  0.8061E+02  0.5914E+03
      9.809  0.7074E+02  0.5944E+03
      9.848  0.7864E+02  0.5973E+03
      9.887  0.7575E+02  0.6001E+03
      9.925  0.6602E+02  0.6028E+03
      9.964  0.7978E+02  0.6056E+03
     10.003  0.9355E+02  0.6090E+03
     10.041  0.8544E+02  0.6124E+03
     10.080  0.6358E+02  0.6154E+03
     10.119  0.2691E+02  0.6171E+03
     10.158  0.1005E+02  0.6178E+03
     10.196  0.7570E+00  0.6180E+03
     10.235  0.0000E+00  0.6180E+03
     10.274  0.0000E+00  0.6180E+03
     10.312  0.0000E+00  0.6180E+03
     10.351  0.0000E+00  0.6180E+03
     10.390  0.0000E+00  0.6180E+03
     10.428  0.0000E+00  0.6180E+03
     10.467  0.0000E+00  0.6180E+03
     10.506  0.0000E+00  0.6180E+03
     10.544  0.0000E+00  0.6180E+03
     10.583  0.0000E+00  0.6180E+03
     10.622  0.0000E+00  0.6180E+03
     10.660  0.0000E+00  0.6180E+03
     10.699  0.0000E+00  0.6180E+03
     10.738  0.0000E+00  0.6180E+03
     10.776  0.0000E+00  0.6180E+03
     10.815  0.0000E+00  0.6180E+03
     10.854  0.0000E+00  0.6180E+03
     10.892  0.0000E+00  0.6180E+03
     10.931  0.0000E+00  0.6180E+03
     10.970  0.0000E+00  0.6180E+03
     11.009  0.0000E+00  0.6180E+03
     11.047  0.0000E+00  0.6180E+03
     11.086  0.0000E+00  0.6180E+03
     11.125  0.0000E+00  0.6180E+03
     11.163  0.0000E+00  0.6180E+03
     11.202  0.0000E+00  0.6180E+03
