       N       E                     dE             d eps       ncg     rms          rms(c)
DAV:   1     0.243604063599E+04    0.24360E+04   -0.13012E+05 24310   0.810E+02
DAV:   2    -0.358303645252E+03   -0.27943E+04   -0.26785E+04 24122   0.324E+02
DAV:   3    -0.598047576156E+03   -0.23974E+03   -0.22245E+03 37300   0.737E+01
DAV:   4    -0.618244684632E+03   -0.20197E+02   -0.19287E+02 34812   0.215E+01
DAV:   5    -0.619129888751E+03   -0.88520E+00   -0.86365E+00 36004   0.350E+00    0.392E+01
DAV:   6    -0.584263557119E+03    0.34866E+02   -0.13877E+02 34268   0.302E+01    0.201E+01
DAV:   7    -0.601148665061E+03   -0.16885E+02   -0.15140E+02 43140   0.422E+01    0.371E+01
DAV:   8    -0.579871721856E+03    0.21277E+02   -0.93536E+01 46500   0.296E+01    0.155E+01
DAV:   9    -0.575964302752E+03    0.39074E+01   -0.20378E+01 45164   0.117E+01    0.379E+00
DAV:  10    -0.575835079663E+03    0.12922E+00   -0.24238E+00 38812   0.401E+00    0.197E+00
DAV:  11    -0.575726547110E+03    0.10853E+00   -0.40543E-01 40044   0.183E+00    0.159E+00
DAV:  12    -0.575658720479E+03    0.67827E-01   -0.17846E-01 43972   0.128E+00    0.813E-01
DAV:  13    -0.575638049232E+03    0.20671E-01   -0.12915E-01 41652   0.102E+00    0.116E+00
DAV:  14    -0.575617109431E+03    0.20940E-01   -0.80186E-02 43380   0.879E-01    0.320E-01
DAV:  15    -0.575616103853E+03    0.10056E-02   -0.10613E-02 41092   0.299E-01    0.177E-01
DAV:  16    -0.575616038936E+03    0.64917E-04   -0.40589E-03 41788   0.190E-01    0.143E-01
DAV:  17    -0.575615826950E+03    0.21199E-03   -0.19323E-03 41596   0.133E-01    0.865E-02
DAV:  18    -0.575615745229E+03    0.81722E-04   -0.68136E-04 41380   0.749E-02
   1 F= -.57561575E+03 E0= -.57561631E+03  d E =-.575616E+03
       N       E                     dE             d eps       ncg     rms          rms(c)
DAV:   1    -0.776470484351E+03   -0.20085E+03   -0.11428E+04 24280   0.322E+02    0.910E+01
DAV:   2    -0.542807535097E+03    0.23366E+03   -0.42529E+02 25246   0.631E+01    0.363E+01
DAV:   3    -0.515179427704E+03    0.27628E+02   -0.22635E+02 33404   0.570E+01    0.271E+01
DAV:   4    -0.498688626465E+03    0.16491E+02   -0.77438E+01 35777   0.433E+01    0.878E+00
DAV:   5    -0.498424538536E+03    0.26409E+00   -0.14631E+01 37940   0.126E+01    0.558E+00
DAV:   6    -0.498446932031E+03   -0.22393E-01   -0.34783E+00 36444   0.730E+00    0.405E+00
DAV:   7    -0.498554487633E+03   -0.10756E+00   -0.21661E+00 32900   0.550E+00    0.217E+00
DAV:   8    -0.498511649761E+03    0.42838E-01   -0.54099E-01 34748   0.313E+00    0.108E+00
DAV:   9    -0.498495624714E+03    0.16025E-01   -0.13439E-01 35364   0.130E+00    0.607E-01
DAV:  10    -0.498493591168E+03    0.20335E-02   -0.48503E-02 33756   0.864E-01    0.302E-01
DAV:  11    -0.498496576778E+03   -0.29856E-02   -0.14777E-02 33732   0.475E-01    0.259E-01
DAV:  12    -0.498496932422E+03   -0.35564E-03   -0.59936E-03 34772   0.340E-01    0.133E-01
DAV:  13    -0.498496764022E+03    0.16840E-03   -0.17081E-03 36004   0.177E-01    0.666E-02
DAV:  14    -0.498496753343E+03    0.10679E-04   -0.50652E-04 37180   0.911E-02
   2 F= -.49849675E+03 E0= -.49849281E+03  d E =0.771190E+02
       N       E                     dE             d eps       ncg     rms          rms(c)
DAV:   1    -0.751305215409E+03   -0.25281E+03   -0.68301E+03 24456   0.256E+02    0.710E+01
DAV:   2    -0.600459907247E+03    0.15085E+03   -0.40015E+02 25899   0.556E+01    0.235E+01
DAV:   3    -0.621223301526E+03   -0.20763E+02   -0.19386E+02 42060   0.537E+01    0.434E+01
DAV:   4    -0.586460012112E+03    0.34763E+02   -0.15478E+02 44453   0.454E+01    0.151E+01
DAV:   5    -0.583557381359E+03    0.29026E+01   -0.39052E+01 40580   0.161E+01    0.707E+00
DAV:   6    -0.582996002575E+03    0.56138E+00   -0.51796E+00 38724   0.638E+00    0.319E+00
DAV:   7    -0.582795852020E+03    0.20015E+00   -0.18428E+00 32932   0.390E+00    0.277E+00
DAV:   8    -0.582679279815E+03    0.11657E+00   -0.69802E-01 33004   0.302E+00    0.136E+00
DAV:   9    -0.582660394092E+03    0.18886E-01   -0.27960E-01 38924   0.153E+00    0.142E+00
DAV:  10    -0.582631869379E+03    0.28525E-01   -0.15497E-01 38020   0.121E+00    0.420E-01
DAV:  11    -0.582633378327E+03   -0.15089E-02   -0.27354E-02 38052   0.463E-01    0.281E-01
DAV:  12    -0.582636025092E+03   -0.26468E-02   -0.81969E-03 39812   0.275E-01    0.238E-01
DAV:  13    -0.582636915925E+03   -0.89083E-03   -0.35287E-03 39812   0.193E-01    0.153E-01
DAV:  14    -0.582637123995E+03   -0.20807E-03   -0.19996E-03 40476   0.137E-01    0.114E-01
DAV:  15    -0.582637173235E+03   -0.49240E-04   -0.12982E-03 35508   0.114E-01    0.557E-02
DAV:  16    -0.582637139680E+03    0.33555E-04   -0.28274E-04 38700   0.586E-02
   3 F= -.58263714E+03 E0= -.58263675E+03  d E =-.702139E+01
       N       E                     dE             d eps       ncg     rms          rms(c)
DAV:   1    -0.582793311924E+03   -0.15614E+00   -0.35011E+00 24682   0.563E+00    0.164E+00
DAV:   2    -0.582711242662E+03    0.82069E-01   -0.23121E-01 26298   0.129E+00    0.555E-01
DAV:   3    -0.582720547563E+03   -0.93049E-02   -0.10782E-01 38893   0.122E+00    0.976E-01
DAV:   4    -0.582703887768E+03    0.16660E-01   -0.70388E-02 42108   0.102E+00    0.347E-01
DAV:   5    -0.582701963784E+03    0.19240E-02   -0.12200E-02 40804   0.347E-01    0.131E-01
DAV:   6    -0.582701858494E+03    0.10529E-03   -0.19777E-03 38732   0.135E-01    0.892E-02
DAV:   7    -0.582701879810E+03   -0.21316E-04   -0.10677E-03 35748   0.103E-01    0.713E-02
DAV:   8    -0.582701858935E+03    0.20875E-04   -0.44990E-04 36996   0.721E-02
   4 F= -.58270186E+03 E0= -.58270135E+03  d E =-.708611E+01
       N       E                     dE             d eps       ncg     rms          rms(c)
DAV:   1    -0.582736085742E+03   -0.34206E-01   -0.10014E+00 24657   0.302E+00    0.888E-01
DAV:   2    -0.582712151831E+03    0.23934E-01   -0.67644E-02 26484   0.703E-01    0.310E-01
DAV:   3    -0.582716287609E+03   -0.41358E-02   -0.36854E-02 39749   0.721E-01    0.602E-01
DAV:   4    -0.582709997929E+03    0.62897E-02   -0.25694E-02 42548   0.599E-01    0.186E-01
DAV:   5    -0.582709476655E+03    0.52127E-03   -0.38344E-03 40700   0.194E-01    0.813E-02
DAV:   6    -0.582709428030E+03    0.48625E-04   -0.66204E-04 38692   0.800E-02
   5 F= -.58270943E+03 E0= -.58270884E+03  d E =-.709368E+01
       N       E                     dE             d eps       ncg     rms          rms(c)
DAV:   1    -0.582710378339E+03   -0.90168E-03   -0.31538E-02 25144   0.536E-01    0.162E-01
DAV:   2    -0.582709779926E+03    0.59841E-03   -0.29459E-03 32228   0.164E-01    0.111E-01
DAV:   3    -0.582709872719E+03   -0.92793E-04   -0.30346E-03 40980   0.200E-01    0.137E-01
DAV:   4    -0.582709606025E+03    0.26669E-03   -0.14772E-03 42772   0.132E-01    0.654E-02
DAV:   5    -0.582709533787E+03    0.72238E-04   -0.32068E-04 41692   0.618E-02
   6 F= -.58270953E+03 E0= -.58270895E+03  d E =-.709379E+01
       N       E                     dE             d eps       ncg     rms          rms(c)
DAV:   1    -0.582709652653E+03   -0.46628E-04   -0.32198E-03 25244   0.172E-01    0.529E-02
DAV:   2    -0.582709571652E+03    0.81001E-04   -0.25641E-04 27276   0.437E-02    0.205E-02
DAV:   3    -0.582709602924E+03   -0.31272E-04   -0.19733E-04 41116   0.516E-02    0.471E-02
DAV:   4    -0.582709567297E+03    0.35627E-04   -0.12422E-04 43364   0.410E-02    0.121E-02
DAV:   5    -0.582709565753E+03    0.15436E-05   -0.15750E-05 37548   0.118E-02
   7 F= -.58270957E+03 E0= -.58270898E+03  d E =-.709382E+01
       N       E                     dE             d eps       ncg     rms          rms(c)
DAV:   1    -0.582723045052E+03   -0.13478E-01   -0.40456E+00 24102   0.301E+00    0.187E-01
DAV:   2    -0.582734499926E+03   -0.11455E-01   -0.99704E-02 37012   0.843E-01    0.553E-01
DAV:   3    -0.582729553926E+03    0.49460E-02   -0.15449E-02 39405   0.476E-01    0.172E-01
DAV:   4    -0.582729318131E+03    0.23580E-03   -0.19142E-03 38604   0.116E-01    0.136E-01
DAV:   5    -0.582729133789E+03    0.18434E-03   -0.46103E-04 38668   0.747E-02    0.119E-01
DAV:   6    -0.582729065281E+03    0.68507E-04   -0.15357E-03 40636   0.109E-01    0.134E-01
DAV:   7    -0.582728796597E+03    0.26868E-03   -0.14311E-03 39852   0.109E-01    0.449E-02
DAV:   8    -0.582728775453E+03    0.21144E-04   -0.18605E-04 40260   0.417E-02
   8 F= -.58272878E+03 E0= -.58272830E+03  d E =-.192097E-01
       N       E                     dE             d eps       ncg     rms          rms(c)
DAV:   1    -0.582729992914E+03   -0.11963E-02   -0.15855E+00 24107   0.188E+00    0.115E-01
DAV:   2    -0.582734392547E+03   -0.43996E-02   -0.39391E-02 36788   0.520E-01    0.333E-01
DAV:   3    -0.582732585806E+03    0.18067E-02   -0.61241E-03 39439   0.303E-01    0.101E-01
DAV:   4    -0.582732502498E+03    0.83308E-04   -0.84381E-04 38820   0.791E-02    0.813E-02
DAV:   5    -0.582732433344E+03    0.69154E-04   -0.24294E-04 39772   0.548E-02
   9 F= -.58273243E+03 E0= -.58273202E+03  d E =-.228676E-01
       N       E                     dE             d eps       ncg     rms          rms(c)
DAV:   1    -0.582732399784E+03    0.10271E-03   -0.15049E-02 24560   0.193E-01    0.677E-02
DAV:   2    -0.582732848987E+03   -0.44920E-03   -0.27949E-03 43708   0.173E-01    0.175E-01
DAV:   3    -0.582732341033E+03    0.50795E-03   -0.20881E-03 46084   0.149E-01    0.384E-02
DAV:   4    -0.582732328790E+03    0.12243E-04   -0.19037E-04 40548   0.417E-02    0.301E-02
DAV:   5    -0.582732323848E+03    0.49420E-05   -0.82206E-05 42148   0.293E-02
  10 F= -.58273232E+03 E0= -.58273191E+03  d E =-.227581E-01
       N       E                     dE             d eps       ncg     rms          rms(c)
DAV:   1    -0.582732682347E+03   -0.35356E-03   -0.10850E-01 24192   0.511E-01    0.763E-02
DAV:   2    -0.582733132965E+03   -0.45062E-03   -0.40134E-03 38916   0.201E-01    0.152E-01
DAV:   3    -0.582732750820E+03    0.38214E-03   -0.12595E-03 42002   0.140E-01    0.408E-02
DAV:   4    -0.582732740473E+03    0.10347E-04   -0.31829E-04 40188   0.524E-02    0.474E-02
DAV:   5    -0.582732703269E+03    0.37204E-04   -0.22036E-04 43660   0.486E-02
  11 F= -.58273270E+03 E0= -.58273229E+03  d E =-.379421E-03
       N       E                     dE             d eps       ncg     rms          rms(c)
DAV:   1    -0.582732709966E+03    0.30506E-04   -0.83541E-03 24473   0.145E-01    0.277E-02
DAV:   2    -0.582732776717E+03   -0.66751E-04   -0.49818E-04 40196   0.753E-02    0.655E-02
DAV:   3    -0.582732707372E+03    0.69345E-04   -0.27104E-04 44516   0.589E-02    0.165E-02
DAV:   4    -0.582732705880E+03    0.14918E-05   -0.45574E-05 40372   0.211E-02    0.164E-02
DAV:   5    -0.582732701686E+03    0.41941E-05   -0.21779E-05 39004   0.153E-02
  12 F= -.58273270E+03 E0= -.58273229E+03  d E =-.377839E-03
       N       E                     dE             d eps       ncg     rms          rms(c)
DAV:   1    -0.582732864112E+03   -0.15823E-03   -0.56061E-02 24217   0.389E-01    0.764E-02
DAV:   2    -0.582732887163E+03   -0.23051E-04   -0.18155E-03 37540   0.117E-01    0.710E-02
DAV:   3    -0.582732836171E+03    0.50992E-04   -0.49561E-04 43181   0.848E-02    0.503E-02
DAV:   4    -0.582732792079E+03    0.44092E-04   -0.23776E-04 39708   0.495E-02    0.358E-02
DAV:   5    -0.582732775773E+03    0.16306E-04   -0.14476E-04 42666   0.399E-02
  13 F= -.58273278E+03 E0= -.58273233E+03  d E =-.740870E-04
       N       E                     dE             d eps       ncg     rms          rms(c)
DAV:   1    -0.582732808754E+03   -0.16675E-04   -0.54142E-03 24382   0.122E-01    0.273E-02
DAV:   2    -0.582732833223E+03   -0.24469E-04   -0.31513E-04 39540   0.557E-02    0.451E-02
DAV:   3    -0.582732800907E+03    0.32316E-04   -0.13615E-04 45708   0.431E-02    0.147E-02
DAV:   4    -0.582732802685E+03   -0.17778E-05   -0.46885E-05 41060   0.225E-02    0.200E-02
DAV:   5    -0.582732795526E+03    0.71591E-05   -0.25448E-05 40660   0.168E-02
  14 F= -.58273280E+03 E0= -.58273236E+03  d E =-.938398E-04
       N       E                     dE             d eps       ncg     rms          rms(c)
DAV:   1    -0.582732854802E+03   -0.52117E-04   -0.58904E-03 24392   0.172E-01    0.411E-02
DAV:   2    -0.582732810627E+03    0.44175E-04   -0.24031E-04 29908   0.365E-02    0.199E-02
DAV:   3    -0.582732822168E+03   -0.11541E-04   -0.14879E-04 41492   0.435E-02    0.376E-02
DAV:   4    -0.582732795539E+03    0.26629E-04   -0.10144E-04 42556   0.352E-02    0.113E-02
DAV:   5    -0.582732792270E+03    0.32687E-05   -0.16642E-05 37764   0.136E-02
  15 F= -.58273279E+03 E0= -.58273237E+03  d E =0.325613E-05
       N       E                     dE             d eps       ncg     rms          rms(c)
DAV:   1    -0.582732809465E+03   -0.13927E-04   -0.17716E-03 24438   0.949E-02    0.243E-02
DAV:   2    -0.582732798334E+03    0.11131E-04   -0.89364E-05 33948   0.254E-02    0.148E-02
DAV:   3    -0.582732801155E+03   -0.28208E-05   -0.52819E-05 42036   0.276E-02    0.197E-02
DAV:   4    -0.582732797313E+03    0.38414E-05   -0.34734E-05 40748   0.211E-02    0.107E-02
DAV:   5    -0.582732795974E+03    0.13390E-05   -0.10907E-05 35348   0.116E-02
  16 F= -.58273280E+03 E0= -.58273237E+03  d E =-.448112E-06
