 256 256   0   0
  0.1418917E+02  0.1588033E-08  0.1692661E-08  0.1693229E-08  0.5000000E-15
  1.000000000000000E-004
  CAR 
 Ir_Ru                                   
     14.28467121     -1.29193468  301      9.45708927      1.00000000
     -1.292  0.0000E+00  0.0000E+00
     -1.240  0.0000E+00  0.0000E+00
     -1.188  0.0000E+00  0.0000E+00
     -1.136 -0.2836E-30 -0.1473E-31
     -1.084 -0.1304E-26 -0.6774E-28
     -1.032 -0.3484E-23 -0.1810E-24
     -0.980 -0.5401E-20 -0.2806E-21
     -0.928 -0.4855E-17 -0.2524E-18
     -0.877 -0.2469E-14 -0.1285E-15
     -0.825 -0.7356E-12 -0.3832E-13
     -0.773 -0.1270E-09 -0.6634E-11
     -0.721 -0.1261E-07 -0.6614E-09
     -0.669 -0.7168E-06 -0.3788E-07
     -0.617 -0.2320E-04 -0.1242E-05
     -0.565 -0.4243E-03 -0.2327E-04
     -0.513 -0.4343E-02 -0.2488E-03
     -0.461 -0.2462E-01 -0.1527E-02
     -0.409 -0.7577E-01 -0.5461E-02
     -0.357 -0.1014E+00 -0.1073E-01
     -0.305  0.2138E+00  0.3768E-03
     -0.253  0.1666E+01  0.8688E-01
     -0.202  0.4434E+01  0.3171E+00
     -0.150  0.6365E+01  0.6476E+00
     -0.098  0.6421E+01  0.9810E+00
     -0.046  0.6982E+01  0.1343E+01
      0.006  0.8891E+01  0.1805E+01
      0.058  0.1122E+02  0.2388E+01
      0.110  0.1364E+02  0.3096E+01
      0.162  0.1433E+02  0.3840E+01
      0.214  0.1164E+02  0.4444E+01
      0.266  0.1009E+02  0.4968E+01
      0.318  0.1438E+02  0.5715E+01
      0.370  0.2043E+02  0.6775E+01
      0.421  0.2253E+02  0.7945E+01
      0.473  0.2273E+02  0.9125E+01
      0.525  0.2351E+02  0.1035E+02
      0.577  0.2247E+02  0.1151E+02
      0.629  0.2042E+02  0.1257E+02
      0.681  0.2102E+02  0.1366E+02
      0.733  0.2028E+02  0.1472E+02
      0.785  0.1443E+02  0.1547E+02
      0.837  0.8785E+01  0.1592E+02
      0.889  0.8060E+01  0.1634E+02
      0.941  0.1186E+02  0.1696E+02
      0.993  0.1918E+02  0.1795E+02
      1.045  0.2807E+02  0.1941E+02
      1.096  0.3337E+02  0.2114E+02
      1.148  0.3298E+02  0.2285E+02
      1.200  0.2867E+02  0.2434E+02
      1.252  0.2268E+02  0.2552E+02
      1.304  0.1945E+02  0.2653E+02
      1.356  0.2184E+02  0.2767E+02
      1.408  0.2736E+02  0.2909E+02
      1.460  0.3038E+02  0.3066E+02
      1.512  0.2978E+02  0.3221E+02
      1.564  0.2936E+02  0.3373E+02
      1.616  0.3048E+02  0.3532E+02
      1.668  0.3112E+02  0.3693E+02
      1.720  0.3206E+02  0.3860E+02
      1.771  0.3514E+02  0.4042E+02
      1.823  0.3928E+02  0.4246E+02
      1.875  0.4580E+02  0.4484E+02
      1.927  0.5499E+02  0.4769E+02
      1.979  0.5933E+02  0.5077E+02
      2.031  0.5443E+02  0.5360E+02
      2.083  0.5044E+02  0.5622E+02
      2.135  0.6216E+02  0.5945E+02
      2.187  0.8773E+02  0.6400E+02
      2.239  0.1093E+03  0.6968E+02
      2.291  0.1200E+03  0.7591E+02
      2.343  0.1260E+03  0.8245E+02
      2.395  0.1318E+03  0.8929E+02
      2.446  0.1379E+03  0.9645E+02
      2.498  0.1478E+03  0.1041E+03
      2.550  0.1651E+03  0.1127E+03
      2.602  0.1834E+03  0.1222E+03
      2.654  0.1951E+03  0.1324E+03
      2.706  0.2072E+03  0.1431E+03
      2.758  0.2243E+03  0.1548E+03
      2.810  0.2307E+03  0.1667E+03
      2.862  0.2243E+03  0.1784E+03
      2.914  0.2281E+03  0.1902E+03
      2.966  0.2460E+03  0.2030E+03
      3.018  0.2583E+03  0.2164E+03
      3.070  0.2601E+03  0.2299E+03
      3.121  0.2605E+03  0.2434E+03
      3.173  0.2641E+03  0.2571E+03
      3.225  0.2734E+03  0.2713E+03
      3.277  0.2889E+03  0.2863E+03
      3.329  0.3086E+03  0.3024E+03
      3.381  0.3252E+03  0.3192E+03
      3.433  0.3308E+03  0.3364E+03
      3.485  0.3274E+03  0.3534E+03
      3.537  0.3210E+03  0.3701E+03
      3.589  0.3180E+03  0.3866E+03
      3.641  0.3163E+03  0.4030E+03
      3.693  0.3108E+03  0.4192E+03
      3.745  0.3051E+03  0.4350E+03
      3.796  0.3011E+03  0.4506E+03
      3.848  0.2968E+03  0.4660E+03
      3.900  0.2933E+03  0.4813E+03
      3.952  0.2881E+03  0.4962E+03
      4.004  0.2752E+03  0.5105E+03
      4.056  0.2664E+03  0.5243E+03
      4.108  0.2766E+03  0.5387E+03
      4.160  0.2948E+03  0.5540E+03
      4.212  0.3028E+03  0.5697E+03
      4.264  0.3054E+03  0.5856E+03
      4.316  0.3126E+03  0.6018E+03
      4.368  0.3190E+03  0.6184E+03
      4.419  0.3214E+03  0.6351E+03
      4.471  0.3236E+03  0.6519E+03
      4.523  0.3205E+03  0.6685E+03
      4.575  0.3087E+03  0.6845E+03
      4.627  0.2967E+03  0.6999E+03
      4.679  0.2936E+03  0.7152E+03
      4.731  0.2986E+03  0.7307E+03
      4.783  0.3065E+03  0.7466E+03
      4.835  0.3189E+03  0.7632E+03
      4.887  0.3321E+03  0.7804E+03
      4.939  0.3379E+03  0.7980E+03
      4.991  0.3457E+03  0.8159E+03
      5.043  0.3591E+03  0.8346E+03
      5.094  0.3659E+03  0.8536E+03
      5.146  0.3638E+03  0.8724E+03
      5.198  0.3537E+03  0.8908E+03
      5.250  0.3325E+03  0.9081E+03
      5.302  0.2996E+03  0.9236E+03
      5.354  0.2583E+03  0.9370E+03
      5.406  0.2153E+03  0.9482E+03
      5.458  0.1826E+03  0.9577E+03
      5.510  0.1730E+03  0.9667E+03
      5.562  0.1919E+03  0.9766E+03
      5.614  0.2313E+03  0.9887E+03
      5.666  0.2797E+03  0.1003E+04
      5.718  0.3290E+03  0.1020E+04
      5.769  0.3699E+03  0.1039E+04
      5.821  0.3964E+03  0.1060E+04
      5.873  0.4112E+03  0.1081E+04
      5.925  0.4200E+03  0.1103E+04
      5.977  0.4264E+03  0.1125E+04
      6.029  0.4280E+03  0.1148E+04
      6.081  0.4146E+03  0.1169E+04
      6.133  0.3899E+03  0.1189E+04
      6.185  0.3707E+03  0.1209E+04
      6.237  0.3608E+03  0.1227E+04
      6.289  0.3553E+03  0.1246E+04
      6.341  0.3572E+03  0.1264E+04
      6.393  0.3705E+03  0.1284E+04
      6.444  0.3825E+03  0.1303E+04
      6.496  0.3845E+03  0.1323E+04
      6.548  0.3929E+03  0.1344E+04
      6.600  0.4113E+03  0.1365E+04
      6.652  0.4246E+03  0.1387E+04
      6.704  0.4283E+03  0.1409E+04
      6.756  0.4247E+03  0.1431E+04
      6.808  0.4117E+03  0.1453E+04
      6.860  0.3901E+03  0.1473E+04
      6.912  0.3725E+03  0.1492E+04
      6.964  0.3663E+03  0.1511E+04
      7.016  0.3634E+03  0.1530E+04
      7.068  0.3692E+03  0.1549E+04
      7.119  0.3937E+03  0.1570E+04
      7.171  0.4161E+03  0.1592E+04
      7.223  0.4225E+03  0.1613E+04
      7.275  0.4222E+03  0.1635E+04
      7.327  0.4117E+03  0.1657E+04
      7.379  0.3851E+03  0.1677E+04
      7.431  0.3564E+03  0.1695E+04
      7.483  0.3391E+03  0.1713E+04
      7.535  0.3323E+03  0.1730E+04
      7.587  0.3282E+03  0.1747E+04
      7.639  0.3152E+03  0.1764E+04
      7.691  0.2934E+03  0.1779E+04
      7.742  0.2762E+03  0.1793E+04
      7.794  0.2681E+03  0.1807E+04
      7.846  0.2631E+03  0.1821E+04
      7.898  0.2565E+03  0.1834E+04
      7.950  0.2474E+03  0.1847E+04
      8.002  0.2428E+03  0.1859E+04
      8.054  0.2433E+03  0.1872E+04
      8.106  0.2385E+03  0.1884E+04
      8.158  0.2307E+03  0.1896E+04
      8.210  0.2293E+03  0.1908E+04
      8.262  0.2340E+03  0.1920E+04
      8.314  0.2380E+03  0.1933E+04
      8.366  0.2391E+03  0.1945E+04
      8.417  0.2364E+03  0.1958E+04
      8.469  0.2278E+03  0.1969E+04
      8.521  0.2176E+03  0.1981E+04
      8.573  0.2114E+03  0.1992E+04
      8.625  0.2063E+03  0.2002E+04
      8.677  0.1989E+03  0.2013E+04
      8.729  0.1905E+03  0.2023E+04
      8.781  0.1824E+03  0.2032E+04
      8.833  0.1796E+03  0.2041E+04
      8.885  0.1903E+03  0.2051E+04
      8.937  0.2161E+03  0.2062E+04
      8.989  0.2366E+03  0.2075E+04
      9.041  0.2353E+03  0.2087E+04
      9.092  0.2218E+03  0.2098E+04
      9.144  0.2043E+03  0.2109E+04
      9.196  0.1851E+03  0.2119E+04
      9.248  0.1796E+03  0.2128E+04
      9.300  0.2009E+03  0.2138E+04
      9.352  0.2311E+03  0.2150E+04
      9.404  0.2432E+03  0.2163E+04
      9.456  0.2429E+03  0.2176E+04
      9.508  0.2453E+03  0.2188E+04
      9.560  0.2441E+03  0.2201E+04
      9.612  0.2480E+03  0.2214E+04
      9.664  0.2796E+03  0.2229E+04
      9.716  0.3216E+03  0.2245E+04
      9.767  0.3354E+03  0.2263E+04
      9.819  0.3248E+03  0.2279E+04
      9.871  0.3160E+03  0.2296E+04
      9.923  0.3156E+03  0.2312E+04
      9.975  0.3233E+03  0.2329E+04
     10.027  0.3470E+03  0.2347E+04
     10.079  0.3848E+03  0.2367E+04
     10.131  0.4159E+03  0.2389E+04
     10.183  0.4295E+03  0.2411E+04
     10.235  0.4373E+03  0.2434E+04
     10.287  0.4509E+03  0.2457E+04
     10.339  0.4702E+03  0.2481E+04
     10.391  0.4886E+03  0.2507E+04
     10.442  0.4979E+03  0.2533E+04
     10.494  0.4868E+03  0.2558E+04
     10.546  0.4452E+03  0.2581E+04
     10.598  0.3829E+03  0.2601E+04
     10.650  0.3127E+03  0.2617E+04
     10.702  0.2264E+03  0.2629E+04
     10.754  0.1251E+03  0.2635E+04
     10.806  0.4097E+02  0.2638E+04
     10.858  0.7945E+00  0.2638E+04
     10.910 -0.5435E+01  0.2637E+04
     10.962 -0.2301E+01  0.2637E+04
     11.014 -0.4773E+00  0.2637E+04
     11.066 -0.6071E-01  0.2637E+04
     11.117 -0.5277E-02  0.2637E+04
     11.169 -0.3213E-03  0.2637E+04
     11.221 -0.1300E-04  0.2637E+04
     11.273 -0.3268E-06  0.2637E+04
     11.325 -0.4899E-08  0.2637E+04
     11.377 -0.4293E-10  0.2637E+04
     11.429 -0.2212E-12  0.2637E+04
     11.481 -0.1167E-11  0.2637E+04
     11.533 -0.2073E-09  0.2637E+04
     11.585 -0.2122E-07  0.2637E+04
     11.637 -0.1246E-05  0.2637E+04
     11.689 -0.4173E-04  0.2637E+04
     11.740 -0.7876E-03  0.2637E+04
     11.792 -0.8182E-02  0.2637E+04
     11.844 -0.4396E-01  0.2637E+04
     11.896 -0.9461E-01  0.2637E+04
     11.948  0.1137E+00  0.2637E+04
     12.000  0.1014E+01  0.2637E+04
     12.052  0.2145E+01  0.2637E+04
     12.104  0.2138E+01  0.2637E+04
     12.156  0.9966E+00  0.2638E+04
     12.208  0.4884E+00  0.2638E+04
     12.260  0.1484E+01  0.2638E+04
     12.312  0.2953E+01  0.2638E+04
     12.364  0.3643E+01  0.2638E+04
     12.415  0.3322E+01  0.2638E+04
     12.467  0.2504E+01  0.2638E+04
     12.519  0.2088E+01  0.2638E+04
     12.571  0.2604E+01  0.2639E+04
     12.623  0.3175E+01  0.2639E+04
     12.675  0.3371E+01  0.2639E+04
     12.727  0.3578E+01  0.2639E+04
     12.779  0.3000E+01  0.2639E+04
     12.831  0.2036E+01  0.2639E+04
     12.883  0.2141E+01  0.2639E+04
     12.935  0.2396E+01  0.2640E+04
     12.987  0.1770E+01  0.2640E+04
     13.039  0.1098E+01  0.2640E+04
     13.090  0.8593E+00  0.2640E+04
     13.142  0.7966E+00  0.2640E+04
     13.194  0.9511E+00  0.2640E+04
     13.246  0.1140E+01  0.2640E+04
     13.298  0.1089E+01  0.2640E+04
     13.350  0.6729E+00  0.2640E+04
     13.402  0.1627E+00  0.2640E+04
     13.454 -0.4281E-01  0.2640E+04
     13.506 -0.3318E-01  0.2640E+04
     13.558 -0.7366E-02  0.2640E+04
     13.610 -0.7864E-03  0.2640E+04
     13.662 -0.4471E-04  0.2640E+04
     13.714 -0.1407E-05  0.2640E+04
     13.765 -0.2498E-07  0.2640E+04
     13.817 -0.2528E-09  0.2640E+04
     13.869 -0.1467E-11  0.2640E+04
     13.921 -0.5227E-14  0.2640E+04
     13.973  0.0000E+00  0.2640E+04
     14.025  0.0000E+00  0.2640E+04
     14.077  0.0000E+00  0.2640E+04
     14.129  0.0000E+00  0.2640E+04
     14.181  0.0000E+00  0.2640E+04
     14.233  0.0000E+00  0.2640E+04
     14.285  0.0000E+00  0.2640E+04
