  32  32   0   0
  0.1450352E+02  0.1050293E-08  0.5499081E-09  0.1050293E-08  0.5000000E-15
  1.000000000000000E-004
  CAR 
 Ir_Ru                                   
     20.13080063     -1.73001911  301      9.85635505      1.00000000
     -1.730  0.0000E+00  0.0000E+00
     -1.657  0.0000E+00  0.0000E+00
     -1.584  0.0000E+00  0.0000E+00
     -1.511  0.0000E+00  0.0000E+00
     -1.439  0.0000E+00  0.0000E+00
     -1.366  0.0000E+00  0.0000E+00
     -1.293  0.0000E+00  0.0000E+00
     -1.220  0.0000E+00  0.0000E+00
     -1.147  0.0000E+00  0.0000E+00
     -1.074  0.0000E+00  0.0000E+00
     -1.001  0.0000E+00  0.0000E+00
     -0.928  0.0000E+00  0.0000E+00
     -0.856  0.0000E+00  0.0000E+00
     -0.783  0.0000E+00  0.0000E+00
     -0.710  0.2087E-01  0.1403E-03
     -0.637  0.4275E+00  0.1365E-01
     -0.564  0.7013E+00  0.5855E-01
     -0.491  0.8518E+00  0.1138E+00
     -0.418  0.1072E+01  0.1840E+00
     -0.346  0.1318E+01  0.2702E+00
     -0.273  0.1486E+01  0.3736E+00
     -0.200  0.1672E+01  0.4868E+00
     -0.127  0.1833E+01  0.6169E+00
     -0.054  0.1805E+01  0.7500E+00
      0.019  0.1685E+01  0.8782E+00
      0.092  0.1450E+01  0.9882E+00
      0.165  0.1755E+01  0.1110E+01
      0.237  0.1839E+01  0.1239E+01
      0.310  0.2125E+01  0.1382E+01
      0.383  0.2547E+01  0.1552E+01
      0.456  0.2416E+01  0.1736E+01
      0.529  0.2382E+01  0.1910E+01
      0.602  0.2582E+01  0.2089E+01
      0.675  0.2743E+01  0.2283E+01
      0.748  0.2974E+01  0.2491E+01
      0.820  0.3172E+01  0.2716E+01
      0.893  0.3255E+01  0.2950E+01
      0.966  0.3384E+01  0.3191E+01
      1.039  0.3788E+01  0.3450E+01
      1.112  0.3972E+01  0.3735E+01
      1.185  0.3901E+01  0.4023E+01
      1.258  0.4265E+01  0.4317E+01
      1.330  0.4177E+01  0.4635E+01
      1.403  0.3818E+01  0.4922E+01
      1.476  0.4032E+01  0.5204E+01
      1.549  0.4394E+01  0.5521E+01
      1.622  0.5083E+01  0.5851E+01
      1.695  0.4919E+01  0.6200E+01
      1.768  0.6284E+01  0.6599E+01
      1.841  0.6430E+01  0.7111E+01
      1.913  0.6521E+01  0.7586E+01
      1.986  0.6894E+01  0.8069E+01
      2.059  0.7751E+01  0.8640E+01
      2.132  0.8665E+01  0.9248E+01
      2.205  0.1336E+02  0.1001E+02
      2.278  0.1749E+02  0.1103E+02
      2.351  0.2665E+02  0.1268E+02
      2.424  0.2501E+02  0.1454E+02
      2.496  0.2618E+02  0.1645E+02
      2.569  0.2438E+02  0.1827E+02
      2.642  0.2392E+02  0.2006E+02
      2.715  0.2565E+02  0.2193E+02
      2.788  0.2811E+02  0.2382E+02
      2.861  0.2975E+02  0.2605E+02
      2.934  0.3111E+02  0.2830E+02
      3.006  0.3139E+02  0.3058E+02
      3.079  0.3432E+02  0.3299E+02
      3.152  0.3222E+02  0.3545E+02
      3.225  0.3353E+02  0.3806E+02
      3.298  0.3862E+02  0.4064E+02
      3.371  0.4171E+02  0.4354E+02
      3.444  0.4030E+02  0.4653E+02
      3.517  0.3815E+02  0.4943E+02
      3.589  0.3584E+02  0.5223E+02
      3.662  0.3153E+02  0.5463E+02
      3.735  0.3265E+02  0.5700E+02
      3.808  0.3345E+02  0.5947E+02
      3.881  0.3062E+02  0.6184E+02
      3.954  0.3026E+02  0.6407E+02
      4.027  0.2889E+02  0.6623E+02
      4.100  0.3211E+02  0.6846E+02
      4.172  0.5323E+02  0.7128E+02
      4.245  0.3929E+02  0.7453E+02
      4.318  0.4085E+02  0.7770E+02
      4.391  0.3789E+02  0.8063E+02
      4.464  0.3644E+02  0.8333E+02
      4.537  0.3035E+02  0.8571E+02
      4.610  0.3189E+02  0.8803E+02
      4.682  0.3700E+02  0.9050E+02
      4.755  0.3978E+02  0.9316E+02
      4.828  0.4108E+02  0.9640E+02
      4.901  0.5003E+02  0.9951E+02
      4.974  0.4380E+02  0.1029E+03
      5.047  0.4375E+02  0.1063E+03
      5.120  0.4892E+02  0.1097E+03
      5.193  0.3898E+02  0.1127E+03
      5.265  0.2927E+02  0.1152E+03
      5.338  0.2710E+02  0.1172E+03
      5.411  0.2232E+02  0.1191E+03
      5.484  0.2108E+02  0.1208E+03
      5.557  0.2182E+02  0.1223E+03
      5.630  0.3043E+02  0.1241E+03
      5.703  0.4923E+02  0.1269E+03
      5.776  0.4510E+02  0.1302E+03
      5.848  0.6139E+02  0.1340E+03
      5.921  0.6034E+02  0.1384E+03
      5.994  0.5105E+02  0.1421E+03
      6.067  0.5049E+02  0.1457E+03
      6.140  0.4699E+02  0.1494E+03
      6.213  0.4270E+02  0.1528E+03
      6.286  0.4650E+02  0.1563E+03
      6.358  0.4982E+02  0.1597E+03
      6.431  0.4735E+02  0.1633E+03
      6.504  0.4840E+02  0.1669E+03
      6.577  0.5157E+02  0.1706E+03
      6.650  0.4962E+02  0.1742E+03
      6.723  0.4458E+02  0.1779E+03
      6.796  0.5303E+02  0.1815E+03
      6.869  0.4896E+02  0.1852E+03
      6.941  0.4824E+02  0.1887E+03
      7.014  0.5809E+02  0.1926E+03
      7.087  0.5904E+02  0.1967E+03
      7.160  0.5113E+02  0.2008E+03
      7.233  0.4528E+02  0.2041E+03
      7.306  0.4249E+02  0.2074E+03
      7.379  0.4295E+02  0.2105E+03
      7.452  0.4137E+02  0.2135E+03
      7.524  0.3975E+02  0.2165E+03
      7.597  0.3930E+02  0.2194E+03
      7.670  0.3501E+02  0.2220E+03
      7.743  0.2924E+02  0.2244E+03
      7.816  0.2930E+02  0.2265E+03
      7.889  0.2973E+02  0.2287E+03
      7.962  0.3249E+02  0.2309E+03
      8.034  0.3264E+02  0.2333E+03
      8.107  0.3204E+02  0.2357E+03
      8.180  0.2786E+02  0.2379E+03
      8.253  0.2653E+02  0.2398E+03
      8.326  0.2382E+02  0.2417E+03
      8.399  0.2744E+02  0.2435E+03
      8.472  0.2587E+02  0.2454E+03
      8.545  0.2719E+02  0.2474E+03
      8.617  0.2565E+02  0.2493E+03
      8.690  0.2514E+02  0.2512E+03
      8.763  0.2267E+02  0.2530E+03
      8.836  0.2107E+02  0.2545E+03
      8.909  0.2595E+02  0.2562E+03
      8.982  0.2534E+02  0.2581E+03
      9.055  0.2605E+02  0.2600E+03
      9.128  0.2383E+02  0.2618E+03
      9.200  0.2386E+02  0.2635E+03
      9.273  0.2399E+02  0.2652E+03
      9.346  0.2701E+02  0.2671E+03
      9.419  0.3191E+02  0.2692E+03
      9.492  0.2991E+02  0.2715E+03
      9.565  0.2822E+02  0.2736E+03
      9.638  0.3017E+02  0.2757E+03
      9.710  0.3766E+02  0.2780E+03
      9.783  0.4296E+02  0.2810E+03
      9.856  0.4271E+02  0.2840E+03
      9.929  0.3480E+02  0.2867E+03
     10.002  0.3748E+02  0.2894E+03
     10.075  0.4178E+02  0.2922E+03
     10.148  0.5139E+02  0.2954E+03
     10.221  0.5185E+02  0.2992E+03
     10.293  0.5082E+02  0.3029E+03
     10.366  0.5829E+02  0.3069E+03
     10.439  0.5397E+02  0.3110E+03
     10.512  0.6732E+02  0.3153E+03
     10.585  0.6889E+02  0.3201E+03
     10.658  0.5456E+02  0.3245E+03
     10.731  0.5352E+02  0.3283E+03
     10.804  0.4932E+02  0.3322E+03
     10.876  0.4034E+02  0.3355E+03
     10.949  0.2285E+02  0.3379E+03
     11.022  0.1449E+02  0.3392E+03
     11.095  0.1126E+02  0.3401E+03
     11.168  0.9035E+01  0.3408E+03
     11.241  0.8554E+01  0.3415E+03
     11.314  0.8148E+01  0.3421E+03
     11.386  0.8721E+01  0.3427E+03
     11.459  0.8941E+01  0.3433E+03
     11.532  0.9487E+01  0.3440E+03
     11.605  0.9957E+01  0.3447E+03
     11.678  0.1061E+02  0.3454E+03
     11.751  0.1043E+02  0.3462E+03
     11.824  0.9139E+01  0.3470E+03
     11.897  0.8875E+01  0.3476E+03
     11.969  0.8154E+01  0.3482E+03
     12.042  0.7541E+01  0.3488E+03
     12.115  0.7881E+01  0.3493E+03
     12.188  0.8925E+01  0.3500E+03
     12.261  0.1011E+02  0.3507E+03
     12.334  0.1008E+02  0.3514E+03
     12.407  0.9728E+01  0.3521E+03
     12.480  0.9371E+01  0.3528E+03
     12.552  0.8721E+01  0.3535E+03
     12.625  0.8302E+01  0.3541E+03
     12.698  0.7932E+01  0.3547E+03
     12.771  0.7787E+01  0.3553E+03
     12.844  0.8591E+01  0.3559E+03
     12.917  0.8445E+01  0.3565E+03
     12.990  0.6982E+01  0.3570E+03
     13.062  0.7046E+01  0.3576E+03
     13.135  0.8035E+01  0.3581E+03
     13.208  0.8892E+01  0.3588E+03
     13.281  0.8425E+01  0.3594E+03
     13.354  0.8027E+01  0.3600E+03
     13.427  0.8359E+01  0.3606E+03
     13.500  0.8056E+01  0.3612E+03
     13.573  0.8404E+01  0.3618E+03
     13.645  0.7675E+01  0.3624E+03
     13.718  0.6268E+01  0.3630E+03
     13.791  0.5866E+01  0.3634E+03
     13.864  0.6275E+01  0.3638E+03
     13.937  0.7082E+01  0.3643E+03
     14.010  0.6636E+01  0.3648E+03
     14.083  0.6847E+01  0.3653E+03
     14.156  0.7830E+01  0.3658E+03
     14.228  0.8440E+01  0.3664E+03
     14.301  0.8836E+01  0.3670E+03
     14.374  0.8918E+01  0.3677E+03
     14.447  0.8964E+01  0.3684E+03
     14.520  0.9029E+01  0.3690E+03
     14.593  0.8634E+01  0.3697E+03
     14.666  0.8263E+01  0.3703E+03
     14.738  0.8051E+01  0.3709E+03
     14.811  0.7805E+01  0.3715E+03
     14.884  0.7615E+01  0.3720E+03
     14.957  0.7624E+01  0.3726E+03
     15.030  0.7548E+01  0.3731E+03
     15.103  0.6987E+01  0.3737E+03
     15.176  0.6568E+01  0.3742E+03
     15.249  0.6388E+01  0.3746E+03
     15.321  0.6341E+01  0.3751E+03
     15.394  0.6011E+01  0.3756E+03
     15.467  0.5812E+01  0.3760E+03
     15.540  0.5600E+01  0.3764E+03
     15.613  0.5253E+01  0.3768E+03
     15.686  0.4961E+01  0.3772E+03
     15.759  0.4744E+01  0.3775E+03
     15.832  0.4606E+01  0.3779E+03
     15.904  0.4422E+01  0.3782E+03
     15.977  0.4198E+01  0.3785E+03
     16.050  0.4103E+01  0.3788E+03
     16.123  0.4085E+01  0.3791E+03
     16.196  0.4139E+01  0.3794E+03
     16.269  0.4165E+01  0.3797E+03
     16.342  0.4080E+01  0.3800E+03
     16.414  0.4168E+01  0.3803E+03
     16.487  0.3932E+01  0.3806E+03
     16.560  0.3583E+01  0.3809E+03
     16.633  0.3228E+01  0.3811E+03
     16.706  0.3565E+01  0.3814E+03
     16.779  0.2878E+01  0.3816E+03
     16.852  0.2609E+01  0.3818E+03
     16.925  0.2162E+01  0.3820E+03
     16.997  0.2063E+01  0.3821E+03
     17.070  0.2317E+01  0.3823E+03
     17.143  0.2158E+01  0.3825E+03
     17.216  0.1989E+01  0.3826E+03
     17.289  0.1810E+01  0.3827E+03
     17.362  0.1623E+01  0.3829E+03
     17.435  0.1523E+01  0.3830E+03
     17.508  0.1477E+01  0.3831E+03
     17.580  0.1355E+01  0.3832E+03
     17.653  0.1221E+01  0.3833E+03
     17.726  0.1104E+01  0.3834E+03
     17.799  0.1226E+01  0.3835E+03
     17.872  0.9265E+00  0.3835E+03
     17.945  0.8769E+00  0.3836E+03
     18.018  0.8240E+00  0.3837E+03
     18.090  0.7585E+00  0.3837E+03
     18.163  0.7012E+00  0.3838E+03
     18.236  0.6127E+00  0.3838E+03
     18.309  0.5177E+00  0.3839E+03
     18.382  0.4268E+00  0.3839E+03
     18.455  0.3398E+00  0.3839E+03
     18.528  0.2564E+00  0.3839E+03
     18.601  0.1967E+00  0.3840E+03
     18.673  0.1460E+00  0.3840E+03
     18.746  0.1065E+00  0.3840E+03
     18.819  0.7754E-01  0.3840E+03
     18.892  0.4542E-01  0.3840E+03
     18.965  0.2818E-01  0.3840E+03
     19.038  0.1476E-01  0.3840E+03
     19.111  0.2977E-02  0.3840E+03
     19.183  0.0000E+00  0.3840E+03
     19.256  0.0000E+00  0.3840E+03
     19.329  0.0000E+00  0.3840E+03
     19.402  0.0000E+00  0.3840E+03
     19.475  0.0000E+00  0.3840E+03
     19.548  0.0000E+00  0.3840E+03
     19.621  0.0000E+00  0.3840E+03
     19.694  0.0000E+00  0.3840E+03
     19.766  0.0000E+00  0.3840E+03
     19.839  0.0000E+00  0.3840E+03
     19.912  0.0000E+00  0.3840E+03
     19.985  0.0000E+00  0.3840E+03
     20.058  0.0000E+00  0.3840E+03
     20.131  0.0000E+00  0.3840E+03
