       N       E                     dE             d eps       ncg     rms          rms(c)
RMM:   1     0.168845817334E+04    0.16885E+04   -0.58724E+04 10368   0.629E+02
RMM:   2     0.150682194555E+03   -0.15378E+04   -0.15802E+04 10368   0.229E+02
RMM:   3    -0.149754104526E+03   -0.30044E+03   -0.24811E+03 10368   0.991E+01
RMM:   4    -0.252422161200E+03   -0.10267E+03   -0.62033E+02 10368   0.636E+01
RMM:   5    -0.280444677978E+03   -0.28023E+02   -0.22339E+02 10368   0.348E+01
RMM:   6    -0.292675552829E+03   -0.12231E+02   -0.95050E+01 10368   0.231E+01
RMM:   7    -0.297699072651E+03   -0.50235E+01   -0.42592E+01 10368   0.140E+01
RMM:   8    -0.300099216611E+03   -0.24001E+01   -0.19935E+01 10368   0.960E+00
RMM:   9    -0.302016823503E+03   -0.19176E+01   -0.17783E+01 25978   0.595E+00
RMM:  10    -0.302200865884E+03   -0.18404E+00   -0.83009E-01 27420   0.106E+00
RMM:  11    -0.302203629491E+03   -0.27636E-02   -0.20239E-02 26539   0.204E-01
RMM:  12    -0.302203703117E+03   -0.73625E-04   -0.86587E-04 26917   0.314E-02    0.257E+01
RMM:  13    -0.292454636968E+03    0.97491E+01   -0.32932E+01 21235   0.164E+01    0.208E+01
RMM:  14    -0.290769982537E+03    0.16847E+01   -0.14744E+01 21264   0.919E+00    0.178E+01
RMM:  15    -0.285594940400E+03    0.51750E+01   -0.59668E+00 21419   0.623E+00    0.969E+00
RMM:  16    -0.283880560734E+03    0.17144E+01   -0.11144E+00 21371   0.235E+00    0.198E+00
RMM:  17    -0.283807243872E+03    0.73317E-01   -0.10800E-01 22515   0.631E-01    0.116E+00
RMM:  18    -0.283740366809E+03    0.66877E-01   -0.47586E-02 21777   0.515E-01    0.945E-01
RMM:  19    -0.283709938104E+03    0.30429E-01   -0.14246E-02 21939   0.279E-01    0.510E-01
RMM:  20    -0.283701969306E+03    0.79688E-02   -0.81173E-03 21688   0.209E-01    0.503E-01
RMM:  21    -0.283696019760E+03    0.59495E-02   -0.47360E-03 21521   0.181E-01    0.287E-01
RMM:  22    -0.283694747438E+03    0.12723E-02   -0.10721E-03 21672   0.769E-02    0.598E-02
RMM:  23    -0.283694692632E+03    0.54805E-04   -0.14413E-04 22663   0.243E-02
   1 F= -.28369469E+03 E0= -.28369469E+03  d E =0.000000E+00
