<?xml version="1.0" encoding="ISO-8859-1"?>
<modeling>
 <generator>
  <i name="program" type="string">vasp </i>
  <i name="version" type="string">5.4.1  </i>
  <i name="subversion" type="string">24Jun15 (build Dec 12 2017 15:24:27) complex                          parallel </i>
  <i name="platform" type="string">IFC91_ompi </i>
  <i name="date" type="string">2020 04 03 </i>
  <i name="time" type="string">15:16:15 </i>
 </generator>
 <incar>
  <i type="string" name="SYSTEM"> Ir_Ru</i>
  <i type="int" name="ISTART">     0</i>
  <i type="string" name="PREC">accurate</i>
  <i type="string" name="ALGO"> Very_Fast</i>
  <i type="int" name="ICHARG">     2</i>
  <i type="int" name="NELMIN">     5</i>
  <i type="int" name="IBRION">    -1</i>
  <i name="EDIFFG">      0.00001000</i>
  <i type="int" name="ISIF">     2</i>
  <i type="int" name="ISMEAR">    -5</i>
  <i name="SIGMA">      0.10000000</i>
  <v type="int" name="KPOINT_BSE">    -1     0     0     0</v>
 </incar>
 <kpoints>
  <generation param="Gamma">
   <v type="int" name="divisions">       5       10        5 </v>
   <v name="usershift">      0.00000000       0.00000000       0.00000000 </v>
   <v name="genvec1">      0.20000000       0.00000000       0.00000000 </v>
   <v name="genvec2">      0.00000000       0.10000000       0.00000000 </v>
   <v name="genvec3">      0.00000000       0.00000000       0.20000000 </v>
   <v name="shift">      0.00000000       0.00000000       0.00000000 </v>
  </generation>
  <varray name="kpointlist" >
   <v>       0.00000000       0.00000000       0.00000000 </v>
   <v>       0.20000000       0.00000000       0.00000000 </v>
   <v>       0.40000000       0.00000000       0.00000000 </v>
   <v>       0.00000000       0.10000000       0.00000000 </v>
   <v>       0.20000000       0.10000000      -0.00000000 </v>
   <v>       0.40000000       0.10000000       0.00000000 </v>
   <v>       0.00000000       0.20000000       0.00000000 </v>
   <v>       0.20000000       0.20000000       0.00000000 </v>
   <v>       0.40000000       0.20000000       0.00000000 </v>
   <v>       0.00000000       0.30000000       0.00000000 </v>
   <v>       0.20000000       0.30000000       0.00000000 </v>
   <v>       0.40000000       0.30000000       0.00000000 </v>
   <v>       0.00000000       0.40000000       0.00000000 </v>
   <v>       0.20000000       0.40000000       0.00000000 </v>
   <v>       0.40000000       0.40000000       0.00000000 </v>
   <v>       0.00000000       0.50000000       0.00000000 </v>
   <v>       0.20000000       0.50000000       0.00000000 </v>
   <v>       0.40000000       0.50000000       0.00000000 </v>
   <v>       0.20000000       0.00000000       0.20000000 </v>
   <v>       0.40000000       0.00000000       0.20000000 </v>
   <v>      -0.40000000      -0.00000000       0.20000000 </v>
   <v>      -0.20000000       0.00000000       0.20000000 </v>
   <v>       0.20000000       0.10000000       0.20000000 </v>
   <v>       0.40000000       0.10000000       0.20000000 </v>
   <v>      -0.40000000       0.10000000       0.20000000 </v>
   <v>      -0.20000000       0.10000000       0.20000000 </v>
   <v>       0.20000000       0.20000000       0.20000000 </v>
   <v>       0.40000000       0.20000000       0.20000000 </v>
   <v>      -0.40000000       0.20000000       0.20000000 </v>
   <v>      -0.20000000       0.20000000       0.20000000 </v>
   <v>       0.20000000       0.30000000       0.20000000 </v>
   <v>       0.40000000       0.30000000       0.20000000 </v>
   <v>      -0.40000000       0.30000000       0.20000000 </v>
   <v>      -0.20000000       0.30000000       0.20000000 </v>
   <v>       0.20000000       0.40000000       0.20000000 </v>
   <v>       0.40000000       0.40000000       0.20000000 </v>
   <v>      -0.40000000       0.40000000       0.20000000 </v>
   <v>      -0.20000000       0.40000000       0.20000000 </v>
   <v>       0.20000000       0.50000000       0.20000000 </v>
   <v>       0.40000000       0.50000000       0.20000000 </v>
   <v>      -0.40000000       0.50000000       0.20000000 </v>
   <v>      -0.20000000       0.50000000       0.20000000 </v>
   <v>       0.40000000       0.00000000       0.40000000 </v>
   <v>      -0.40000000       0.00000000       0.40000000 </v>
   <v>       0.40000000       0.10000000       0.40000000 </v>
   <v>      -0.40000000       0.10000000       0.40000000 </v>
   <v>       0.40000000       0.20000000       0.40000000 </v>
   <v>      -0.40000000       0.20000000       0.40000000 </v>
   <v>       0.40000000       0.30000000       0.40000000 </v>
   <v>      -0.40000000       0.30000000       0.40000000 </v>
   <v>       0.40000000       0.40000000       0.40000000 </v>
   <v>      -0.40000000       0.40000000       0.40000000 </v>
   <v>       0.40000000       0.50000000       0.40000000 </v>
   <v>      -0.40000000       0.50000000       0.40000000 </v>
  </varray>
  <varray name="weights" >
   <v>       0.00400000 </v>
   <v>       0.01600000 </v>
   <v>       0.01600000 </v>
   <v>       0.00800000 </v>
   <v>       0.03200000 </v>
   <v>       0.03200000 </v>
   <v>       0.00800000 </v>
   <v>       0.03200000 </v>
   <v>       0.03200000 </v>
   <v>       0.00800000 </v>
   <v>       0.03200000 </v>
   <v>       0.03200000 </v>
   <v>       0.00800000 </v>
   <v>       0.03200000 </v>
   <v>       0.03200000 </v>
   <v>       0.00400000 </v>
   <v>       0.01600000 </v>
   <v>       0.01600000 </v>
   <v>       0.00800000 </v>
   <v>       0.01600000 </v>
   <v>       0.01600000 </v>
   <v>       0.00800000 </v>
   <v>       0.01600000 </v>
   <v>       0.03200000 </v>
   <v>       0.03200000 </v>
   <v>       0.01600000 </v>
   <v>       0.01600000 </v>
   <v>       0.03200000 </v>
   <v>       0.03200000 </v>
   <v>       0.01600000 </v>
   <v>       0.01600000 </v>
   <v>       0.03200000 </v>
   <v>       0.03200000 </v>
   <v>       0.01600000 </v>
   <v>       0.01600000 </v>
   <v>       0.03200000 </v>
   <v>       0.03200000 </v>
   <v>       0.01600000 </v>
   <v>       0.00800000 </v>
   <v>       0.01600000 </v>
   <v>       0.01600000 </v>
   <v>       0.00800000 </v>
   <v>       0.00800000 </v>
   <v>       0.00800000 </v>
   <v>       0.01600000 </v>
   <v>       0.01600000 </v>
   <v>       0.01600000 </v>
   <v>       0.01600000 </v>
   <v>       0.01600000 </v>
   <v>       0.01600000 </v>
   <v>       0.01600000 </v>
   <v>       0.01600000 </v>
   <v>       0.00800000 </v>
   <v>       0.00800000 </v>
  </varray>
  <varray name="tetrahedronlist"  type="int" >
   <v type="int" >        4        1        2        4       19 </v>
   <v type="int" >        4        2        4        5       19 </v>
   <v type="int" >        4        4        5       19       23 </v>
   <v type="int" >        4        2        3        5       20 </v>
   <v type="int" >        4        3        5        6       20 </v>
   <v type="int" >        4        5        6       20       24 </v>
   <v type="int" >        4        2        5       19       20 </v>
   <v type="int" >        4        5       19       20       23 </v>
   <v type="int" >        4        5       20       23       24 </v>
   <v type="int" >        4        3        3        6       21 </v>
   <v type="int" >        4        3        6        6       21 </v>
   <v type="int" >        4        6        6       21       25 </v>
   <v type="int" >        4        3        6       20       21 </v>
   <v type="int" >        4        6       20       21       24 </v>
   <v type="int" >        4        6       21       24       25 </v>
   <v type="int" >        4        2        3        6       22 </v>
   <v type="int" >        4        2        5        6       22 </v>
   <v type="int" >        4        5        6       22       26 </v>
   <v type="int" >        4        3        6       21       22 </v>
   <v type="int" >        4        6       21       22       25 </v>
   <v type="int" >        4        6       22       25       26 </v>
   <v type="int" >        4        1        2        2        5 </v>
   <v type="int" >        4        1        2        4        5 </v>
   <v type="int" >        4        2        4        5        5 </v>
   <v type="int" >        4        2        2        5       22 </v>
   <v type="int" >        4        2        5       22       26 </v>
   <v type="int" >        4        2        5        5       26 </v>
   <v type="int" >        4        4        5        7       23 </v>
   <v type="int" >        4        5        7        8       23 </v>
   <v type="int" >        4        7        8       23       27 </v>
   <v type="int" >        4        5        6        8       24 </v>
   <v type="int" >        4        6        8        9       24 </v>
   <v type="int" >        4        8        9       24       28 </v>
   <v type="int" >        4        5        8       23       24 </v>
   <v type="int" >        4        8       23       24       27 </v>
   <v type="int" >        4        8       24       27       28 </v>
   <v type="int" >        4        6        6        9       25 </v>
   <v type="int" >        4        6        9        9       25 </v>
   <v type="int" >        4        9        9       25       29 </v>
   <v type="int" >        4        6        9       24       25 </v>
   <v type="int" >        4        9       24       25       28 </v>
   <v type="int" >        4        9       25       28       29 </v>
   <v type="int" >        4        5        6        9       26 </v>
   <v type="int" >        4        5        8        9       26 </v>
   <v type="int" >        4        8        9       26       30 </v>
   <v type="int" >        4        6        9       25       26 </v>
   <v type="int" >        4        9       25       26       29 </v>
   <v type="int" >        4        9       26       29       30 </v>
   <v type="int" >        4        4        5        5        8 </v>
   <v type="int" >        4        4        5        7        8 </v>
   <v type="int" >        4        5        7        8        8 </v>
   <v type="int" >        4        5        5        8       26 </v>
   <v type="int" >        4        5        8       26       30 </v>
   <v type="int" >        4        5        8        8       30 </v>
   <v type="int" >        4        7        8       10       27 </v>
   <v type="int" >        4        8       10       11       27 </v>
   <v type="int" >        4       10       11       27       31 </v>
   <v type="int" >        4        8        9       11       28 </v>
   <v type="int" >        4        9       11       12       28 </v>
   <v type="int" >        4       11       12       28       32 </v>
   <v type="int" >        4        8       11       27       28 </v>
   <v type="int" >        4       11       27       28       31 </v>
   <v type="int" >        4       11       28       31       32 </v>
   <v type="int" >        4        9        9       12       29 </v>
   <v type="int" >        4        9       12       12       29 </v>
   <v type="int" >        4       12       12       29       33 </v>
   <v type="int" >        4        9       12       28       29 </v>
   <v type="int" >        4       12       28       29       32 </v>
   <v type="int" >        4       12       29       32       33 </v>
   <v type="int" >        4        8        9       12       30 </v>
   <v type="int" >        4        8       11       12       30 </v>
   <v type="int" >        4       11       12       30       34 </v>
   <v type="int" >        4        9       12       29       30 </v>
   <v type="int" >        4       12       29       30       33 </v>
   <v type="int" >        4       12       30       33       34 </v>
   <v type="int" >        4        7        8        8       11 </v>
   <v type="int" >        4        7        8       10       11 </v>
   <v type="int" >        4        8       10       11       11 </v>
   <v type="int" >        4        8        8       11       30 </v>
   <v type="int" >        4        8       11       30       34 </v>
   <v type="int" >        4        8       11       11       34 </v>
   <v type="int" >        4       10       11       13       31 </v>
   <v type="int" >        4       11       13       14       31 </v>
   <v type="int" >        4       13       14       31       35 </v>
   <v type="int" >        4       11       12       14       32 </v>
   <v type="int" >        4       12       14       15       32 </v>
   <v type="int" >        4       14       15       32       36 </v>
   <v type="int" >        4       11       14       31       32 </v>
   <v type="int" >        4       14       31       32       35 </v>
   <v type="int" >        4       14       32       35       36 </v>
   <v type="int" >        4       12       12       15       33 </v>
   <v type="int" >        4       12       15       15       33 </v>
   <v type="int" >        4       15       15       33       37 </v>
   <v type="int" >        4       12       15       32       33 </v>
   <v type="int" >        4       15       32       33       36 </v>
   <v type="int" >        4       15       33       36       37 </v>
   <v type="int" >        4       11       12       15       34 </v>
   <v type="int" >        4       11       14       15       34 </v>
   <v type="int" >        4       14       15       34       38 </v>
   <v type="int" >        4       12       15       33       34 </v>
   <v type="int" >        4       15       33       34       37 </v>
   <v type="int" >        4       15       34       37       38 </v>
   <v type="int" >        4       10       11       11       14 </v>
   <v type="int" >        4       10       11       13       14 </v>
   <v type="int" >        4       11       13       14       14 </v>
   <v type="int" >        4       11       11       14       34 </v>
   <v type="int" >        4       11       14       34       38 </v>
   <v type="int" >        4       11       14       14       38 </v>
   <v type="int" >        4       13       14       16       35 </v>
   <v type="int" >        4       14       16       17       35 </v>
   <v type="int" >        4       16       17       35       39 </v>
   <v type="int" >        4       14       15       17       36 </v>
   <v type="int" >        4       15       17       18       36 </v>
   <v type="int" >        4       17       18       36       40 </v>
   <v type="int" >        4       14       17       35       36 </v>
   <v type="int" >        4       17       35       36       39 </v>
   <v type="int" >        4       17       36       39       40 </v>
   <v type="int" >        4       15       15       18       37 </v>
   <v type="int" >        4       15       18       18       37 </v>
   <v type="int" >        4       18       18       37       41 </v>
   <v type="int" >        4       15       18       36       37 </v>
   <v type="int" >        4       18       36       37       40 </v>
   <v type="int" >        4       18       37       40       41 </v>
   <v type="int" >        4       14       15       18       38 </v>
   <v type="int" >        4       14       17       18       38 </v>
   <v type="int" >        4       17       18       38       42 </v>
   <v type="int" >        4       15       18       37       38 </v>
   <v type="int" >        4       18       37       38       41 </v>
   <v type="int" >        4       18       38       41       42 </v>
   <v type="int" >        4       13       14       14       17 </v>
   <v type="int" >        4       13       14       16       17 </v>
   <v type="int" >        4       14       16       17       17 </v>
   <v type="int" >        4       14       14       17       38 </v>
   <v type="int" >        4       14       17       38       42 </v>
   <v type="int" >        4       14       17       17       42 </v>
   <v type="int" >        4       13       16       17       39 </v>
   <v type="int" >        4       13       14       17       39 </v>
   <v type="int" >        4       13       14       35       39 </v>
   <v type="int" >        4       14       17       18       40 </v>
   <v type="int" >        4       14       15       18       40 </v>
   <v type="int" >        4       14       15       36       40 </v>
   <v type="int" >        4       14       17       39       40 </v>
   <v type="int" >        4       14       35       39       40 </v>
   <v type="int" >        4       14       35       36       40 </v>
   <v type="int" >        4       15       18       18       41 </v>
   <v type="int" >        4       15       15       18       41 </v>
   <v type="int" >        4       15       15       37       41 </v>
   <v type="int" >        4       15       18       40       41 </v>
   <v type="int" >        4       15       36       40       41 </v>
   <v type="int" >        4       15       36       37       41 </v>
   <v type="int" >        4       15       17       18       42 </v>
   <v type="int" >        4       14       15       17       42 </v>
   <v type="int" >        4       14       15       38       42 </v>
   <v type="int" >        4       15       18       41       42 </v>
   <v type="int" >        4       15       37       41       42 </v>
   <v type="int" >        4       15       37       38       42 </v>
   <v type="int" >        4       10       13       14       35 </v>
   <v type="int" >        4       10       11       14       35 </v>
   <v type="int" >        4       10       11       31       35 </v>
   <v type="int" >        4       11       14       15       36 </v>
   <v type="int" >        4       11       12       15       36 </v>
   <v type="int" >        4       11       12       32       36 </v>
   <v type="int" >        4       11       14       35       36 </v>
   <v type="int" >        4       11       31       35       36 </v>
   <v type="int" >        4       11       31       32       36 </v>
   <v type="int" >        4       12       15       15       37 </v>
   <v type="int" >        4       12       12       15       37 </v>
   <v type="int" >        4       12       12       33       37 </v>
   <v type="int" >        4       12       15       36       37 </v>
   <v type="int" >        4       12       32       36       37 </v>
   <v type="int" >        4       12       32       33       37 </v>
   <v type="int" >        4       12       14       15       38 </v>
   <v type="int" >        4       11       12       14       38 </v>
   <v type="int" >        4       11       12       34       38 </v>
   <v type="int" >        4       12       15       37       38 </v>
   <v type="int" >        4       12       33       37       38 </v>
   <v type="int" >        4       12       33       34       38 </v>
   <v type="int" >        4        7       10       11       31 </v>
   <v type="int" >        4        7        8       11       31 </v>
   <v type="int" >        4        7        8       27       31 </v>
   <v type="int" >        4        8       11       12       32 </v>
   <v type="int" >        4        8        9       12       32 </v>
   <v type="int" >        4        8        9       28       32 </v>
   <v type="int" >        4        8       11       31       32 </v>
   <v type="int" >        4        8       27       31       32 </v>
   <v type="int" >        4        8       27       28       32 </v>
   <v type="int" >        4        9       12       12       33 </v>
   <v type="int" >        4        9        9       12       33 </v>
   <v type="int" >        4        9        9       29       33 </v>
   <v type="int" >        4        9       12       32       33 </v>
   <v type="int" >        4        9       28       32       33 </v>
   <v type="int" >        4        9       28       29       33 </v>
   <v type="int" >        4        9       11       12       34 </v>
   <v type="int" >        4        8        9       11       34 </v>
   <v type="int" >        4        8        9       30       34 </v>
   <v type="int" >        4        9       12       33       34 </v>
   <v type="int" >        4        9       29       33       34 </v>
   <v type="int" >        4        9       29       30       34 </v>
   <v type="int" >        4        4        7        8       27 </v>
   <v type="int" >        4        4        5        8       27 </v>
   <v type="int" >        4        4        5       23       27 </v>
   <v type="int" >        4        5        8        9       28 </v>
   <v type="int" >        4        5        6        9       28 </v>
   <v type="int" >        4        5        6       24       28 </v>
   <v type="int" >        4        5        8       27       28 </v>
   <v type="int" >        4        5       23       27       28 </v>
   <v type="int" >        4        5       23       24       28 </v>
   <v type="int" >        4        6        9        9       29 </v>
   <v type="int" >        4        6        6        9       29 </v>
   <v type="int" >        4        6        6       25       29 </v>
   <v type="int" >        4        6        9       28       29 </v>
   <v type="int" >        4        6       24       28       29 </v>
   <v type="int" >        4        6       24       25       29 </v>
   <v type="int" >        4        6        8        9       30 </v>
   <v type="int" >        4        5        6        8       30 </v>
   <v type="int" >        4        5        6       26       30 </v>
   <v type="int" >        4        6        9       29       30 </v>
   <v type="int" >        4        6       25       29       30 </v>
   <v type="int" >        4        6       25       26       30 </v>
   <v type="int" >        4        1        4        5       23 </v>
   <v type="int" >        4        1        2        5       23 </v>
   <v type="int" >        4        1        2       19       23 </v>
   <v type="int" >        4        2        5        6       24 </v>
   <v type="int" >        4        2        3        6       24 </v>
   <v type="int" >        4        2        3       20       24 </v>
   <v type="int" >        4        2        5       23       24 </v>
   <v type="int" >        4        2       19       23       24 </v>
   <v type="int" >        4        2       19       20       24 </v>
   <v type="int" >        4        3        6        6       25 </v>
   <v type="int" >        4        3        3        6       25 </v>
   <v type="int" >        4        3        3       21       25 </v>
   <v type="int" >        4        3        6       24       25 </v>
   <v type="int" >        4        3       20       24       25 </v>
   <v type="int" >        4        3       20       21       25 </v>
   <v type="int" >        4        3        5        6       26 </v>
   <v type="int" >        4        2        3        5       26 </v>
   <v type="int" >        4        2        3       22       26 </v>
   <v type="int" >        4        3        6       25       26 </v>
   <v type="int" >        4        3       21       25       26 </v>
   <v type="int" >        4        3       21       22       26 </v>
   <v type="int" >        4       19       20       23       43 </v>
   <v type="int" >        4       20       23       24       43 </v>
   <v type="int" >        4       23       24       43       45 </v>
   <v type="int" >        4       20       21       24       44 </v>
   <v type="int" >        4       21       24       25       44 </v>
   <v type="int" >        4       24       25       44       46 </v>
   <v type="int" >        4       20       24       43       44 </v>
   <v type="int" >        4       24       43       44       45 </v>
   <v type="int" >        4       24       44       45       46 </v>
   <v type="int" >        4       21       21       22       25 </v>
   <v type="int" >        4       21       22       25       26 </v>
   <v type="int" >        4       21       25       25       26 </v>
   <v type="int" >        4       21       21       25       44 </v>
   <v type="int" >        4       21       25       44       46 </v>
   <v type="int" >        4       21       25       25       46 </v>
   <v type="int" >        4       23       24       27       45 </v>
   <v type="int" >        4       24       27       28       45 </v>
   <v type="int" >        4       27       28       45       47 </v>
   <v type="int" >        4       24       25       28       46 </v>
   <v type="int" >        4       25       28       29       46 </v>
   <v type="int" >        4       28       29       46       48 </v>
   <v type="int" >        4       24       28       45       46 </v>
   <v type="int" >        4       28       45       46       47 </v>
   <v type="int" >        4       28       46       47       48 </v>
   <v type="int" >        4       25       25       26       29 </v>
   <v type="int" >        4       25       26       29       30 </v>
   <v type="int" >        4       25       29       29       30 </v>
   <v type="int" >        4       25       25       29       46 </v>
   <v type="int" >        4       25       29       46       48 </v>
   <v type="int" >        4       25       29       29       48 </v>
   <v type="int" >        4       27       28       31       47 </v>
   <v type="int" >        4       28       31       32       47 </v>
   <v type="int" >        4       31       32       47       49 </v>
   <v type="int" >        4       28       29       32       48 </v>
   <v type="int" >        4       29       32       33       48 </v>
   <v type="int" >        4       32       33       48       50 </v>
   <v type="int" >        4       28       32       47       48 </v>
   <v type="int" >        4       32       47       48       49 </v>
   <v type="int" >        4       32       48       49       50 </v>
   <v type="int" >        4       29       29       30       33 </v>
   <v type="int" >        4       29       30       33       34 </v>
   <v type="int" >        4       29       33       33       34 </v>
   <v type="int" >        4       29       29       33       48 </v>
   <v type="int" >        4       29       33       48       50 </v>
   <v type="int" >        4       29       33       33       50 </v>
   <v type="int" >        4       31       32       35       49 </v>
   <v type="int" >        4       32       35       36       49 </v>
   <v type="int" >        4       35       36       49       51 </v>
   <v type="int" >        4       32       33       36       50 </v>
   <v type="int" >        4       33       36       37       50 </v>
   <v type="int" >        4       36       37       50       52 </v>
   <v type="int" >        4       32       36       49       50 </v>
   <v type="int" >        4       36       49       50       51 </v>
   <v type="int" >        4       36       50       51       52 </v>
   <v type="int" >        4       33       33       34       37 </v>
   <v type="int" >        4       33       34       37       38 </v>
   <v type="int" >        4       33       37       37       38 </v>
   <v type="int" >        4       33       33       37       50 </v>
   <v type="int" >        4       33       37       50       52 </v>
   <v type="int" >        4       33       37       37       52 </v>
   <v type="int" >        4       35       36       39       51 </v>
   <v type="int" >        4       36       39       40       51 </v>
   <v type="int" >        4       39       40       51       53 </v>
   <v type="int" >        4       36       37       40       52 </v>
   <v type="int" >        4       37       40       41       52 </v>
   <v type="int" >        4       40       41       52       54 </v>
   <v type="int" >        4       36       40       51       52 </v>
   <v type="int" >        4       40       51       52       53 </v>
   <v type="int" >        4       40       52       53       54 </v>
   <v type="int" >        4       37       37       38       41 </v>
   <v type="int" >        4       37       38       41       42 </v>
   <v type="int" >        4       37       41       41       42 </v>
   <v type="int" >        4       37       37       41       52 </v>
   <v type="int" >        4       37       41       52       54 </v>
   <v type="int" >        4       37       41       41       54 </v>
   <v type="int" >        4       35       39       40       53 </v>
   <v type="int" >        4       35       36       40       53 </v>
   <v type="int" >        4       35       36       51       53 </v>
   <v type="int" >        4       36       40       41       54 </v>
   <v type="int" >        4       36       37       41       54 </v>
   <v type="int" >        4       36       37       52       54 </v>
   <v type="int" >        4       36       40       53       54 </v>
   <v type="int" >        4       36       51       53       54 </v>
   <v type="int" >        4       36       51       52       54 </v>
   <v type="int" >        4       31       35       36       51 </v>
   <v type="int" >        4       31       32       36       51 </v>
   <v type="int" >        4       31       32       49       51 </v>
   <v type="int" >        4       32       36       37       52 </v>
   <v type="int" >        4       32       33       37       52 </v>
   <v type="int" >        4       32       33       50       52 </v>
   <v type="int" >        4       32       36       51       52 </v>
   <v type="int" >        4       32       49       51       52 </v>
   <v type="int" >        4       32       49       50       52 </v>
   <v type="int" >        4       27       31       32       49 </v>
   <v type="int" >        4       27       28       32       49 </v>
   <v type="int" >        4       27       28       47       49 </v>
   <v type="int" >        4       28       32       33       50 </v>
   <v type="int" >        4       28       29       33       50 </v>
   <v type="int" >        4       28       29       48       50 </v>
   <v type="int" >        4       28       32       49       50 </v>
   <v type="int" >        4       28       47       49       50 </v>
   <v type="int" >        4       28       47       48       50 </v>
   <v type="int" >        4       23       27       28       47 </v>
   <v type="int" >        4       23       24       28       47 </v>
   <v type="int" >        4       23       24       45       47 </v>
   <v type="int" >        4       24       28       29       48 </v>
   <v type="int" >        4       24       25       29       48 </v>
   <v type="int" >        4       24       25       46       48 </v>
   <v type="int" >        4       24       28       47       48 </v>
   <v type="int" >        4       24       45       47       48 </v>
   <v type="int" >        4       24       45       46       48 </v>
   <v type="int" >        4       19       23       24       45 </v>
   <v type="int" >        4       19       20       24       45 </v>
   <v type="int" >        4       19       20       43       45 </v>
   <v type="int" >        4       20       24       25       46 </v>
   <v type="int" >        4       20       21       25       46 </v>
   <v type="int" >        4       20       21       44       46 </v>
   <v type="int" >        4       20       24       45       46 </v>
   <v type="int" >        4       20       43       45       46 </v>
   <v type="int" >        4       20       43       44       46 </v>
   <v type="int" >        4       43       43       44       45 </v>
   <v type="int" >        4       43       44       45       46 </v>
   <v type="int" >        4       43       45       45       46 </v>
   <v type="int" >        4       45       45       46       47 </v>
   <v type="int" >        4       45       46       47       48 </v>
   <v type="int" >        4       45       47       47       48 </v>
   <v type="int" >        4       47       47       48       49 </v>
   <v type="int" >        4       47       48       49       50 </v>
   <v type="int" >        4       47       49       49       50 </v>
   <v type="int" >        4       49       49       50       51 </v>
   <v type="int" >        4       49       50       51       52 </v>
   <v type="int" >        4       49       51       51       52 </v>
   <v type="int" >        4       51       51       52       53 </v>
   <v type="int" >        4       51       52       53       54 </v>
   <v type="int" >        4       51       53       53       54 </v>
  </varray>
  <i name="volumeweight">      0.00066667 </i>
 </kpoints>
 <parameters>
  <separator name="general" >
   <i type="string" name="SYSTEM">Ir_Ru</i>
   <i type="logical" name="LCOMPAT"> F  </i>
  </separator>
  <separator name="electronic" >
   <i type="string" name="PREC">accura</i>
   <i name="ENMAX">    213.27600000</i>
   <i name="ENAUG">    333.49400000</i>
   <i name="EDIFF">      0.00010000</i>
   <i type="int" name="IALGO">    48</i>
   <i type="int" name="IWAVPR">    10</i>
   <i type="int" name="NBANDS">   192</i>
   <i name="NELECT">    284.00000000</i>
   <i type="int" name="TURBO">     0</i>
   <i type="int" name="IRESTART">     0</i>
   <i type="int" name="NREBOOT">     0</i>
   <i type="int" name="NMIN">     0</i>
   <i name="EREF">      0.00000000</i>
   <separator name="electronic smearing" >
    <i type="int" name="ISMEAR">    -5</i>
    <i name="SIGMA">      0.10000000</i>
    <i name="KSPACING">      0.50000000</i>
    <i type="logical" name="KGAMMA"> T  </i>
   </separator>
   <separator name="electronic projectors" >
    <i type="logical" name="LREAL"> F  </i>
    <v name="ROPT">      0.00000000      0.00000000</v>
    <i type="int" name="LMAXPAW">  -100</i>
    <i type="int" name="LMAXMIX">     2</i>
    <i type="logical" name="NLSPLINE"> F  </i>
   </separator>
   <separator name="electronic startup" >
    <i type="int" name="ISTART">     0</i>
    <i type="int" name="ICHARG">     2</i>
    <i type="int" name="INIWAV">     1</i>
   </separator>
   <separator name="electronic spin" >
    <i type="int" name="ISPIN">     1</i>
    <i type="logical" name="LNONCOLLINEAR"> F  </i>
    <v name="MAGMOM">      1.00000000      1.00000000      1.00000000      1.00000000      1.00000000      1.00000000      1.00000000      1.00000000      1.00000000      1.00000000      1.00000000      1.00000000      1.00000000      1.00000000      1.00000000      1.00000000      1.00000000      1.00000000      1.00000000      1.00000000
      1.00000000      1.00000000      1.00000000      1.00000000      1.00000000      1.00000000      1.00000000      1.00000000      1.00000000      1.00000000      1.00000000      1.00000000</v>
    <i name="NUPDOWN">     -1.00000000</i>
    <i type="logical" name="LSORBIT"> F  </i>
    <v name="SAXIS">      0.00000000      0.00000000      1.00000000</v>
    <i type="logical" name="LSPIRAL"> F  </i>
    <v name="QSPIRAL">      0.00000000      0.00000000      0.00000000</v>
    <i type="logical" name="LZEROZ"> F  </i>
   </separator>
   <separator name="electronic exchange-correlation" >
    <i type="logical" name="LASPH"> F  </i>
    <i type="logical" name="LMETAGGA"> F  </i>
   </separator>
   <separator name="electronic convergence" >
    <i type="int" name="NELM">    60</i>
    <i type="int" name="NELMDL">   -12</i>
    <i type="int" name="NELMIN">     5</i>
    <i name="ENINI">    213.27600000</i>
    <separator name="electronic convergence detail" >
     <i type="logical" name="LDIAG"> T  </i>
     <i type="logical" name="LSUBROT"> F  </i>
     <i name="WEIMIN">      0.00000000</i>
     <i name="EBREAK">      0.00000000</i>
     <i name="DEPER">      0.30000000</i>
     <i type="int" name="NRMM">     4</i>
     <i name="TIME">      0.40000000</i>
    </separator>
   </separator>
   <separator name="electronic mixer" >
    <i name="AMIX">      0.40000000</i>
    <i name="BMIX">      1.00000000</i>
    <i name="AMIN">      0.10000000</i>
    <i name="AMIX_MAG">      1.60000000</i>
    <i name="BMIX_MAG">      1.00000000</i>
    <separator name="electronic mixer details" >
     <i type="int" name="IMIX">     4</i>
     <i type="logical" name="MIXFIRST"> F  </i>
     <i type="int" name="MAXMIX">   -45</i>
     <i name="WC">    100.00000000</i>
     <i type="int" name="INIMIX">     1</i>
     <i type="int" name="MIXPRE">     1</i>
     <i type="int" name="MREMOVE">     5</i>
    </separator>
   </separator>
   <separator name="electronic dipolcorrection" >
    <i type="logical" name="LDIPOL"> F  </i>
    <i type="logical" name="LMONO"> F  </i>
    <i type="int" name="IDIPOL">     0</i>
    <i name="EPSILON">      1.00000000</i>
    <v name="DIPOL">   -100.00000000   -100.00000000   -100.00000000</v>
    <i name="EFIELD">      0.00000000</i>
   </separator>
  </separator>
  <separator name="grids" >
   <i type="int" name="NGX">    50</i>
   <i type="int" name="NGY">    28</i>
   <i type="int" name="NGZ">    50</i>
   <i type="int" name="NGXF">   100</i>
   <i type="int" name="NGYF">    56</i>
   <i type="int" name="NGZF">   100</i>
   <i type="logical" name="ADDGRID"> F  </i>
  </separator>
  <separator name="ionic" >
   <i type="int" name="NSW">     0</i>
   <i type="int" name="IBRION">    -1</i>
   <i type="int" name="ISIF">     2</i>
   <i name="PSTRESS">      0.00000000</i>
   <i name="EDIFFG">      0.00001000</i>
   <i type="int" name="NFREE">     0</i>
   <i name="POTIM">      0.50000000</i>
   <i name="SMASS">     -3.00000000</i>
   <i name="SCALEE">      1.00000000</i>
  </separator>
  <separator name="ionic md" >
   <i name="TEBEG">      0.00010000</i>
   <i name="TEEND">      0.00010000</i>
   <i type="int" name="NBLOCK">     1</i>
   <i type="int" name="KBLOCK">     1</i>
   <i type="int" name="NPACO">   256</i>
   <i name="APACO">     16.00000000</i>
  </separator>
  <separator name="symmetry" >
   <i type="int" name="ISYM">     2</i>
   <i name="SYMPREC">      0.00001000</i>
  </separator>
  <separator name="dos" >
   <i type="logical" name="LORBIT"> F  </i>
   <v name="RWIGS">     -1.00000000     -1.00000000</v>
   <i type="int" name="NEDOS">   301</i>
   <i name="EMIN">     10.00000000</i>
   <i name="EMAX">    -10.00000000</i>
   <i name="EFERMI">      0.00000000</i>
  </separator>
  <separator name="writing" >
   <i type="int" name="NWRITE">     2</i>
   <i type="logical" name="LWAVE"> T  </i>
   <i type="logical" name="LCHARG"> T  </i>
   <i type="logical" name="LPARD"> F  </i>
   <i type="logical" name="LVTOT"> F  </i>
   <i type="logical" name="LVHAR"> F  </i>
   <i type="logical" name="LELF"> F  </i>
   <i type="logical" name="LOPTICS"> F  </i>
   <v name="STM">      0.00000000      0.00000000      0.00000000      0.00000000      0.00000000      0.00000000      0.00000000</v>
  </separator>
  <separator name="performance" >
   <i type="int" name="NPAR">    64</i>
   <i type="int" name="NSIM">     4</i>
   <i type="int" name="NBLK">    -1</i>
   <i type="logical" name="LPLANE"> T  </i>
   <i type="logical" name="LSCALAPACK"> T  </i>
   <i type="logical" name="LSCAAWARE"> T  </i>
   <i type="logical" name="LSCALU"> F  </i>
   <i type="logical" name="LASYNC"> F  </i>
   <i type="logical" name="LORBITALREAL"> F  </i>
  </separator>
  <separator name="miscellaneous" >
   <i type="int" name="IDIOT">     3</i>
   <i type="logical" name="LMUSIC"> F  </i>
   <v name="POMASS">    192.22000000    101.07000000</v>
   <v name="DARWINR">      0.00000000      0.00000000</v>
   <v name="DARWINV">      1.00000000      1.00000000</v>
   <i type="logical" name="LCORR"> T  </i>
  </separator>
  <i type="logical" name="GGA_COMPAT"> T  </i>
  <i type="logical" name="LBERRY"> F  </i>
  <i type="int" name="ICORELEVEL">     0</i>
  <i type="logical" name="LDAU"> F  </i>
  <i type="int" name="I_CONSTRAINED_M">     0</i>
  <separator name="electronic exchange-correlation" >
   <i type="string" name="GGA">--</i>
   <i type="int" name="VOSKOWN">     0</i>
   <i type="logical" name="LHFCALC"> F  </i>
   <i type="string" name="PRECFOCK"></i>
   <i type="logical" name="LSYMGRAD"> F  </i>
   <i type="logical" name="LHFONE"> F  </i>
   <i type="logical" name="LRHFCALC"> F  </i>
   <i type="logical" name="LTHOMAS"> F  </i>
   <i type="logical" name="LMODELHF"> F  </i>
   <i name="ENCUT4O">     -1.00000000</i>
   <i type="int" name="EXXOEP">     0</i>
   <i type="int" name="FOURORBIT">     0</i>
   <i name="AEXX">      0.00000000</i>
   <i name="HFALPHA">      0.00000000</i>
   <i name="MCALPHA">      0.00000000</i>
   <i name="ALDAX">      1.00000000</i>
   <i name="AGGAX">      1.00000000</i>
   <i name="ALDAC">      1.00000000</i>
   <i name="AGGAC">      1.00000000</i>
   <i type="int" name="NKREDX">     1</i>
   <i type="int" name="NKREDY">     1</i>
   <i type="int" name="NKREDZ">     1</i>
   <i type="logical" name="SHIFTRED"> F  </i>
   <i type="logical" name="ODDONLY"> F  </i>
   <i type="logical" name="EVENONLY"> F  </i>
   <i type="int" name="LMAXFOCK">     0</i>
   <i type="int" name="NMAXFOCKAE">     0</i>
   <i type="logical" name="LFOCKAEDFT"> F  </i>
   <i name="HFSCREEN">      0.00000000</i>
   <i name="HFSCREENC">      0.00000000</i>
   <i type="int" name="NBANDSGWLOW">     0</i>
  </separator>
  <separator name="vdW DFT" >
   <i type="logical" name="LUSE_VDW"> F  </i>
   <i name="Zab_VDW">     -0.84910000</i>
   <i name="PARAM1">      0.12340000</i>
   <i name="PARAM2">      1.00000000</i>
   <i name="PARAM3">      0.00000000</i>
  </separator>
  <separator name="model GW" >
   <i type="int" name="MODEL_GW">     0</i>
   <i name="MODEL_EPS0">      8.70211180</i>
   <i name="MODEL_ALPHA">      1.00000000</i>
  </separator>
  <separator name="linear response parameters" >
   <i type="logical" name="LEPSILON"> F  </i>
   <i type="logical" name="LRPA"> F  </i>
   <i type="logical" name="LNABLA"> F  </i>
   <i type="logical" name="LVEL"> F  </i>
   <i type="int" name="KINTER">     0</i>
   <i name="CSHIFT">      0.10000000</i>
   <i name="OMEGAMAX">     -1.00000000</i>
   <i name="DEG_THRESHOLD">      0.00200000</i>
  </separator>
  <separator name="orbital magnetization" >
   <i type="logical" name="NUCIND"> F  </i>
   <v name="MAGPOS">      0.00000000      0.00000000      0.00000000</v>
   <i type="logical" name="LNICSALL"> T  </i>
   <i type="logical" name="ORBITALMAG"> F  </i>
   <i type="logical" name="LMAGBLOCH"> F  </i>
   <i type="logical" name="LCHIMAG"> F  </i>
   <i type="logical" name="LGAUGE"> T  </i>
   <i type="int" name="MAGATOM">     0</i>
   <v name="MAGDIPOL">      0.00000000      0.00000000      0.00000000</v>
   <v name="AVECCONST">      0.00000000      0.00000000      0.00000000</v>
  </separator>
  <separator name="response functions" >
   <i type="logical" name="LADDER"> F  </i>
   <i type="logical" name="LFXC"> F  </i>
   <i type="logical" name="LHARTREE"> T  </i>
   <i type="int" name="IBSE">     0</i>
   <v type="int" name="KPOINT">    -1     0     0     0</v>
   <i type="logical" name="LTCTE"> F  </i>
   <i type="logical" name="LTETE"> F  </i>
   <i type="logical" name="LTRIPLET"> F  </i>
   <i type="logical" name="LFXCEPS"> F  </i>
   <i type="logical" name="LFXHEG"> F  </i>
   <i type="int" name="NATURALO">     0</i>
   <i type="logical" name="L2ORDER"> F  </i>
   <i type="logical" name="LUSEW"> F  </i>
   <i name="ENCUTGW">     -2.00000000</i>
   <i name="ENCUTGWSOFT">     -2.00000000</i>
   <i name="ENCUTLF">     -1.00000000</i>
   <i type="int" name="LMAXMP2">    -1</i>
   <i name="SCISSOR">      0.00000000</i>
   <i type="int" name="NOMEGA">     0</i>
   <i type="int" name="NOMEGAR">     0</i>
   <i type="int" name="NBANDSGW">    -1</i>
   <i type="int" name="NBANDSO">    -1</i>
   <i type="int" name="NBANDSV">    -1</i>
   <i type="int" name="NELM">     1</i>
   <i type="int" name="NELMHF">     1</i>
   <i type="int" name="DIM">     3</i>
   <i type="int" name="ANTIRES">     0</i>
   <i name="OMEGAMAX">    -30.00000000</i>
   <i name="OMEGAMIN">    -30.00000000</i>
   <i name="OMEGATL">   -200.00000000</i>
   <i type="int" name="OMEGAGRID">     0</i>
   <i name="CSHIFT">     -0.10000000</i>
   <i type="logical" name="SELFENERGY"> F  </i>
   <i type="logical" name="LSPECTRAL"> F  </i>
   <i type="logical" name="LSPECTRALGW"> F  </i>
   <i type="logical" name="LSINGLES"> F  </i>
   <i type="logical" name="LFERMIGW"> F  </i>
   <i type="logical" name="ODDONLYGW"> F  </i>
   <i type="logical" name="EVENONLYGW"> F  </i>
   <i type="int" name="NKREDLFX">     1</i>
   <i type="int" name="NKREDLFY">     1</i>
   <i type="int" name="NKREDLFZ">     1</i>
   <i type="int" name="MAXMEM">  1800</i>
   <i type="int" name="TELESCOPE">     0</i>
   <i type="int" name="TAUPAR">     1</i>
   <i type="int" name="OMEGAPAR">    -1</i>
   <i name="LAMBDA">      1.00000000</i>
  </separator>
  <separator name="External order field" >
   <i name="OFIELD_KAPPA">      0.00000000</i>
   <v name="OFIELD_K">      0.00000000      0.00000000      0.00000000</v>
   <i name="OFIELD_Q6_NEAR">      0.00000000</i>
   <i name="OFIELD_Q6_FAR">      0.00000000</i>
   <i name="OFIELD_A">      0.00000000</i>
  </separator>
 </parameters>
 <atominfo>
  <atoms>      32 </atoms>
  <types>       2 </types>
  <array name="atoms" >
   <dimension dim="1">ion</dimension>
   <field type="string">element</field>
   <field type="int">atomtype</field>
   <set>
    <rc><c>Ir</c><c>   1</c></rc>
    <rc><c>Ir</c><c>   1</c></rc>
    <rc><c>Ir</c><c>   1</c></rc>
    <rc><c>Ir</c><c>   1</c></rc>
    <rc><c>Ir</c><c>   1</c></rc>
    <rc><c>Ir</c><c>   1</c></rc>
    <rc><c>Ir</c><c>   1</c></rc>
    <rc><c>Ir</c><c>   1</c></rc>
    <rc><c>Ir</c><c>   1</c></rc>
    <rc><c>Ir</c><c>   1</c></rc>
    <rc><c>Ir</c><c>   1</c></rc>
    <rc><c>Ir</c><c>   1</c></rc>
    <rc><c>Ir</c><c>   1</c></rc>
    <rc><c>Ir</c><c>   1</c></rc>
    <rc><c>Ir</c><c>   1</c></rc>
    <rc><c>Ir</c><c>   1</c></rc>
    <rc><c>Ir</c><c>   1</c></rc>
    <rc><c>Ir</c><c>   1</c></rc>
    <rc><c>Ir</c><c>   1</c></rc>
    <rc><c>Ir</c><c>   1</c></rc>
    <rc><c>Ir</c><c>   1</c></rc>
    <rc><c>Ir</c><c>   1</c></rc>
    <rc><c>Ir</c><c>   1</c></rc>
    <rc><c>Ir</c><c>   1</c></rc>
    <rc><c>Ir</c><c>   1</c></rc>
    <rc><c>Ir</c><c>   1</c></rc>
    <rc><c>Ir</c><c>   1</c></rc>
    <rc><c>Ir</c><c>   1</c></rc>
    <rc><c>Ru</c><c>   2</c></rc>
    <rc><c>Ru</c><c>   2</c></rc>
    <rc><c>Ru</c><c>   2</c></rc>
    <rc><c>Ru</c><c>   2</c></rc>
   </set>
  </array>
  <array name="atomtypes" >
   <dimension dim="1">type</dimension>
   <field type="int">atomspertype</field>
   <field type="string">element</field>
   <field>mass</field>
   <field>valence</field>
   <field type="string">pseudopotential</field>
   <set>
    <rc><c>  28</c><c>Ir</c><c>    192.22000000</c><c>      9.00000000</c><c> PAW_PBE Ir 06Sep2000                   </c></rc>
    <rc><c>   4</c><c>Ru</c><c>    101.07000000</c><c>      8.00000000</c><c> PAW_PBE Ru 06Sep2000                   </c></rc>
   </set>
  </array>
 </atominfo>
 <structure name="initialpos" >
  <crystal>
   <varray name="basis" >
    <v>       8.24645053      -4.76109033      -4.43166400 </v>
    <v>       2.74954070       4.76234409       0.00000000 </v>
    <v>       8.24645053      -4.76109033       4.43166400 </v>
   </varray>
   <i name="volume">    464.11262920 </i>
   <varray name="rec_basis" >
    <v>       0.04547411      -0.02625449      -0.11282444 </v>
    <v>       0.09092428       0.15748547       0.00000000 </v>
    <v>       0.04547411      -0.02625449       0.11282444 </v>
   </varray>
  </crystal>
  <varray name="positions" >
   <v>       0.54241466       1.00000000       0.79241466 </v>
   <v>       0.79104604       0.50000000       0.04104604 </v>
   <v>       0.20820034       0.50000000       0.95854991 </v>
   <v>       0.70854991       0.50000000       0.45820034 </v>
   <v>       0.41602541       0.74924249       0.66602541 </v>
   <v>       0.66697858       0.24946265       0.91697858 </v>
   <v>       0.91688358       0.75084357       0.16688358 </v>
   <v>       0.16692791       0.24912364       0.41692791 </v>
   <v>       0.54196842       0.50000000       0.79196842 </v>
   <v>       0.79112504       1.00000000       0.04112504 </v>
   <v>       0.04206415       0.50000000       0.29206415 </v>
   <v>       0.29113315       1.00000000       0.54113315 </v>
   <v>       0.41602541       0.25075751       0.66602541 </v>
   <v>       0.66697858       0.75053735       0.91697858 </v>
   <v>       0.91688358       0.24915643       0.16688358 </v>
   <v>       0.16692791       0.75087636       0.41692791 </v>
   <v>       0.08372800       0.24956896       0.83161061 </v>
   <v>       0.33229799       0.75117363       0.08545366 </v>
   <v>       0.58161061       0.24956896       0.33372800 </v>
   <v>       0.83545366       0.75117363       0.58229799 </v>
   <v>       0.08372800       0.75043105       0.83161061 </v>
   <v>       0.33229799       0.24882637       0.08545366 </v>
   <v>       0.58161061       0.75043105       0.33372800 </v>
   <v>       0.83545366       0.24882637       0.58229799 </v>
   <v>       0.96033888       0.50000000       0.70659823 </v>
   <v>       0.20770645       0.00000000       0.95919813 </v>
   <v>       0.45659823       0.50000000       0.21033888 </v>
   <v>       0.70919813       0.00000000       0.45770645 </v>
   <v>       0.29198258       0.50000000       0.54198258 </v>
   <v>       0.04118481       1.00000000       0.29118481 </v>
   <v>       0.45755331       0.00000000       0.20912442 </v>
   <v>       0.95912442       0.00000000       0.70755331 </v>
  </varray>
 </structure>
 <calculation>
  <scstep>
   <time name="diag">    3.46    3.46</time>
   <time name="diis">    1.22    1.22</time>
   <time name="orth">    1.17    1.17</time>
   <time name="total">    5.98    5.98</time>
   <energy>
    <i name="alphaZ">   2428.31985093 </i>
    <i name="ewald"> -21504.92021573 </i>
    <i name="hartreedc">  -1308.69070201 </i>
    <i name="XCdc">   -603.55754311 </i>
    <i name="pawpsdc">  14330.81783551 </i>
    <i name="pawaedc"> -12993.64689275 </i>
    <i name="eentropy">      0.00000000 </i>
    <i name="bandstr">   3835.98165485 </i>
    <i name="atom">  17504.15418565 </i>
    <i name="e_fr_energy">   1688.45817334 </i>
    <i name="e_wo_entrp">   1688.45817334 </i>
    <i name="e_0_energy">   1688.45817334 </i>
   </energy>
  </scstep>
  <scstep>
   <time name="diag">    4.33    4.33</time>
   <time name="diis">    1.17    1.17</time>
   <time name="orth">    1.29    1.30</time>
   <time name="total">    6.90    6.91</time>
   <energy>
    <i name="e_fr_energy">    150.68219456 </i>
    <i name="e_wo_entrp">    150.68219456 </i>
    <i name="e_0_energy">    150.68219456 </i>
   </energy>
  </scstep>
  <scstep>
   <time name="diag">    4.70    4.80</time>
   <time name="diis">    1.23    1.23</time>
   <time name="orth">    1.23    1.23</time>
   <time name="total">    7.27    7.37</time>
   <energy>
    <i name="e_fr_energy">   -149.75410453 </i>
    <i name="e_wo_entrp">   -149.75410453 </i>
    <i name="e_0_energy">   -149.75410453 </i>
   </energy>
  </scstep>
  <scstep>
   <time name="diag">    3.68    3.68</time>
   <time name="diis">    1.22    1.22</time>
   <time name="orth">    1.25    1.25</time>
   <time name="total">    6.25    6.25</time>
   <energy>
    <i name="e_fr_energy">   -252.42216120 </i>
    <i name="e_wo_entrp">   -252.42216120 </i>
    <i name="e_0_energy">   -252.42216120 </i>
   </energy>
  </scstep>
  <scstep>
   <time name="diag">    3.85    3.85</time>
   <time name="diis">    1.23    1.23</time>
   <time name="orth">    1.35    1.36</time>
   <time name="total">    6.52    6.52</time>
   <energy>
    <i name="e_fr_energy">   -280.44467798 </i>
    <i name="e_wo_entrp">   -280.44467798 </i>
    <i name="e_0_energy">   -280.44467798 </i>
   </energy>
  </scstep>
  <scstep>
   <time name="diag">    3.70    3.70</time>
   <time name="diis">    1.18    1.18</time>
   <time name="orth">    1.20    1.20</time>
   <time name="total">    6.20    6.20</time>
   <energy>
    <i name="e_fr_energy">   -292.67555283 </i>
    <i name="e_wo_entrp">   -292.67555283 </i>
    <i name="e_0_energy">   -292.67555283 </i>
   </energy>
  </scstep>
  <scstep>
   <time name="diag">    3.67    3.67</time>
   <time name="diis">    1.22    1.25</time>
   <time name="orth">    1.69    1.82</time>
   <time name="total">    6.68    6.91</time>
   <energy>
    <i name="e_fr_energy">   -297.69907265 </i>
    <i name="e_wo_entrp">   -297.69907265 </i>
    <i name="e_0_energy">   -297.69907265 </i>
   </energy>
  </scstep>
  <scstep>
   <time name="diag">    4.64    4.72</time>
   <time name="diis">    1.21    1.21</time>
   <time name="orth">    1.24    1.24</time>
   <time name="total">    7.18    7.30</time>
   <energy>
    <i name="e_fr_energy">   -300.09921661 </i>
    <i name="e_wo_entrp">   -300.09921661 </i>
    <i name="e_0_energy">   -300.09921661 </i>
   </energy>
  </scstep>
  <scstep>
   <time name="diag">    3.88    3.88</time>
   <time name="diis">    3.13    3.13</time>
   <time name="orth">    1.25    1.25</time>
   <time name="total">    8.35    8.35</time>
   <energy>
    <i name="e_fr_energy">   -302.01682350 </i>
    <i name="e_wo_entrp">   -302.01682350 </i>
    <i name="e_0_energy">   -302.01682350 </i>
   </energy>
  </scstep>
  <scstep>
   <time name="diag">    3.86    3.86</time>
   <time name="diis">    3.14    3.14</time>
   <time name="orth">    1.24    1.24</time>
   <time name="total">    8.33    8.33</time>
   <energy>
    <i name="e_fr_energy">   -302.20086588 </i>
    <i name="e_wo_entrp">   -302.20086588 </i>
    <i name="e_0_energy">   -302.20086588 </i>
   </energy>
  </scstep>
  <scstep>
   <time name="diag">    4.40    4.49</time>
   <time name="diis">    3.01    3.14</time>
   <time name="orth">    1.21    1.21</time>
   <time name="total">    8.70    8.93</time>
   <energy>
    <i name="e_fr_energy">   -302.20362949 </i>
    <i name="e_wo_entrp">   -302.20362949 </i>
    <i name="e_0_energy">   -302.20362949 </i>
   </energy>
  </scstep>
  <scstep>
   <time name="diag">    3.72    3.72</time>
   <time name="diis">    3.17    3.17</time>
   <time name="orth">    1.29    1.29</time>
   <time name="total">    8.43    8.43</time>
   <energy>
    <i name="e_fr_energy">   -302.20370312 </i>
    <i name="e_wo_entrp">   -302.20370312 </i>
    <i name="e_0_energy">   -302.20370312 </i>
   </energy>
  </scstep>
  <scstep>
   <time name="diag">    4.66    4.66</time>
   <time name="diis">    2.78    2.78</time>
   <time name="orth">    1.25    1.25</time>
   <time name="total">    8.95    8.95</time>
   <energy>
    <i name="e_fr_energy">   -292.45463697 </i>
    <i name="e_wo_entrp">   -292.45463697 </i>
    <i name="e_0_energy">   -292.45463697 </i>
   </energy>
  </scstep>
  <scstep>
   <time name="diag">    3.89    3.89</time>
   <time name="diis">    2.77    2.77</time>
   <time name="orth">    1.71    1.81</time>
   <time name="total">    8.65    8.75</time>
   <energy>
    <i name="e_fr_energy">   -290.76998254 </i>
    <i name="e_wo_entrp">   -290.76998254 </i>
    <i name="e_0_energy">   -290.76998254 </i>
   </energy>
  </scstep>
  <scstep>
   <time name="diag">    4.19    4.44</time>
   <time name="diis">    2.79    2.79</time>
   <time name="orth">    1.65    1.65</time>
   <time name="total">    8.91    9.16</time>
   <energy>
    <i name="e_fr_energy">   -285.59494040 </i>
    <i name="e_wo_entrp">   -285.59494040 </i>
    <i name="e_0_energy">   -285.59494040 </i>
   </energy>
  </scstep>
  <scstep>
   <time name="diag">    4.22    4.22</time>
   <time name="diis">    2.80    2.80</time>
   <time name="orth">    1.32    1.32</time>
   <time name="total">    8.59    8.60</time>
   <energy>
    <i name="e_fr_energy">   -283.88056073 </i>
    <i name="e_wo_entrp">   -283.88056073 </i>
    <i name="e_0_energy">   -283.88056073 </i>
   </energy>
  </scstep>
  <scstep>
   <time name="diag">    3.87    3.87</time>
   <time name="diis">    2.88    2.88</time>
   <time name="orth">    1.24    1.24</time>
   <time name="total">    8.25    8.25</time>
   <energy>
    <i name="e_fr_energy">   -283.80724387 </i>
    <i name="e_wo_entrp">   -283.80724387 </i>
    <i name="e_0_energy">   -283.80724387 </i>
   </energy>
  </scstep>
  <scstep>
   <time name="diag">    4.56    4.85</time>
   <time name="diis">    2.79    2.87</time>
   <time name="orth">    1.22    1.22</time>
   <time name="total">    8.82    9.20</time>
   <energy>
    <i name="e_fr_energy">   -283.74036681 </i>
    <i name="e_wo_entrp">   -283.74036681 </i>
    <i name="e_0_energy">   -283.74036681 </i>
   </energy>
  </scstep>
  <scstep>
   <time name="diag">    3.69    3.69</time>
   <time name="diis">    2.87    2.87</time>
   <time name="orth">    1.21    1.21</time>
   <time name="total">    8.02    8.02</time>
   <energy>
    <i name="e_fr_energy">   -283.70993810 </i>
    <i name="e_wo_entrp">   -283.70993810 </i>
    <i name="e_0_energy">   -283.70993810 </i>
   </energy>
  </scstep>
  <scstep>
   <time name="diag">    3.76    3.76</time>
   <time name="diis">    2.86    2.86</time>
   <time name="orth">    1.21    1.21</time>
   <time name="total">    8.09    8.09</time>
   <energy>
    <i name="e_fr_energy">   -283.70196931 </i>
    <i name="e_wo_entrp">   -283.70196931 </i>
    <i name="e_0_energy">   -283.70196931 </i>
   </energy>
  </scstep>
  <scstep>
   <time name="diag">    3.68    3.68</time>
   <time name="diis">    2.84    2.84</time>
   <time name="orth">    1.74    1.82</time>
   <time name="total">    8.52    8.60</time>
   <energy>
    <i name="e_fr_energy">   -283.69601976 </i>
    <i name="e_wo_entrp">   -283.69601976 </i>
    <i name="e_0_energy">   -283.69601976 </i>
   </energy>
  </scstep>
  <scstep>
   <time name="diag">    4.72    4.73</time>
   <time name="diis">    2.85    2.85</time>
   <time name="orth">    1.20    1.21</time>
   <time name="total">    9.03    9.04</time>
   <energy>
    <i name="e_fr_energy">   -283.69474744 </i>
    <i name="e_wo_entrp">   -283.69474744 </i>
    <i name="e_0_energy">   -283.69474744 </i>
   </energy>
  </scstep>
  <scstep>
   <time name="diag">    3.68    3.69</time>
   <time name="diis">    2.88    2.88</time>
   <time name="orth">    1.21    1.21</time>
   <time name="total">    7.87    7.87</time>
   <energy>
    <i name="alphaZ">   2428.31985093 </i>
    <i name="ewald"> -21504.92021573 </i>
    <i name="hartreedc">  -1009.39148869 </i>
    <i name="XCdc">   -606.75257442 </i>
    <i name="pawpsdc">  16130.09854191 </i>
    <i name="pawaedc"> -14886.53747597 </i>
    <i name="eentropy">      0.00000000 </i>
    <i name="bandstr">   1661.33448368 </i>
    <i name="atom">  17504.15418565 </i>
    <i name="e_fr_energy">   -283.69469263 </i>
    <i name="e_wo_entrp">   -283.69469263 </i>
    <i name="e_0_energy">   -283.69469263 </i>
   </energy>
  </scstep>
  <structure>
   <crystal>
    <varray name="basis" >
     <v>       8.24645053      -4.76109033      -4.43166400 </v>
     <v>       2.74954070       4.76234409       0.00000000 </v>
     <v>       8.24645053      -4.76109033       4.43166400 </v>
    </varray>
    <i name="volume">    464.11262920 </i>
    <varray name="rec_basis" >
     <v>       0.04547411      -0.02625449      -0.11282444 </v>
     <v>       0.09092428       0.15748547       0.00000000 </v>
     <v>       0.04547411      -0.02625449       0.11282444 </v>
    </varray>
   </crystal>
   <varray name="positions" >
    <v>       0.54241466       1.00000000       0.79241466 </v>
    <v>       0.79104604       0.50000000       0.04104604 </v>
    <v>       0.20820034       0.50000000       0.95854991 </v>
    <v>       0.70854991       0.50000000       0.45820034 </v>
    <v>       0.41602541       0.74924249       0.66602541 </v>
    <v>       0.66697858       0.24946265       0.91697858 </v>
    <v>       0.91688358       0.75084357       0.16688358 </v>
    <v>       0.16692791       0.24912364       0.41692791 </v>
    <v>       0.54196842       0.50000000       0.79196842 </v>
    <v>       0.79112504       1.00000000       0.04112504 </v>
    <v>       0.04206415       0.50000000       0.29206415 </v>
    <v>       0.29113315       1.00000000       0.54113315 </v>
    <v>       0.41602541       0.25075751       0.66602541 </v>
    <v>       0.66697858       0.75053735       0.91697858 </v>
    <v>       0.91688358       0.24915643       0.16688358 </v>
    <v>       0.16692791       0.75087636       0.41692791 </v>
    <v>       0.08372800       0.24956896       0.83161061 </v>
    <v>       0.33229799       0.75117363       0.08545366 </v>
    <v>       0.58161061       0.24956896       0.33372800 </v>
    <v>       0.83545366       0.75117363       0.58229799 </v>
    <v>       0.08372800       0.75043105       0.83161061 </v>
    <v>       0.33229799       0.24882637       0.08545366 </v>
    <v>       0.58161061       0.75043105       0.33372800 </v>
    <v>       0.83545366       0.24882637       0.58229799 </v>
    <v>       0.96033888       0.50000000       0.70659823 </v>
    <v>       0.20770645       0.00000000       0.95919813 </v>
    <v>       0.45659823       0.50000000       0.21033888 </v>
    <v>       0.70919813       0.00000000       0.45770645 </v>
    <v>       0.29198258       0.50000000       0.54198258 </v>
    <v>       0.04118481       1.00000000       0.29118481 </v>
    <v>       0.45755331       0.00000000       0.20912442 </v>
    <v>       0.95912442       0.00000000       0.70755331 </v>
   </varray>
  </structure>
  <varray name="forces" >
   <v>      -0.00086840       0.00050137       0.00000000 </v>
   <v>      -0.00232715       0.00134358       0.00000000 </v>
   <v>       0.00141834      -0.00081888      -0.00066724 </v>
   <v>       0.00141834      -0.00081888       0.00066724 </v>
   <v>      -0.01108558      -0.00413638       0.00000000 </v>
   <v>      -0.00282865      -0.00154480       0.00000000 </v>
   <v>       0.00791488      -0.00290065       0.00000000 </v>
   <v>      -0.00619114      -0.00019674       0.00000000 </v>
   <v>      -0.00464383       0.00268111       0.00000000 </v>
   <v>      -0.01382766       0.00798340       0.00000000 </v>
   <v>      -0.00303661       0.00175319       0.00000000 </v>
   <v>      -0.00369466       0.00213311       0.00000000 </v>
   <v>      -0.00196058       0.01166858       0.00000000 </v>
   <v>      -0.00007649       0.00322209       0.00000000 </v>
   <v>       0.00646948      -0.00540416       0.00000000 </v>
   <v>      -0.00292519       0.00546006       0.00000000 </v>
   <v>      -0.00158776      -0.00011722      -0.00728204 </v>
   <v>       0.00747469       0.00385789       0.00367570 </v>
   <v>      -0.00158776      -0.00011722       0.00728204 </v>
   <v>       0.00747469       0.00385789      -0.00367570 </v>
   <v>      -0.00069236       0.00143365      -0.00728204 </v>
   <v>       0.00039631      -0.00840222       0.00367570 </v>
   <v>      -0.00069236       0.00143365       0.00728204 </v>
   <v>       0.00039631      -0.00840222      -0.00367570 </v>
   <v>       0.00516830      -0.00298392      -0.00934141 </v>
   <v>       0.00597469      -0.00344949       0.00046078 </v>
   <v>       0.00516830      -0.00298392       0.00934141 </v>
   <v>       0.00597469      -0.00344949      -0.00046078 </v>
   <v>       0.01265370      -0.00730562       0.00000000 </v>
   <v>      -0.01764870       0.01018948       0.00000000 </v>
   <v>       0.00388608      -0.00224363      -0.00816273 </v>
   <v>       0.00388608      -0.00224363       0.00816273 </v>
  </varray>
  <varray name="stress" >
   <v>     -26.76970951       0.61915497      -0.00000000 </v>
   <v>       0.61915497     -26.05476977       0.00000000 </v>
   <v>       0.00000000       0.00000000     -27.38482859 </v>
  </varray>
  <energy>
   <i name="e_fr_energy">   -283.69469263 </i>
   <i name="e_wo_entrp">   -283.69469263 </i>
   <i name="e_0_energy">      0.00000000 </i>
  </energy>
  <time name="totalsc">  188.23  189.81</time>
  <eigenvalues>
   <array>
    <dimension dim="1">band</dimension>
    <dimension dim="2">kpoint</dimension>
    <dimension dim="3">spin</dimension>
    <field>eigene</field>
    <field>occ</field>
    <set>
     <set comment="spin 1">
      <set comment="kpoint 1">
       <r>   -0.7300    1.0000 </r>
       <r>    1.1896    1.0000 </r>
       <r>    1.3531    1.0000 </r>
       <r>    1.7927    1.0000 </r>
       <r>    1.9227    1.0000 </r>
       <r>    1.9795    1.0000 </r>
       <r>    2.0713    1.0000 </r>
       <r>    2.2002    1.0000 </r>
       <r>    2.5627    1.0000 </r>
       <r>    2.6268    1.0000 </r>
       <r>    2.6562    1.0000 </r>
       <r>    2.6971    1.0000 </r>
       <r>    2.7010    1.0000 </r>
       <r>    2.7564    1.0000 </r>
       <r>    2.7760    1.0000 </r>
       <r>    2.7883    1.0000 </r>
       <r>    2.8061    1.0000 </r>
       <r>    2.8125    1.0000 </r>
       <r>    2.8201    1.0000 </r>
       <r>    2.8522    1.0000 </r>
       <r>    2.8821    1.0000 </r>
       <r>    2.9263    1.0000 </r>
       <r>    2.9536    1.0000 </r>
       <r>    3.0064    1.0000 </r>
       <r>    3.2053    1.0000 </r>
       <r>    3.2197    1.0000 </r>
       <r>    3.2772    1.0000 </r>
       <r>    3.3699    1.0000 </r>
       <r>    3.3974    1.0000 </r>
       <r>    3.4013    1.0000 </r>
       <r>    3.4021    1.0000 </r>
       <r>    3.5999    1.0000 </r>
       <r>    3.6006    1.0000 </r>
       <r>    3.6956    1.0000 </r>
       <r>    3.8325    1.0000 </r>
       <r>    4.3117    1.0000 </r>
       <r>    4.3191    1.0000 </r>
       <r>    4.3617    1.0000 </r>
       <r>    4.4301    1.0000 </r>
       <r>    4.4524    1.0000 </r>
       <r>    4.4782    1.0000 </r>
       <r>    4.4804    1.0000 </r>
       <r>    4.5034    1.0000 </r>
       <r>    4.5182    1.0000 </r>
       <r>    4.5331    1.0000 </r>
       <r>    4.5485    1.0000 </r>
       <r>    4.5722    1.0000 </r>
       <r>    4.5788    1.0000 </r>
       <r>    4.6264    1.0000 </r>
       <r>    4.6267    1.0000 </r>
       <r>    4.6732    1.0000 </r>
       <r>    4.9337    1.0000 </r>
       <r>    5.0696    1.0000 </r>
       <r>    5.1719    1.0000 </r>
       <r>    5.1760    1.0000 </r>
       <r>    5.1928    1.0000 </r>
       <r>    5.2718    1.0000 </r>
       <r>    5.2765    1.0000 </r>
       <r>    5.3502    1.0000 </r>
       <r>    5.6338    1.0000 </r>
       <r>    5.6840    1.0000 </r>
       <r>    5.8670    1.0000 </r>
       <r>    5.9930    1.0000 </r>
       <r>    5.9956    1.0000 </r>
       <r>    6.1144    1.0000 </r>
       <r>    6.1512    1.0000 </r>
       <r>    6.1663    1.0000 </r>
       <r>    6.1800    1.0000 </r>
       <r>    6.2639    1.0000 </r>
       <r>    6.2805    1.0000 </r>
       <r>    6.2859    1.0000 </r>
       <r>    6.3141    1.0000 </r>
       <r>    6.3633    1.0000 </r>
       <r>    6.4834    1.0000 </r>
       <r>    6.5179    1.0000 </r>
       <r>    6.5359    1.0000 </r>
       <r>    6.5400    1.0000 </r>
       <r>    6.5474    1.0000 </r>
       <r>    6.5573    1.0000 </r>
       <r>    6.5862    1.0000 </r>
       <r>    6.5957    1.0000 </r>
       <r>    6.6773    1.0000 </r>
       <r>    6.6792    1.0000 </r>
       <r>    6.6883    1.0000 </r>
       <r>    6.7134    1.0000 </r>
       <r>    6.7987    1.0000 </r>
       <r>    6.8091    1.0000 </r>
       <r>    6.9098    1.0000 </r>
       <r>    6.9280    1.0000 </r>
       <r>    6.9473    1.0000 </r>
       <r>    6.9512    1.0000 </r>
       <r>    6.9703    1.0000 </r>
       <r>    6.9984    1.0000 </r>
       <r>    7.0017    1.0000 </r>
       <r>    7.0042    1.0000 </r>
       <r>    7.0654    1.0000 </r>
       <r>    7.0761    1.0000 </r>
       <r>    7.0782    1.0000 </r>
       <r>    7.1165    1.0000 </r>
       <r>    7.1218    1.0000 </r>
       <r>    7.1557    1.0000 </r>
       <r>    7.2162    1.0000 </r>
       <r>    7.2837    1.0000 </r>
       <r>    7.3122    1.0000 </r>
       <r>    7.6363    1.0000 </r>
       <r>    7.6690    1.0000 </r>
       <r>    7.7913    1.0000 </r>
       <r>    7.8532    1.0000 </r>
       <r>    7.8920    1.0000 </r>
       <r>    7.9269    1.0000 </r>
       <r>    7.9306    1.0000 </r>
       <r>    7.9309    1.0000 </r>
       <r>    7.9833    1.0000 </r>
       <r>    8.0045    1.0000 </r>
       <r>    8.0370    1.0000 </r>
       <r>    8.0511    1.0000 </r>
       <r>    8.1562    1.0000 </r>
       <r>    8.1624    1.0000 </r>
       <r>    8.3348    1.0000 </r>
       <r>    8.3531    1.0000 </r>
       <r>    8.3674    1.0000 </r>
       <r>    8.3740    1.0000 </r>
       <r>    8.3944    1.0000 </r>
       <r>    8.4206    1.0000 </r>
       <r>    8.4667    1.0000 </r>
       <r>    8.5011    1.0000 </r>
       <r>    8.5740    1.0000 </r>
       <r>    8.6560    1.0000 </r>
       <r>    8.8787    1.0000 </r>
       <r>    8.9748    1.0000 </r>
       <r>    9.3848    1.0000 </r>
       <r>    9.3978    1.0000 </r>
       <r>    9.4172    1.0000 </r>
       <r>    9.4443    1.0000 </r>
       <r>    9.4866    1.0000 </r>
       <r>    9.6974    1.0000 </r>
       <r>    9.7306    1.0000 </r>
       <r>    9.7626    1.2064 </r>
       <r>    9.8015    0.3207 </r>
       <r>   10.1559    0.0000 </r>
       <r>   10.2077    0.0000 </r>
       <r>   10.2087    0.0000 </r>
       <r>   10.2169    0.0000 </r>
       <r>   10.2426    0.0000 </r>
       <r>   10.2953    0.0000 </r>
       <r>   10.4025    0.0000 </r>
       <r>   10.4532    0.0000 </r>
       <r>   10.4695    0.0000 </r>
       <r>   10.4977    0.0000 </r>
       <r>   10.5088    0.0000 </r>
       <r>   10.5226    0.0000 </r>
       <r>   10.5298    0.0000 </r>
       <r>   10.5310    0.0000 </r>
       <r>   10.5562    0.0000 </r>
       <r>   10.5686    0.0000 </r>
       <r>   10.5705    0.0000 </r>
       <r>   10.6021    0.0000 </r>
       <r>   10.6096    0.0000 </r>
       <r>   10.6179    0.0000 </r>
       <r>   10.6291    0.0000 </r>
       <r>   10.6644    0.0000 </r>
       <r>   10.6880    0.0000 </r>
       <r>   10.8421    0.0000 </r>
       <r>   10.8895    0.0000 </r>
       <r>   10.9016    0.0000 </r>
       <r>   10.9457    0.0000 </r>
       <r>   10.9950    0.0000 </r>
       <r>   10.9966    0.0000 </r>
       <r>   11.0575    0.0000 </r>
       <r>   11.0733    0.0000 </r>
       <r>   11.0851    0.0000 </r>
       <r>   11.0923    0.0000 </r>
       <r>   12.3910    0.0000 </r>
       <r>   12.4571    0.0000 </r>
       <r>   12.7918    0.0000 </r>
       <r>   12.7935    0.0000 </r>
       <r>   12.8078    0.0000 </r>
       <r>   12.8355    0.0000 </r>
       <r>   12.8939    0.0000 </r>
       <r>   12.9219    0.0000 </r>
       <r>   12.9282    0.0000 </r>
       <r>   12.9416    0.0000 </r>
       <r>   12.9832    0.0000 </r>
       <r>   13.0012    0.0000 </r>
       <r>   13.0225    0.0000 </r>
       <r>   14.2570    0.0000 </r>
       <r>   14.2583    0.0000 </r>
       <r>   14.3538    0.0000 </r>
       <r>   15.8005    0.0000 </r>
       <r>   15.9127    0.0000 </r>
       <r>   16.5863    0.0000 </r>
       <r>   16.6693    0.0000 </r>
      </set>
      <set comment="kpoint 2">
       <r>   -0.5989    1.0000 </r>
       <r>    0.9916    1.0000 </r>
       <r>    1.1741    1.0000 </r>
       <r>    1.5181    1.0000 </r>
       <r>    1.6887    1.0000 </r>
       <r>    2.1702    1.0000 </r>
       <r>    2.2327    1.0000 </r>
       <r>    2.3755    1.0000 </r>
       <r>    2.4482    1.0000 </r>
       <r>    2.5199    1.0000 </r>
       <r>    2.5418    1.0000 </r>
       <r>    2.5846    1.0000 </r>
       <r>    2.5965    1.0000 </r>
       <r>    2.6256    1.0000 </r>
       <r>    2.7291    1.0000 </r>
       <r>    2.7575    1.0000 </r>
       <r>    2.7620    1.0000 </r>
       <r>    2.7787    1.0000 </r>
       <r>    2.8429    1.0000 </r>
       <r>    2.9260    1.0000 </r>
       <r>    3.0235    1.0000 </r>
       <r>    3.0854    1.0000 </r>
       <r>    3.0971    1.0000 </r>
       <r>    3.1836    1.0000 </r>
       <r>    3.3654    1.0000 </r>
       <r>    3.3925    1.0000 </r>
       <r>    3.4106    1.0000 </r>
       <r>    3.4230    1.0000 </r>
       <r>    3.4849    1.0000 </r>
       <r>    3.5258    1.0000 </r>
       <r>    3.6934    1.0000 </r>
       <r>    3.7002    1.0000 </r>
       <r>    3.7544    1.0000 </r>
       <r>    3.7836    1.0000 </r>
       <r>    3.8621    1.0000 </r>
       <r>    4.1446    1.0000 </r>
       <r>    4.1574    1.0000 </r>
       <r>    4.1764    1.0000 </r>
       <r>    4.2293    1.0000 </r>
       <r>    4.2488    1.0000 </r>
       <r>    4.2697    1.0000 </r>
       <r>    4.3256    1.0000 </r>
       <r>    4.3457    1.0000 </r>
       <r>    4.5989    1.0000 </r>
       <r>    4.6567    1.0000 </r>
       <r>    4.6940    1.0000 </r>
       <r>    4.7211    1.0000 </r>
       <r>    4.7436    1.0000 </r>
       <r>    4.7714    1.0000 </r>
       <r>    4.7870    1.0000 </r>
       <r>    4.9566    1.0000 </r>
       <r>    5.0271    1.0000 </r>
       <r>    5.0445    1.0000 </r>
       <r>    5.1764    1.0000 </r>
       <r>    5.2375    1.0000 </r>
       <r>    5.3266    1.0000 </r>
       <r>    5.3900    1.0000 </r>
       <r>    5.4537    1.0000 </r>
       <r>    5.5313    1.0000 </r>
       <r>    5.6308    1.0000 </r>
       <r>    5.6308    1.0000 </r>
       <r>    5.6940    1.0000 </r>
       <r>    5.8269    1.0000 </r>
       <r>    5.8310    1.0000 </r>
       <r>    5.8868    1.0000 </r>
       <r>    5.9491    1.0000 </r>
       <r>    5.9953    1.0000 </r>
       <r>    6.0342    1.0000 </r>
       <r>    6.0672    1.0000 </r>
       <r>    6.0876    1.0000 </r>
       <r>    6.1274    1.0000 </r>
       <r>    6.1500    1.0000 </r>
       <r>    6.1813    1.0000 </r>
       <r>    6.2395    1.0000 </r>
       <r>    6.2448    1.0000 </r>
       <r>    6.3258    1.0000 </r>
       <r>    6.3400    1.0000 </r>
       <r>    6.4201    1.0000 </r>
       <r>    6.4889    1.0000 </r>
       <r>    6.5307    1.0000 </r>
       <r>    6.5544    1.0000 </r>
       <r>    6.5548    1.0000 </r>
       <r>    6.5829    1.0000 </r>
       <r>    6.6078    1.0000 </r>
       <r>    6.6556    1.0000 </r>
       <r>    6.6605    1.0000 </r>
       <r>    6.8090    1.0000 </r>
       <r>    6.8621    1.0000 </r>
       <r>    6.8773    1.0000 </r>
       <r>    6.9239    1.0000 </r>
       <r>    7.0392    1.0000 </r>
       <r>    7.0625    1.0000 </r>
       <r>    7.0772    1.0000 </r>
       <r>    7.0993    1.0000 </r>
       <r>    7.1169    1.0000 </r>
       <r>    7.1690    1.0000 </r>
       <r>    7.1745    1.0000 </r>
       <r>    7.2454    1.0000 </r>
       <r>    7.2594    1.0000 </r>
       <r>    7.2722    1.0000 </r>
       <r>    7.3142    1.0000 </r>
       <r>    7.3324    1.0000 </r>
       <r>    7.6671    1.0000 </r>
       <r>    7.6867    1.0000 </r>
       <r>    7.6946    1.0000 </r>
       <r>    7.7085    1.0000 </r>
       <r>    7.7642    1.0000 </r>
       <r>    7.7716    1.0000 </r>
       <r>    7.8667    1.0000 </r>
       <r>    7.8772    1.0000 </r>
       <r>    7.9134    1.0000 </r>
       <r>    7.9207    1.0000 </r>
       <r>    7.9508    1.0000 </r>
       <r>    7.9914    1.0000 </r>
       <r>    8.0555    1.0000 </r>
       <r>    8.2153    1.0000 </r>
       <r>    8.2500    1.0000 </r>
       <r>    8.2815    1.0000 </r>
       <r>    8.3362    1.0000 </r>
       <r>    8.4072    1.0000 </r>
       <r>    8.4469    1.0000 </r>
       <r>    8.5049    1.0000 </r>
       <r>    8.5116    1.0000 </r>
       <r>    8.5594    1.0000 </r>
       <r>    8.8095    1.0000 </r>
       <r>    8.8276    1.0000 </r>
       <r>    8.8595    1.0000 </r>
       <r>    8.8910    1.0000 </r>
       <r>    8.9179    1.0000 </r>
       <r>    8.9450    1.0000 </r>
       <r>    8.9580    1.0000 </r>
       <r>    9.0352    1.0000 </r>
       <r>    9.0439    1.0000 </r>
       <r>    9.1284    1.0000 </r>
       <r>    9.2625    1.0000 </r>
       <r>    9.7997    1.0000 </r>
       <r>    9.8491    1.0000 </r>
       <r>    9.8550    0.6562 </r>
       <r>   10.1098   -0.1372 </r>
       <r>   10.1243   -0.0546 </r>
       <r>   10.1369   -0.0308 </r>
       <r>   10.1557    0.0000 </r>
       <r>   10.1745    0.0000 </r>
       <r>   10.2064    0.0000 </r>
       <r>   10.2214    0.0000 </r>
       <r>   10.2303    0.0000 </r>
       <r>   10.2711    0.0000 </r>
       <r>   10.2996    0.0000 </r>
       <r>   10.3294    0.0000 </r>
       <r>   10.3941    0.0000 </r>
       <r>   10.4459    0.0000 </r>
       <r>   10.4970    0.0000 </r>
       <r>   10.5111    0.0000 </r>
       <r>   10.5212    0.0000 </r>
       <r>   10.5385    0.0000 </r>
       <r>   10.5415    0.0000 </r>
       <r>   10.5692    0.0000 </r>
       <r>   10.5883    0.0000 </r>
       <r>   10.6517    0.0000 </r>
       <r>   10.6610    0.0000 </r>
       <r>   10.7099    0.0000 </r>
       <r>   10.7619    0.0000 </r>
       <r>   10.7684    0.0000 </r>
       <r>   10.8389    0.0000 </r>
       <r>   10.8788    0.0000 </r>
       <r>   10.8973    0.0000 </r>
       <r>   10.9103    0.0000 </r>
       <r>   10.9420    0.0000 </r>
       <r>   10.9637    0.0000 </r>
       <r>   10.9678    0.0000 </r>
       <r>   11.9316    0.0000 </r>
       <r>   12.2329    0.0000 </r>
       <r>   12.2445    0.0000 </r>
       <r>   12.2928    0.0000 </r>
       <r>   12.3517    0.0000 </r>
       <r>   12.4574    0.0000 </r>
       <r>   12.5224    0.0000 </r>
       <r>   12.5819    0.0000 </r>
       <r>   12.5914    0.0000 </r>
       <r>   12.6988    0.0000 </r>
       <r>   12.7354    0.0000 </r>
       <r>   13.3861    0.0000 </r>
       <r>   13.4011    0.0000 </r>
       <r>   13.8147    0.0000 </r>
       <r>   13.8211    0.0000 </r>
       <r>   14.2882    0.0000 </r>
       <r>   14.3097    0.0000 </r>
       <r>   14.3745    0.0000 </r>
       <r>   14.5295    0.0000 </r>
       <r>   17.1420    0.0000 </r>
       <r>   17.8162    0.0000 </r>
       <r>   18.1832    0.0000 </r>
      </set>
      <set comment="kpoint 3">
       <r>   -0.2211    1.0000 </r>
       <r>    0.3868    1.0000 </r>
       <r>    1.0122    1.0000 </r>
       <r>    1.1980    1.0000 </r>
       <r>    1.9828    1.0000 </r>
       <r>    2.2063    1.0000 </r>
       <r>    2.2397    1.0000 </r>
       <r>    2.2798    1.0000 </r>
       <r>    2.3159    1.0000 </r>
       <r>    2.3490    1.0000 </r>
       <r>    2.3559    1.0000 </r>
       <r>    2.3864    1.0000 </r>
       <r>    2.4248    1.0000 </r>
       <r>    2.6367    1.0000 </r>
       <r>    2.8646    1.0000 </r>
       <r>    2.8993    1.0000 </r>
       <r>    2.9141    1.0000 </r>
       <r>    2.9457    1.0000 </r>
       <r>    2.9657    1.0000 </r>
       <r>    3.0252    1.0000 </r>
       <r>    3.1065    1.0000 </r>
       <r>    3.1274    1.0000 </r>
       <r>    3.1988    1.0000 </r>
       <r>    3.1997    1.0000 </r>
       <r>    3.2402    1.0000 </r>
       <r>    3.3850    1.0000 </r>
       <r>    3.4366    1.0000 </r>
       <r>    3.5073    1.0000 </r>
       <r>    3.8296    1.0000 </r>
       <r>    3.8579    1.0000 </r>
       <r>    3.9309    1.0000 </r>
       <r>    3.9404    1.0000 </r>
       <r>    4.0760    1.0000 </r>
       <r>    4.0905    1.0000 </r>
       <r>    4.1098    1.0000 </r>
       <r>    4.1372    1.0000 </r>
       <r>    4.1524    1.0000 </r>
       <r>    4.2085    1.0000 </r>
       <r>    4.2250    1.0000 </r>
       <r>    4.2323    1.0000 </r>
       <r>    4.2767    1.0000 </r>
       <r>    4.3219    1.0000 </r>
       <r>    4.3300    1.0000 </r>
       <r>    4.4027    1.0000 </r>
       <r>    4.6067    1.0000 </r>
       <r>    4.6500    1.0000 </r>
       <r>    4.6738    1.0000 </r>
       <r>    4.8020    1.0000 </r>
       <r>    4.8177    1.0000 </r>
[...]
       <r>    9.0492    1.0000 </r>
       <r>    9.1091    1.0000 </r>
       <r>    9.4451    1.0000 </r>
       <r>    9.4724    1.0000 </r>
       <r>    9.8153    0.8271 </r>
       <r>    9.8304    0.7897 </r>
       <r>    9.8428    0.6963 </r>
       <r>    9.8508    0.5346 </r>
       <r>    9.8819    0.3053 </r>
       <r>    9.8948    0.2434 </r>
       <r>   10.1129   -0.0435 </r>
       <r>   10.1502   -0.0667 </r>
       <r>   10.1616   -0.0603 </r>
       <r>   10.1807   -0.0516 </r>
       <r>   10.2035    0.0000 </r>
       <r>   10.2356    0.0000 </r>
       <r>   10.2824    0.0000 </r>
       <r>   10.2961    0.0000 </r>
       <r>   10.2986    0.0000 </r>
       <r>   10.3393    0.0000 </r>
       <r>   10.4541    0.0000 </r>
       <r>   10.5009    0.0000 </r>
       <r>   10.5632    0.0000 </r>
       <r>   10.5698    0.0000 </r>
       <r>   10.5784    0.0000 </r>
       <r>   10.5958    0.0000 </r>
       <r>   10.6044    0.0000 </r>
       <r>   10.6265    0.0000 </r>
       <r>   10.6293    0.0000 </r>
       <r>   10.6417    0.0000 </r>
       <r>   10.6569    0.0000 </r>
       <r>   10.6593    0.0000 </r>
       <r>   10.6741    0.0000 </r>
       <r>   10.6748    0.0000 </r>
       <r>   11.0427    0.0000 </r>
       <r>   11.0617    0.0000 </r>
       <r>   11.9612    0.0000 </r>
       <r>   11.9951    0.0000 </r>
       <r>   12.0146    0.0000 </r>
       <r>   12.1319    0.0000 </r>
       <r>   12.4580    0.0000 </r>
       <r>   12.4808    0.0000 </r>
       <r>   12.4993    0.0000 </r>
       <r>   12.5980    0.0000 </r>
       <r>   14.6649    0.0000 </r>
       <r>   14.7355    0.0000 </r>
       <r>   14.7804    0.0000 </r>
       <r>   14.9379    0.0000 </r>
       <r>   15.4399    0.0000 </r>
       <r>   15.5827    0.0000 </r>
       <r>   15.6553    0.0000 </r>
       <r>   15.7529    0.0000 </r>
       <r>   16.7674    0.0000 </r>
       <r>   16.7931    0.0000 </r>
       <r>   16.8758    0.0000 </r>
       <r>   17.1525    0.0000 </r>
      </set>
     </set>
    </set>
   </array>
  </eigenvalues>
  <separator name="orbital magnetization" >
   <v name="MAGDIPOLOUT">      0.00000000      0.00000000      0.00000000</v>
  </separator>
  <dos>
   <i name="efermi">      9.85635505 </i>
   <total>
    <array>
     <dimension dim="1">gridpoints</dimension>
     <dimension dim="2">spin</dimension>
     <field>energy</field>
     <field>total</field>
     <field>integrated</field>
     <set>
      <set comment="spin 1">
       <r>    -1.7300     0.0000     0.0000 </r>
       <r>    -1.6571     0.0000     0.0000 </r>
       <r>    -1.5843     0.0000     0.0000 </r>
       <r>    -1.5114     0.0000     0.0000 </r>
       <r>    -1.4385     0.0000     0.0000 </r>
       <r>    -1.3657     0.0000     0.0000 </r>
       <r>    -1.2928     0.0000     0.0000 </r>
       <r>    -1.2199     0.0000     0.0000 </r>
       <r>    -1.1471     0.0000     0.0000 </r>
       <r>    -1.0742     0.0000     0.0000 </r>
       <r>    -1.0013     0.0000     0.0000 </r>
       <r>    -0.9285     0.0000     0.0000 </r>
       <r>    -0.8556     0.0000     0.0000 </r>
       <r>    -0.7827     0.0000     0.0000 </r>
       <r>    -0.7098     0.0209     0.0001 </r>
       <r>    -0.6370     0.4275     0.0136 </r>
       <r>    -0.5641     0.7013     0.0586 </r>
       <r>    -0.4912     0.8518     0.1138 </r>
       <r>    -0.4184     1.0716     0.1840 </r>
       <r>    -0.3455     1.3181     0.2702 </r>
       <r>    -0.2726     1.4860     0.3736 </r>
       <r>    -0.1998     1.6719     0.4868 </r>
       <r>    -0.1269     1.8329     0.6169 </r>
       <r>    -0.0540     1.8054     0.7500 </r>
       <r>     0.0188     1.6854     0.8782 </r>
       <r>     0.0917     1.4503     0.9882 </r>
       <r>     0.1646     1.7549     1.1100 </r>
       <r>     0.2375     1.8387     1.2393 </r>
       <r>     0.3103     2.1251     1.3815 </r>
       <r>     0.3832     2.5473     1.5518 </r>
       <r>     0.4561     2.4161     1.7357 </r>
       <r>     0.5289     2.3822     1.9098 </r>
       <r>     0.6018     2.5822     2.0888 </r>
       <r>     0.6747     2.7430     2.2827 </r>
       <r>     0.7475     2.9745     2.4908 </r>
       <r>     0.8204     3.1718     2.7157 </r>
       <r>     0.8933     3.2553     2.9499 </r>
       <r>     0.9661     3.3845     3.1909 </r>
       <r>     1.0390     3.7884     3.4503 </r>
       <r>     1.1119     3.9717     3.7350 </r>
       <r>     1.1848     3.9007     4.0226 </r>
       <r>     1.2576     4.2652     4.3168 </r>
       <r>     1.3305     4.1771     4.6345 </r>
       <r>     1.4034     3.8183     4.9218 </r>
       <r>     1.4762     4.0325     5.2042 </r>
       <r>     1.5491     4.3941     5.5206 </r>
       <r>     1.6220     5.0829     5.8513 </r>
       <r>     1.6948     4.9186     6.2002 </r>
       <r>     1.7677     6.2842     6.5988 </r>
       <r>     1.8406     6.4296     7.1107 </r>
       <r>     1.9135     6.5210     7.5862 </r>
       <r>     1.9863     6.8945     8.0687 </r>
       <r>     2.0592     7.7510     8.6396 </r>
       <r>     2.1321     8.6652     9.2478 </r>
       <r>     2.2049    13.3605    10.0093 </r>
       <r>     2.2778    17.4922    11.0296 </r>
       <r>     2.3507    26.6456    12.6823 </r>
       <r>     2.4235    25.0146    14.5398 </r>
       <r>     2.4964    26.1761    16.4452 </r>
       <r>     2.5693    24.3839    18.2735 </r>
       <r>     2.6421    23.9201    20.0627 </r>
       <r>     2.7150    25.6476    21.9327 </r>
       <r>     2.7879    28.1106    23.8150 </r>
       <r>     2.8608    29.7526    26.0523 </r>
       <r>     2.9336    31.1061    28.2970 </r>
       <r>     3.0065    31.3949    30.5787 </r>
       <r>     3.0794    34.3168    32.9949 </r>
       <r>     3.1522    32.2242    35.4531 </r>
       <r>     3.2251    33.5301    38.0576 </r>
       <r>     3.2980    38.6246    40.6398 </r>
       <r>     3.3708    41.7088    43.5385 </r>
       <r>     3.4437    40.2969    46.5293 </r>
       <r>     3.5166    38.1472    49.4269 </r>
       <r>     3.5894    35.8431    52.2279 </r>
       <r>     3.6623    31.5349    54.6272 </r>
       <r>     3.7352    32.6456    56.9969 </r>
       <r>     3.8081    33.4455    59.4693 </r>
       <r>     3.8809    30.6236    61.8386 </r>
       <r>     3.9538    30.2593    64.0721 </r>
       <r>     4.0267    28.8853    66.2254 </r>
       <r>     4.0995    32.1102    68.4564 </r>
       <r>     4.1724    53.2286    71.2800 </r>
       <r>     4.2453    39.2883    74.5319 </r>
       <r>     4.3181    40.8502    77.7000 </r>
       <r>     4.3910    37.8948    80.6350 </r>
       <r>     4.4639    36.4424    83.3317 </r>
       <r>     4.5367    30.3538    85.7087 </r>
       <r>     4.6096    31.8863    88.0294 </r>
       <r>     4.6825    37.0036    90.4952 </r>
       <r>     4.7554    39.7776    93.1573 </r>
       <r>     4.8282    41.0771    96.3951 </r>
       <r>     4.9011    50.0328    99.5098 </r>
       <r>     4.9740    43.8045   102.8542 </r>
       <r>     5.0468    43.7470   106.2799 </r>
       <r>     5.1197    48.9209   109.7031 </r>
       <r>     5.1926    38.9798   112.7329 </r>
       <r>     5.2654    29.2695   115.2458 </r>
       <r>     5.3383    27.0994   117.2309 </r>
       <r>     5.4112    22.3163   119.1452 </r>
       <r>     5.4841    21.0763   120.7518 </r>
       <r>     5.5569    21.8160   122.2736 </r>
       <r>     5.6298    30.4258   124.0770 </r>
       <r>     5.7027    49.2345   126.8567 </r>
       <r>     5.7755    45.0985   130.2044 </r>
       <r>     5.8484    61.3876   134.0293 </r>
       <r>     5.9213    60.3412   138.3586 </r>
       <r>     5.9941    51.0508   142.1029 </r>
       <r>     6.0670    50.4943   145.6967 </r>
       <r>     6.1399    46.9889   149.4231 </r>
       <r>     6.2127    42.7033   152.7515 </r>
       <r>     6.2856    46.4953   156.2716 </r>
       <r>     6.3585    49.8221   159.7145 </r>
       <r>     6.4314    47.3468   163.2786 </r>
       <r>     6.5042    48.4008   166.9021 </r>
       <r>     6.5771    51.5704   170.6468 </r>
       <r>     6.6500    49.6235   174.1533 </r>
       <r>     6.7228    44.5779   177.9214 </r>
       <r>     6.7957    53.0306   181.5149 </r>
       <r>     6.8686    48.9608   185.1723 </r>
       <r>     6.9414    48.2354   188.6982 </r>
       <r>     7.0143    58.0888   192.6209 </r>
       <r>     7.0872    59.0446   196.7098 </r>
       <r>     7.1600    51.1321   200.8095 </r>
       <r>     7.2329    45.2794   204.1069 </r>
       <r>     7.3058    42.4943   207.3636 </r>
       <r>     7.3787    42.9519   210.5003 </r>
       <r>     7.4515    41.3700   213.4903 </r>
       <r>     7.5244    39.7496   216.4836 </r>
       <r>     7.5973    39.2972   219.3695 </r>
       <r>     7.6701    35.0058   222.0213 </r>
       <r>     7.7430    29.2411   224.3797 </r>
       <r>     7.8159    29.2999   226.4962 </r>
       <r>     7.8887    29.7333   228.6608 </r>
       <r>     7.9616    32.4940   230.8958 </r>
       <r>     8.0345    32.6427   233.3217 </r>
       <r>     8.1073    32.0371   235.6800 </r>
       <r>     8.1802    27.8647   237.8897 </r>
       <r>     8.2531    26.5324   239.8489 </r>
       <r>     8.3260    23.8205   241.6993 </r>
       <r>     8.3988    27.4360   243.5009 </r>
       <r>     8.4717    25.8721   245.3994 </r>
       <r>     8.5446    27.1895   247.3731 </r>
       <r>     8.6174    25.6456   249.2924 </r>
       <r>     8.6903    25.1353   251.1909 </r>
       <r>     8.7632    22.6682   252.9652 </r>
       <r>     8.8360    21.0749   254.5490 </r>
       <r>     8.9089    25.9467   256.2303 </r>
       <r>     8.9818    25.3361   258.1114 </r>
       <r>     9.0547    26.0518   259.9895 </r>
       <r>     9.1275    23.8347   261.8130 </r>
       <r>     9.2004    23.8586   263.5147 </r>
       <r>     9.2733    23.9944   265.2351 </r>
       <r>     9.3461    27.0118   267.0674 </r>
       <r>     9.4190    31.9112   269.2272 </r>
       <r>     9.4919    29.9110   271.4851 </r>
       <r>     9.5647    28.2207   273.5627 </r>
       <r>     9.6376    30.1713   275.6532 </r>
       <r>     9.7105    37.6552   278.0138 </r>
       <r>     9.7833    42.9593   280.9520 </r>
       <r>     9.8562    42.7141   283.9940 </r>
       <r>     9.9291    34.8035   286.7309 </r>
       <r>    10.0020    37.4754   289.4337 </r>
       <r>    10.0748    41.7806   292.1501 </r>
       <r>    10.1477    51.3935   295.4256 </r>
       <r>    10.2206    51.8460   299.1819 </r>
       <r>    10.2934    50.8174   302.8890 </r>
       <r>    10.3663    58.2936   306.8735 </r>
       <r>    10.4392    53.9723   311.0211 </r>
       <r>    10.5120    67.3156   315.2889 </r>
       <r>    10.5849    68.8878   320.0783 </r>
       <r>    10.6578    54.5601   324.4618 </r>
       <r>    10.7306    53.5216   328.2800 </r>
       <r>    10.8035    49.3225   332.1803 </r>
       <r>    10.8764    40.3402   335.5115 </r>
       <r>    10.9493    22.8539   337.8531 </r>
       <r>    11.0221    14.4919   339.1519 </r>
       <r>    11.0950    11.2638   340.0888 </r>
       <r>    11.1679     9.0350   340.8224 </r>
       <r>    11.2407     8.5544   341.4690 </r>
       <r>    11.3136     8.1480   342.0707 </r>
       <r>    11.3865     8.7207   342.6903 </r>
       <r>    11.4593     8.9406   343.3344 </r>
       <r>    11.5322     9.4873   343.9720 </r>
       <r>    11.6051     9.9568   344.6919 </r>
       <r>    11.6780    10.6066   345.4451 </r>
       <r>    11.7508    10.4290   346.2324 </r>
       <r>    11.8237     9.1394   346.9518 </r>
       <r>    11.8966     8.8750   347.6105 </r>
       <r>    11.9694     8.1538   348.2273 </r>
       <r>    12.0423     7.5411   348.7956 </r>
       <r>    12.1152     7.8810   349.3492 </r>
       <r>    12.1880     8.9254   349.9646 </r>
       <r>    12.2609    10.1069   350.6507 </r>
       <r>    12.3338    10.0813   351.3858 </r>
       <r>    12.4066     9.7280   352.1099 </r>
       <r>    12.4795     9.3712   352.8027 </r>
       <r>    12.5524     8.7211   353.4705 </r>
       <r>    12.6253     8.3023   354.0876 </r>
       <r>    12.6981     7.9318   354.6850 </r>
       <r>    12.7710     7.7871   355.2517 </r>
       <r>    12.8439     8.5906   355.8519 </r>
       <r>    12.9167     8.4453   356.4869 </r>
       <r>    12.9896     6.9821   357.0405 </r>
       <r>    13.0625     7.0464   357.5536 </r>
       <r>    13.1353     8.0347   358.0883 </r>
       <r>    13.2082     8.8916   358.7570 </r>
       <r>    13.2811     8.4250   359.4009 </r>
       <r>    13.3539     8.0270   359.9955 </r>
       <r>    13.4268     8.3587   360.5929 </r>
       <r>    13.4997     8.0562   361.2004 </r>
       <r>    13.5726     8.4039   361.7940 </r>
       <r>    13.6454     7.6749   362.4304 </r>
       <r>    13.7183     6.2679   362.9572 </r>
       <r>    13.7912     5.8656   363.3955 </r>
       <r>    13.8640     6.2747   363.8230 </r>
       <r>    13.9369     7.0823   364.3227 </r>
       <r>    14.0098     6.6361   364.8078 </r>
       <r>    14.0826     6.8471   365.3005 </r>
       <r>    14.1555     7.8296   365.8297 </r>
       <r>    14.2284     8.4399   366.4190 </r>
       <r>    14.3012     8.8356   367.0410 </r>
       <r>    14.3741     8.9176   367.7035 </r>
       <r>    14.4470     8.9643   368.3544 </r>
       <r>    14.5199     9.0294   369.0094 </r>
       <r>    14.5927     8.6335   369.6674 </r>
       <r>    14.6656     8.2631   370.2776 </r>
       <r>    14.7385     8.0506   370.8739 </r>
       <r>    14.8113     7.8050   371.4554 </r>
       <r>    14.8842     7.6150   372.0389 </r>
       <r>    14.9571     7.6244   372.5978 </r>
       <r>    15.0299     7.5477   373.1459 </r>
       <r>    15.1028     6.9875   373.6791 </r>
       <r>    15.1757     6.5681   374.1735 </r>
       <r>    15.2486     6.3880   374.6429 </r>
       <r>    15.3214     6.3411   375.1073 </r>
       <r>    15.3943     6.0115   375.5577 </r>
       <r>    15.4672     5.8117   375.9871 </r>
       <r>    15.5400     5.6003   376.4040 </r>
       <r>    15.6129     5.2528   376.7998 </r>
       <r>    15.6858     4.9612   377.1708 </r>
       <r>    15.7586     4.7437   377.5254 </r>
       <r>    15.8315     4.6061   377.8654 </r>
       <r>    15.9044     4.4217   378.1958 </r>
       <r>    15.9772     4.1979   378.5085 </r>
       <r>    16.0501     4.1031   378.8107 </r>
       <r>    16.1230     4.0853   379.1085 </r>
       <r>    16.1959     4.1391   379.4081 </r>
       <r>    16.2687     4.1647   379.7103 </r>
       <r>    16.3416     4.0803   380.0117 </r>
       <r>    16.4145     4.1684   380.3100 </r>
       <r>    16.4873     3.9325   380.6069 </r>
       <r>    16.5602     3.5829   380.8809 </r>
       <r>    16.6331     3.2278   381.1289 </r>
       <r>    16.7059     3.5648   381.3763 </r>
       <r>    16.7788     2.8779   381.6096 </r>
       <r>    16.8517     2.6092   381.8066 </r>
       <r>    16.9245     2.1623   381.9814 </r>
       <r>    16.9974     2.0634   382.1326 </r>
       <r>    17.0703     2.3168   382.2937 </r>
       <r>    17.1432     2.1583   382.4569 </r>
       <r>    17.2160     1.9885   382.6079 </r>
       <r>    17.2889     1.8099   382.7465 </r>
       <r>    17.3618     1.6228   382.8714 </r>
       <r>    17.4346     1.5232   382.9855 </r>
       <r>    17.5075     1.4773   383.0941 </r>
       <r>    17.5804     1.3553   383.1978 </r>
       <r>    17.6532     1.2213   383.2915 </r>
       <r>    17.7261     1.1037   383.3761 </r>
       <r>    17.7990     1.2255   383.4594 </r>
       <r>    17.8718     0.9265   383.5341 </r>
       <r>    17.9447     0.8769   383.5999 </r>
       <r>    18.0176     0.8240   383.6619 </r>
       <r>    18.0905     0.7585   383.7196 </r>
       <r>    18.1633     0.7012   383.7728 </r>
       <r>    18.2362     0.6127   383.8209 </r>
       <r>    18.3091     0.5177   383.8621 </r>
       <r>    18.3819     0.4268   383.8965 </r>
       <r>    18.4548     0.3398   383.9244 </r>
       <r>    18.5277     0.2564   383.9460 </r>
       <r>    18.6005     0.1967   383.9625 </r>
       <r>    18.6734     0.1460   383.9749 </r>
       <r>    18.7463     0.1065   383.9840 </r>
       <r>    18.8192     0.0775   383.9907 </r>
       <r>    18.8920     0.0454   383.9952 </r>
       <r>    18.9649     0.0282   383.9978 </r>
       <r>    19.0378     0.0148   383.9993 </r>
       <r>    19.1106     0.0030   384.0000 </r>
       <r>    19.1835     0.0000   384.0000 </r>
       <r>    19.2564     0.0000   384.0000 </r>
       <r>    19.3292     0.0000   384.0000 </r>
       <r>    19.4021     0.0000   384.0000 </r>
       <r>    19.4750     0.0000   384.0000 </r>
       <r>    19.5478     0.0000   384.0000 </r>
       <r>    19.6207     0.0000   384.0000 </r>
       <r>    19.6936     0.0000   384.0000 </r>
       <r>    19.7665     0.0000   384.0000 </r>
       <r>    19.8393     0.0000   384.0000 </r>
       <r>    19.9122     0.0000   384.0000 </r>
       <r>    19.9851     0.0000   384.0000 </r>
       <r>    20.0579     0.0000   384.0000 </r>
       <r>    20.1308     0.0000   384.0000 </r>
      </set>
     </set>
    </array>
   </total>
  </dos>
 </calculation>
 <structure name="finalpos" >
  <crystal>
   <varray name="basis" >
    <v>       8.24645053      -4.76109033      -4.43166400 </v>
    <v>       2.74954070       4.76234409       0.00000000 </v>
    <v>       8.24645053      -4.76109033       4.43166400 </v>
   </varray>
   <i name="volume">    464.11262920 </i>
   <varray name="rec_basis" >
    <v>       0.04547411      -0.02625449      -0.11282444 </v>
    <v>       0.09092428       0.15748547       0.00000000 </v>
    <v>       0.04547411      -0.02625449       0.11282444 </v>
   </varray>
  </crystal>
  <varray name="positions" >
   <v>       0.54241466       1.00000000       0.79241466 </v>
   <v>       0.79104604       0.50000000       0.04104604 </v>
   <v>       0.20820034       0.50000000       0.95854991 </v>
   <v>       0.70854991       0.50000000       0.45820034 </v>
   <v>       0.41602541       0.74924249       0.66602541 </v>
   <v>       0.66697858       0.24946265       0.91697858 </v>
   <v>       0.91688358       0.75084357       0.16688358 </v>
   <v>       0.16692791       0.24912364       0.41692791 </v>
   <v>       0.54196842       0.50000000       0.79196842 </v>
   <v>       0.79112504       1.00000000       0.04112504 </v>
   <v>       0.04206415       0.50000000       0.29206415 </v>
   <v>       0.29113315       1.00000000       0.54113315 </v>
   <v>       0.41602541       0.25075751       0.66602541 </v>
   <v>       0.66697858       0.75053735       0.91697858 </v>
   <v>       0.91688358       0.24915643       0.16688358 </v>
   <v>       0.16692791       0.75087636       0.41692791 </v>
   <v>       0.08372800       0.24956896       0.83161061 </v>
   <v>       0.33229799       0.75117363       0.08545366 </v>
   <v>       0.58161061       0.24956896       0.33372800 </v>
   <v>       0.83545366       0.75117363       0.58229799 </v>
   <v>       0.08372800       0.75043105       0.83161061 </v>
   <v>       0.33229799       0.24882637       0.08545366 </v>
   <v>       0.58161061       0.75043105       0.33372800 </v>
   <v>       0.83545366       0.24882637       0.58229799 </v>
   <v>       0.96033888       0.50000000       0.70659823 </v>
   <v>       0.20770645       0.00000000       0.95919813 </v>
   <v>       0.45659823       0.50000000       0.21033888 </v>
   <v>       0.70919813       0.00000000       0.45770645 </v>
   <v>       0.29198258       0.50000000       0.54198258 </v>
   <v>       0.04118481       1.00000000       0.29118481 </v>
   <v>       0.45755331       0.00000000       0.20912442 </v>
   <v>       0.95912442       0.00000000       0.70755331 </v>
  </varray>
 </structure>
</modeling>
