  48  48   0   0
  0.1633934E+02  0.7205269E-09  0.1018878E-08  0.1159721E-08  0.1500000E-14
   3000.00000000000     
  CAR 
 Ir_Ru                                   
     23.83534852     -3.01607023  301      6.92761350      1.00000000
     -3.016  0.0000E+00  0.0000E+00
     -2.927  0.0000E+00  0.0000E+00
     -2.837  0.0000E+00  0.0000E+00
     -2.748  0.0000E+00  0.0000E+00
     -2.658  0.0000E+00  0.0000E+00
     -2.569  0.0000E+00  0.0000E+00
     -2.479  0.1011E-03  0.9026E-05
     -2.390  0.4889E-03  0.5253E-04
     -2.300  0.6606E-03  0.1114E-03
     -2.211  0.1273E-02  0.2247E-03
     -2.121  0.1793E-02  0.3844E-03
     -2.032  0.2357E-02  0.5942E-03
     -1.942  0.3521E-02  0.9077E-03
     -1.853  0.4919E-02  0.1346E-02
     -1.763  0.6783E-02  0.1950E-02
     -1.673  0.9974E-02  0.2838E-02
     -1.584  0.1401E-01  0.4086E-02
     -1.494  0.2033E-01  0.5895E-02
     -1.405  0.2910E-01  0.8487E-02
     -1.315  0.4079E-01  0.1212E-01
     -1.226  0.5802E-01  0.1729E-01
     -1.136  0.8146E-01  0.2454E-01
     -1.047  0.1132E+00  0.3462E-01
     -0.957  0.1562E+00  0.4853E-01
     -0.868  0.2140E+00  0.6759E-01
     -0.778  0.2910E+00  0.9351E-01
     -0.689  0.3934E+00  0.1286E+00
     -0.599  0.5285E+00  0.1756E+00
     -0.510  0.7037E+00  0.2383E+00
     -0.420  0.9289E+00  0.3210E+00
     -0.331  0.1214E+01  0.4292E+00
     -0.241  0.1569E+01  0.5689E+00
     -0.152  0.2005E+01  0.7475E+00
     -0.062  0.2534E+01  0.9732E+00
      0.027  0.3172E+01  0.1256E+01
      0.117  0.3938E+01  0.1606E+01
      0.206  0.4857E+01  0.2039E+01
      0.296  0.5961E+01  0.2570E+01
      0.385  0.7288E+01  0.3219E+01
      0.475  0.8878E+01  0.4010E+01
      0.564  0.1077E+02  0.4969E+01
      0.654  0.1300E+02  0.6127E+01
      0.743  0.1559E+02  0.7516E+01
      0.833  0.1853E+02  0.9166E+01
      0.922  0.2182E+02  0.1111E+02
      1.012  0.2540E+02  0.1337E+02
      1.101  0.2922E+02  0.1598E+02
      1.191  0.3319E+02  0.1893E+02
      1.280  0.3721E+02  0.2225E+02
      1.370  0.4119E+02  0.2591E+02
      1.459  0.4503E+02  0.2992E+02
      1.549  0.4865E+02  0.3426E+02
      1.638  0.5201E+02  0.3889E+02
      1.728  0.5505E+02  0.4379E+02
      1.817  0.5777E+02  0.4893E+02
      1.907  0.6016E+02  0.5429E+02
      1.996  0.6223E+02  0.5983E+02
      2.086  0.6401E+02  0.6553E+02
      2.175  0.6550E+02  0.7136E+02
      2.265  0.6673E+02  0.7730E+02
      2.354  0.6774E+02  0.8333E+02
      2.444  0.6854E+02  0.8943E+02
      2.533  0.6917E+02  0.9559E+02
      2.623  0.6964E+02  0.1018E+03
      2.712  0.6998E+02  0.1080E+03
      2.802  0.7022E+02  0.1143E+03
      2.891  0.7038E+02  0.1205E+03
      2.981  0.7047E+02  0.1268E+03
      3.070  0.7050E+02  0.1331E+03
      3.160  0.7048E+02  0.1394E+03
      3.249  0.7042E+02  0.1456E+03
      3.339  0.7032E+02  0.1519E+03
      3.428  0.7019E+02  0.1581E+03
      3.518  0.7003E+02  0.1644E+03
      3.607  0.6985E+02  0.1706E+03
      3.697  0.6964E+02  0.1768E+03
      3.786  0.6941E+02  0.1830E+03
      3.876  0.6916E+02  0.1891E+03
      3.965  0.6889E+02  0.1953E+03
      4.055  0.6859E+02  0.2014E+03
      4.144  0.6828E+02  0.2074E+03
      4.234  0.6796E+02  0.2135E+03
      4.323  0.6762E+02  0.2195E+03
      4.413  0.6727E+02  0.2255E+03
      4.502  0.6691E+02  0.2315E+03
      4.592  0.6655E+02  0.2374E+03
      4.681  0.6619E+02  0.2433E+03
      4.771  0.6583E+02  0.2491E+03
      4.860  0.6548E+02  0.2550E+03
      4.950  0.6513E+02  0.2608E+03
      5.039  0.6481E+02  0.2665E+03
      5.129  0.6450E+02  0.2723E+03
      5.218  0.6423E+02  0.2780E+03
      5.308  0.6400E+02  0.2837E+03
      5.397  0.6382E+02  0.2894E+03
      5.487  0.6370E+02  0.2951E+03
      5.576  0.6365E+02  0.3007E+03
      5.666  0.6366E+02  0.3064E+03
      5.755  0.6374E+02  0.3121E+03
      5.845  0.6390E+02  0.3178E+03
      5.934  0.6412E+02  0.3235E+03
      6.024  0.6442E+02  0.3292E+03
      6.113  0.6477E+02  0.3350E+03
      6.203  0.6518E+02  0.3408E+03
      6.292  0.6564E+02  0.3466E+03
      6.382  0.6614E+02  0.3525E+03
      6.471  0.6668E+02  0.3585E+03
      6.561  0.6723E+02  0.3644E+03
      6.650  0.6780E+02  0.3705E+03
      6.740  0.6835E+02  0.3766E+03
      6.829  0.6887E+02  0.3827E+03
      6.919  0.6934E+02  0.3889E+03
      7.008  0.6974E+02  0.3951E+03
      7.098  0.7005E+02  0.4013E+03
      7.187  0.7024E+02  0.4076E+03
      7.277  0.7029E+02  0.4138E+03
      7.366  0.7018E+02  0.4201E+03
      7.456  0.6988E+02  0.4263E+03
      7.545  0.6936E+02  0.4325E+03
      7.635  0.6861E+02  0.4386E+03
      7.724  0.6760E+02  0.4446E+03
      7.814  0.6632E+02  0.4505E+03
      7.904  0.6475E+02  0.4563E+03
      7.993  0.6289E+02  0.4619E+03
      8.083  0.6075E+02  0.4673E+03
      8.172  0.5833E+02  0.4725E+03
      8.262  0.5566E+02  0.4774E+03
      8.351  0.5277E+02  0.4821E+03
      8.441  0.4970E+02  0.4866E+03
      8.530  0.4650E+02  0.4907E+03
      8.620  0.4323E+02  0.4946E+03
      8.709  0.3996E+02  0.4981E+03
      8.799  0.3677E+02  0.5014E+03
      8.888  0.3371E+02  0.5044E+03
      8.978  0.3086E+02  0.5071E+03
      9.067  0.2826E+02  0.5097E+03
      9.157  0.2594E+02  0.5120E+03
      9.246  0.2391E+02  0.5141E+03
      9.336  0.2218E+02  0.5161E+03
      9.425  0.2071E+02  0.5179E+03
      9.515  0.1950E+02  0.5197E+03
      9.604  0.1849E+02  0.5213E+03
      9.694  0.1767E+02  0.5229E+03
      9.783  0.1699E+02  0.5244E+03
      9.873  0.1643E+02  0.5259E+03
      9.962  0.1596E+02  0.5273E+03
     10.052  0.1555E+02  0.5287E+03
     10.141  0.1519E+02  0.5300E+03
     10.231  0.1487E+02  0.5314E+03
     10.320  0.1457E+02  0.5327E+03
     10.410  0.1430E+02  0.5339E+03
     10.499  0.1405E+02  0.5352E+03
     10.589  0.1381E+02  0.5364E+03
     10.678  0.1360E+02  0.5376E+03
     10.768  0.1340E+02  0.5388E+03
     10.857  0.1322E+02  0.5400E+03
     10.947  0.1306E+02  0.5412E+03
     11.036  0.1292E+02  0.5423E+03
     11.126  0.1280E+02  0.5435E+03
     11.215  0.1269E+02  0.5446E+03
     11.305  0.1260E+02  0.5457E+03
     11.394  0.1251E+02  0.5468E+03
     11.484  0.1244E+02  0.5479E+03
     11.573  0.1237E+02  0.5490E+03
     11.663  0.1232E+02  0.5501E+03
     11.752  0.1228E+02  0.5512E+03
     11.842  0.1226E+02  0.5523E+03
     11.931  0.1224E+02  0.5534E+03
     12.021  0.1225E+02  0.5545E+03
     12.110  0.1226E+02  0.5556E+03
     12.200  0.1228E+02  0.5567E+03
     12.289  0.1230E+02  0.5578E+03
     12.379  0.1233E+02  0.5589E+03
     12.468  0.1236E+02  0.5600E+03
     12.558  0.1239E+02  0.5611E+03
     12.647  0.1241E+02  0.5622E+03
     12.737  0.1243E+02  0.5633E+03
     12.826  0.1245E+02  0.5644E+03
     12.916  0.1247E+02  0.5655E+03
     13.005  0.1248E+02  0.5666E+03
     13.095  0.1249E+02  0.5677E+03
     13.184  0.1250E+02  0.5689E+03
     13.274  0.1251E+02  0.5700E+03
     13.363  0.1251E+02  0.5711E+03
     13.453  0.1251E+02  0.5722E+03
     13.542  0.1252E+02  0.5733E+03
     13.632  0.1252E+02  0.5744E+03
     13.721  0.1252E+02  0.5755E+03
     13.811  0.1252E+02  0.5767E+03
     13.900  0.1253E+02  0.5778E+03
     13.990  0.1254E+02  0.5789E+03
     14.079  0.1256E+02  0.5800E+03
     14.169  0.1260E+02  0.5811E+03
     14.258  0.1265E+02  0.5823E+03
     14.348  0.1271E+02  0.5834E+03
     14.437  0.1279E+02  0.5845E+03
     14.527  0.1288E+02  0.5857E+03
     14.616  0.1300E+02  0.5868E+03
     14.706  0.1313E+02  0.5880E+03
     14.795  0.1328E+02  0.5892E+03
     14.885  0.1344E+02  0.5904E+03
     14.974  0.1361E+02  0.5916E+03
     15.064  0.1379E+02  0.5928E+03
     15.153  0.1398E+02  0.5941E+03
     15.243  0.1417E+02  0.5953E+03
     15.332  0.1436E+02  0.5966E+03
     15.422  0.1456E+02  0.5979E+03
     15.511  0.1476E+02  0.5992E+03
     15.601  0.1497E+02  0.6005E+03
     15.690  0.1519E+02  0.6019E+03
     15.780  0.1541E+02  0.6033E+03
     15.869  0.1564E+02  0.6047E+03
     15.959  0.1588E+02  0.6061E+03
     16.048  0.1611E+02  0.6075E+03
     16.138  0.1634E+02  0.6090E+03
     16.227  0.1656E+02  0.6104E+03
     16.317  0.1677E+02  0.6119E+03
     16.406  0.1697E+02  0.6134E+03
     16.496  0.1715E+02  0.6150E+03
     16.585  0.1733E+02  0.6165E+03
     16.675  0.1749E+02  0.6181E+03
     16.764  0.1765E+02  0.6196E+03
     16.854  0.1781E+02  0.6212E+03
     16.943  0.1796E+02  0.6228E+03
     17.033  0.1812E+02  0.6244E+03
     17.122  0.1828E+02  0.6261E+03
     17.212  0.1845E+02  0.6277E+03
     17.302  0.1862E+02  0.6294E+03
     17.391  0.1879E+02  0.6310E+03
     17.481  0.1895E+02  0.6327E+03
     17.570  0.1912E+02  0.6344E+03
     17.660  0.1927E+02  0.6362E+03
     17.749  0.1942E+02  0.6379E+03
     17.839  0.1956E+02  0.6396E+03
     17.928  0.1969E+02  0.6414E+03
     18.018  0.1981E+02  0.6431E+03
     18.107  0.1991E+02  0.6449E+03
     18.197  0.2001E+02  0.6467E+03
     18.286  0.2011E+02  0.6485E+03
     18.376  0.2020E+02  0.6503E+03
     18.465  0.2028E+02  0.6521E+03
     18.555  0.2036E+02  0.6539E+03
     18.644  0.2045E+02  0.6557E+03
     18.734  0.2053E+02  0.6576E+03
     18.823  0.2062E+02  0.6594E+03
     18.913  0.2071E+02  0.6612E+03
     19.002  0.2080E+02  0.6631E+03
     19.092  0.2089E+02  0.6649E+03
     19.181  0.2096E+02  0.6668E+03
     19.271  0.2103E+02  0.6687E+03
     19.360  0.2107E+02  0.6706E+03
     19.450  0.2109E+02  0.6724E+03
     19.539  0.2106E+02  0.6743E+03
     19.629  0.2099E+02  0.6762E+03
     19.718  0.2087E+02  0.6780E+03
     19.808  0.2067E+02  0.6799E+03
     19.897  0.2039E+02  0.6817E+03
     19.987  0.2001E+02  0.6835E+03
     20.076  0.1952E+02  0.6852E+03
     20.166  0.1890E+02  0.6869E+03
     20.255  0.1814E+02  0.6885E+03
     20.345  0.1724E+02  0.6901E+03
     20.434  0.1617E+02  0.6915E+03
     20.524  0.1496E+02  0.6928E+03
     20.613  0.1361E+02  0.6940E+03
     20.703  0.1215E+02  0.6951E+03
     20.792  0.1063E+02  0.6961E+03
     20.882  0.9098E+01  0.6969E+03
     20.971  0.7617E+01  0.6976E+03
     21.061  0.6240E+01  0.6981E+03
     21.150  0.5008E+01  0.6986E+03
     21.240  0.3945E+01  0.6989E+03
     21.329  0.3056E+01  0.6992E+03
     21.419  0.2334E+01  0.6994E+03
     21.508  0.1762E+01  0.6996E+03
     21.598  0.1318E+01  0.6997E+03
     21.687  0.9777E+00  0.6998E+03
     21.777  0.7207E+00  0.6998E+03
     21.866  0.5285E+00  0.6999E+03
     21.956  0.3856E+00  0.6999E+03
     22.045  0.2801E+00  0.6999E+03
     22.135  0.2024E+00  0.7000E+03
     22.224  0.1455E+00  0.7000E+03
     22.314  0.1038E+00  0.7000E+03
     22.403  0.7339E-01  0.7000E+03
     22.493  0.5124E-01  0.7000E+03
     22.582  0.3518E-01  0.7000E+03
     22.672  0.2351E-01  0.7000E+03
     22.761  0.1508E-01  0.7000E+03
     22.851  0.9043E-02  0.7000E+03
     22.940  0.4838E-02  0.7000E+03
     23.030  0.2135E-02  0.7000E+03
     23.119  0.6845E-03  0.7000E+03
     23.209  0.1315E-03  0.7000E+03
     23.298  0.0000E+00  0.7000E+03
     23.388  0.0000E+00  0.7000E+03
     23.477  0.0000E+00  0.7000E+03
     23.567  0.0000E+00  0.7000E+03
     23.656  0.0000E+00  0.7000E+03
     23.746  0.0000E+00  0.7000E+03
     23.835  0.0000E+00  0.7000E+03
     23.68720749     -3.10040989  301      6.76240562      1.00000000
     -3.100  0.0000E+00  0.0000E+00
     -3.011  0.0000E+00  0.0000E+00
     -2.922  0.0000E+00  0.0000E+00
     -2.833  0.0000E+00  0.0000E+00
     -2.743  0.0000E+00  0.0000E+00
     -2.654  0.0000E+00  0.0000E+00
     -2.565  0.1248E-03  0.1115E-04
     -2.475  0.4711E-03  0.5316E-04
     -2.386  0.6829E-03  0.1141E-03
     -2.297  0.1318E-02  0.2316E-03
     -2.207  0.1811E-02  0.3932E-03
     -2.118  0.2408E-02  0.6080E-03
     -2.029  0.3609E-02  0.9301E-03
     -1.940  0.5056E-02  0.1381E-02
     -1.850  0.7052E-02  0.2011E-02
     -1.761  0.1042E-01  0.2941E-02
     -1.672  0.1455E-01  0.4240E-02
     -1.582  0.2065E-01  0.6083E-02
     -1.493  0.2962E-01  0.8727E-02
     -1.404  0.4226E-01  0.1250E-01
     -1.315  0.5996E-01  0.1785E-01
     -1.225  0.8370E-01  0.2532E-01
     -1.136  0.1169E+00  0.3576E-01
     -1.047  0.1612E+00  0.5015E-01
     -0.957  0.2205E+00  0.6983E-01
     -0.868  0.3002E+00  0.9662E-01
     -0.779  0.4061E+00  0.1329E+00
     -0.690  0.5456E+00  0.1816E+00
     -0.600  0.7272E+00  0.2465E+00
     -0.511  0.9601E+00  0.3322E+00
     -0.422  0.1255E+01  0.4442E+00
     -0.332  0.1622E+01  0.5890E+00
     -0.243  0.2072E+01  0.7740E+00
     -0.154  0.2619E+01  0.1008E+01
     -0.064  0.3277E+01  0.1300E+01
      0.025  0.4066E+01  0.1663E+01
      0.114  0.5010E+01  0.2111E+01
      0.203  0.6142E+01  0.2659E+01
      0.293  0.7498E+01  0.3328E+01
      0.382  0.9118E+01  0.4142E+01
      0.471  0.1104E+02  0.5128E+01
      0.561  0.1330E+02  0.6315E+01
      0.650  0.1593E+02  0.7737E+01
      0.739  0.1891E+02  0.9425E+01
      0.828  0.2225E+02  0.1141E+02
      0.918  0.2588E+02  0.1372E+02
      1.007  0.2974E+02  0.1637E+02
      1.096  0.3375E+02  0.1939E+02
      1.186  0.3781E+02  0.2276E+02
      1.275  0.4181E+02  0.2649E+02
      1.364  0.4566E+02  0.3056E+02
      1.453  0.4930E+02  0.3496E+02
      1.543  0.5265E+02  0.3966E+02
      1.632  0.5569E+02  0.4463E+02
      1.721  0.5840E+02  0.4983E+02
      1.811  0.6076E+02  0.5525E+02
      1.900  0.6280E+02  0.6086E+02
      1.989  0.6453E+02  0.6661E+02
      2.079  0.6597E+02  0.7249E+02
      2.168  0.6715E+02  0.7848E+02
      2.257  0.6810E+02  0.8456E+02
      2.346  0.6885E+02  0.9070E+02
      2.436  0.6942E+02  0.9689E+02
      2.525  0.6985E+02  0.1031E+03
      2.614  0.7015E+02  0.1094E+03
      2.704  0.7035E+02  0.1156E+03
      2.793  0.7046E+02  0.1219E+03
      2.882  0.7051E+02  0.1282E+03
      2.971  0.7050E+02  0.1345E+03
      3.061  0.7044E+02  0.1408E+03
      3.150  0.7033E+02  0.1471E+03
      3.239  0.7020E+02  0.1533E+03
      3.329  0.7002E+02  0.1596E+03
      3.418  0.6982E+02  0.1658E+03
      3.507  0.6960E+02  0.1720E+03
      3.596  0.6936E+02  0.1782E+03
      3.686  0.6910E+02  0.1844E+03
      3.775  0.6883E+02  0.1905E+03
      3.864  0.6855E+02  0.1966E+03
      3.954  0.6825E+02  0.2027E+03
      4.043  0.6794E+02  0.2088E+03
      4.132  0.6763E+02  0.2148E+03
      4.222  0.6730E+02  0.2208E+03
      4.311  0.6696E+02  0.2268E+03
      4.400  0.6662E+02  0.2327E+03
      4.489  0.6627E+02  0.2386E+03
      4.579  0.6591E+02  0.2445E+03
      4.668  0.6556E+02  0.2504E+03
      4.757  0.6521E+02  0.2562E+03
      4.847  0.6488E+02  0.2620E+03
      4.936  0.6457E+02  0.2677E+03
      5.025  0.6428E+02  0.2735E+03
      5.114  0.6402E+02  0.2792E+03
      5.204  0.6379E+02  0.2849E+03
      5.293  0.6360E+02  0.2905E+03
      5.382  0.6345E+02  0.2962E+03
      5.472  0.6334E+02  0.3019E+03
      5.561  0.6329E+02  0.3075E+03
      5.650  0.6330E+02  0.3131E+03
      5.740  0.6336E+02  0.3188E+03
      5.829  0.6350E+02  0.3245E+03
      5.918  0.6370E+02  0.3301E+03
      6.007  0.6398E+02  0.3359E+03
      6.097  0.6432E+02  0.3416E+03
      6.186  0.6473E+02  0.3474E+03
      6.275  0.6520E+02  0.3532E+03
      6.365  0.6571E+02  0.3590E+03
      6.454  0.6625E+02  0.3650E+03
      6.543  0.6682E+02  0.3709E+03
      6.632  0.6738E+02  0.3769E+03
      6.722  0.6793E+02  0.3830E+03
      6.811  0.6844E+02  0.3891E+03
      6.900  0.6889E+02  0.3952E+03
      6.990  0.6926E+02  0.4014E+03
      7.079  0.6952E+02  0.4076E+03
      7.168  0.6965E+02  0.4138E+03
      7.257  0.6960E+02  0.4200E+03
      7.347  0.6936E+02  0.4262E+03
      7.436  0.6890E+02  0.4324E+03
      7.525  0.6819E+02  0.4385E+03
      7.615  0.6721E+02  0.4445E+03
      7.704  0.6595E+02  0.4503E+03
      7.793  0.6440E+02  0.4561E+03
      7.883  0.6256E+02  0.4617E+03
      7.972  0.6043E+02  0.4671E+03
      8.061  0.5805E+02  0.4722E+03
      8.150  0.5542E+02  0.4772E+03
      8.240  0.5259E+02  0.4819E+03
      8.329  0.4959E+02  0.4863E+03
      8.418  0.4647E+02  0.4905E+03
      8.508  0.4329E+02  0.4943E+03
      8.597  0.4010E+02  0.4979E+03
      8.686  0.3696E+02  0.5012E+03
      8.775  0.3395E+02  0.5042E+03
      8.865  0.3111E+02  0.5070E+03
      8.954  0.2850E+02  0.5095E+03
      9.043  0.2615E+02  0.5119E+03
      9.133  0.2408E+02  0.5140E+03
      9.222  0.2228E+02  0.5160E+03
      9.311  0.2075E+02  0.5179E+03
      9.400  0.1948E+02  0.5196E+03
      9.490  0.1842E+02  0.5213E+03
      9.579  0.1757E+02  0.5228E+03
      9.668  0.1687E+02  0.5243E+03
      9.758  0.1631E+02  0.5258E+03
      9.847  0.1584E+02  0.5272E+03
      9.936  0.1546E+02  0.5286E+03
     10.026  0.1513E+02  0.5299E+03
     10.115  0.1484E+02  0.5313E+03
     10.204  0.1458E+02  0.5326E+03
     10.293  0.1434E+02  0.5339E+03
     10.383  0.1412E+02  0.5351E+03
     10.472  0.1391E+02  0.5364E+03
     10.561  0.1371E+02  0.5376E+03
     10.651  0.1352E+02  0.5388E+03
     10.740  0.1335E+02  0.5400E+03
     10.829  0.1319E+02  0.5412E+03
     10.918  0.1305E+02  0.5423E+03
     11.008  0.1292E+02  0.5435E+03
     11.097  0.1281E+02  0.5446E+03
     11.186  0.1273E+02  0.5458E+03
     11.276  0.1265E+02  0.5469E+03
     11.365  0.1260E+02  0.5480E+03
     11.454  0.1255E+02  0.5491E+03
     11.543  0.1252E+02  0.5502E+03
     11.633  0.1250E+02  0.5514E+03
     11.722  0.1249E+02  0.5525E+03
     11.811  0.1249E+02  0.5536E+03
     11.901  0.1248E+02  0.5547E+03
     11.990  0.1248E+02  0.5558E+03
     12.079  0.1248E+02  0.5569E+03
     12.169  0.1247E+02  0.5580E+03
     12.258  0.1246E+02  0.5592E+03
     12.347  0.1244E+02  0.5603E+03
     12.436  0.1242E+02  0.5614E+03
     12.526  0.1240E+02  0.5625E+03
     12.615  0.1237E+02  0.5636E+03
     12.704  0.1235E+02  0.5647E+03
     12.794  0.1233E+02  0.5658E+03
     12.883  0.1231E+02  0.5669E+03
     12.972  0.1230E+02  0.5680E+03
     13.061  0.1229E+02  0.5691E+03
     13.151  0.1229E+02  0.5702E+03
     13.240  0.1230E+02  0.5713E+03
     13.329  0.1231E+02  0.5724E+03
     13.419  0.1233E+02  0.5735E+03
     13.508  0.1236E+02  0.5746E+03
     13.597  0.1239E+02  0.5757E+03
     13.686  0.1241E+02  0.5768E+03
     13.776  0.1245E+02  0.5779E+03
     13.865  0.1248E+02  0.5790E+03
     13.954  0.1253E+02  0.5801E+03
     14.044  0.1258E+02  0.5813E+03
     14.133  0.1265E+02  0.5824E+03
     14.222  0.1274E+02  0.5835E+03
     14.312  0.1285E+02  0.5847E+03
     14.401  0.1298E+02  0.5858E+03
     14.490  0.1313E+02  0.5870E+03
     14.579  0.1330E+02  0.5882E+03
     14.669  0.1348E+02  0.5894E+03
     14.758  0.1366E+02  0.5906E+03
     14.847  0.1386E+02  0.5918E+03
     14.937  0.1405E+02  0.5931E+03
     15.026  0.1424E+02  0.5944E+03
     15.115  0.1444E+02  0.5956E+03
     15.204  0.1462E+02  0.5969E+03
     15.294  0.1481E+02  0.5983E+03
     15.383  0.1499E+02  0.5996E+03
     15.472  0.1518E+02  0.6010E+03
     15.562  0.1536E+02  0.6023E+03
     15.651  0.1555E+02  0.6037E+03
     15.740  0.1573E+02  0.6051E+03
     15.830  0.1592E+02  0.6065E+03
     15.919  0.1610E+02  0.6080E+03
     16.008  0.1628E+02  0.6094E+03
     16.097  0.1645E+02  0.6109E+03
     16.187  0.1663E+02  0.6124E+03
     16.276  0.1680E+02  0.6139E+03
     16.365  0.1696E+02  0.6154E+03
     16.455  0.1712E+02  0.6169E+03
     16.544  0.1728E+02  0.6185E+03
     16.633  0.1744E+02  0.6200E+03
     16.722  0.1760E+02  0.6216E+03
     16.812  0.1775E+02  0.6232E+03
     16.901  0.1790E+02  0.6248E+03
     16.990  0.1804E+02  0.6264E+03
     17.080  0.1818E+02  0.6280E+03
     17.169  0.1832E+02  0.6296E+03
     17.258  0.1845E+02  0.6313E+03
     17.347  0.1858E+02  0.6329E+03
     17.437  0.1870E+02  0.6346E+03
     17.526  0.1882E+02  0.6363E+03
     17.615  0.1894E+02  0.6380E+03
     17.705  0.1905E+02  0.6397E+03
     17.794  0.1917E+02  0.6414E+03
     17.883  0.1928E+02  0.6431E+03
     17.973  0.1939E+02  0.6448E+03
     18.062  0.1950E+02  0.6466E+03
     18.151  0.1963E+02  0.6483E+03
     18.240  0.1976E+02  0.6501E+03
     18.330  0.1990E+02  0.6519E+03
     18.419  0.2005E+02  0.6537E+03
     18.508  0.2022E+02  0.6555E+03
     18.598  0.2039E+02  0.6573E+03
     18.687  0.2056E+02  0.6591E+03
     18.776  0.2074E+02  0.6610E+03
     18.865  0.2091E+02  0.6628E+03
     18.955  0.2107E+02  0.6647E+03
     19.044  0.2122E+02  0.6666E+03
     19.133  0.2134E+02  0.6685E+03
     19.223  0.2143E+02  0.6704E+03
     19.312  0.2148E+02  0.6723E+03
     19.401  0.2148E+02  0.6743E+03
     19.490  0.2141E+02  0.6762E+03
     19.580  0.2128E+02  0.6781E+03
     19.669  0.2106E+02  0.6799E+03
     19.758  0.2074E+02  0.6818E+03
     19.848  0.2032E+02  0.6836E+03
     19.937  0.1977E+02  0.6854E+03
     20.026  0.1909E+02  0.6871E+03
     20.116  0.1826E+02  0.6887E+03
     20.205  0.1728E+02  0.6902E+03
     20.294  0.1615E+02  0.6917E+03
     20.383  0.1487E+02  0.6930E+03
     20.473  0.1346E+02  0.6942E+03
     20.562  0.1196E+02  0.6953E+03
     20.651  0.1040E+02  0.6962E+03
     20.741  0.8859E+01  0.6970E+03
     20.830  0.7381E+01  0.6977E+03
     20.919  0.6019E+01  0.6982E+03
     21.008  0.4811E+01  0.6986E+03
     21.098  0.3776E+01  0.6990E+03
     21.187  0.2917E+01  0.6992E+03
     21.276  0.2222E+01  0.6994E+03
     21.366  0.1674E+01  0.6996E+03
     21.455  0.1250E+01  0.6997E+03
     21.544  0.9255E+00  0.6998E+03
     21.633  0.6813E+00  0.6998E+03
     21.723  0.4988E+00  0.6999E+03
     21.812  0.3634E+00  0.6999E+03
     21.901  0.2635E+00  0.6999E+03
     21.991  0.1901E+00  0.7000E+03
     22.080  0.1363E+00  0.7000E+03
     22.169  0.9702E-01  0.7000E+03
     22.259  0.6838E-01  0.7000E+03
     22.348  0.4755E-01  0.7000E+03
     22.437  0.3245E-01  0.7000E+03
     22.526  0.2150E-01  0.7000E+03
     22.616  0.1359E-01  0.7000E+03
     22.705  0.7973E-02  0.7000E+03
     22.794  0.4153E-02  0.7000E+03
     22.884  0.1786E-02  0.7000E+03
     22.973  0.5633E-03  0.7000E+03
     23.062  0.1219E-03  0.7000E+03
     23.151  0.0000E+00  0.7000E+03
     23.241  0.0000E+00  0.7000E+03
     23.330  0.0000E+00  0.7000E+03
     23.419  0.0000E+00  0.7000E+03
     23.509  0.0000E+00  0.7000E+03
     23.598  0.0000E+00  0.7000E+03
     23.687  0.0000E+00  0.7000E+03
     23.66485411     -3.10456889  301      6.74653595      1.00000000
     -3.105  0.0000E+00  0.0000E+00
     -3.015  0.0000E+00  0.0000E+00
     -2.926  0.0000E+00  0.0000E+00
     -2.837  0.0000E+00  0.0000E+00
     -2.748  0.0000E+00  0.0000E+00
     -2.658  0.0000E+00  0.0000E+00
     -2.569  0.1805E-06  0.1611E-07
     -2.480  0.1108E-05  0.1149E-06
     -2.391  0.1315E-05  0.2322E-06
     -2.301  0.2785E-05  0.4808E-06
     -2.212  0.3554E-05  0.7979E-06
     -2.123  0.5175E-05  0.1260E-05
     -2.034  0.7778E-05  0.1954E-05
     -1.945  0.9930E-05  0.2840E-05
     -1.855  0.1668E-04  0.4329E-05
     -1.766  0.2384E-04  0.6456E-05
     -1.677  0.3522E-04  0.9599E-05
     -1.588  0.4425E-04  0.1355E-04
     -1.498  0.6267E-04  0.1914E-04
     -1.409  0.9695E-04  0.2779E-04
     -1.320  0.1356E-03  0.3989E-04
     -1.231  0.1845E-03  0.5636E-04
     -1.141  0.2552E-03  0.7913E-04
     -1.052  0.3454E-03  0.1100E-03
     -0.963  0.4783E-03  0.1526E-03
     -0.874  0.6600E-03  0.2115E-03
     -0.785  0.8855E-03  0.2905E-03
     -0.695  0.1197E-02  0.3974E-03
     -0.606  0.1598E-02  0.5399E-03
     -0.517  0.2108E-02  0.7281E-03
     -0.428  0.2760E-02  0.9743E-03
     -0.338  0.3577E-02  0.1293E-02
     -0.249  0.4583E-02  0.1702E-02
     -0.160  0.5808E-02  0.2221E-02
     -0.071  0.7281E-02  0.2870E-02
      0.019  0.9043E-02  0.3677E-02
      0.108  0.1114E-01  0.4671E-02
      0.197  0.1362E-01  0.5887E-02
      0.286  0.1655E-01  0.7364E-02
      0.375  0.1999E-01  0.9147E-02
      0.465  0.2398E-01  0.1129E-01
      0.554  0.2857E-01  0.1384E-01
      0.643  0.3378E-01  0.1685E-01
      0.732  0.3962E-01  0.2039E-01
      0.822  0.4606E-01  0.2450E-01
      0.911  0.5302E-01  0.2923E-01
      1.000  0.6042E-01  0.3462E-01
      1.089  0.6813E-01  0.4070E-01
      1.179  0.7600E-01  0.4748E-01
      1.268  0.8389E-01  0.5496E-01
      1.357  0.9162E-01  0.6314E-01
      1.446  0.9902E-01  0.7198E-01
      1.535  0.1059E+00  0.8142E-01
      1.625  0.1121E+00  0.9143E-01
      1.714  0.1176E+00  0.1019E+00
      1.803  0.1224E+00  0.1128E+00
      1.892  0.1264E+00  0.1241E+00
      1.982  0.1297E+00  0.1357E+00
      2.071  0.1325E+00  0.1475E+00
      2.160  0.1348E+00  0.1596E+00
      2.249  0.1367E+00  0.1717E+00
      2.339  0.1381E+00  0.1841E+00
      2.428  0.1393E+00  0.1965E+00
      2.517  0.1402E+00  0.2090E+00
      2.606  0.1408E+00  0.2216E+00
      2.695  0.1411E+00  0.2342E+00
      2.785  0.1412E+00  0.2468E+00
      2.874  0.1411E+00  0.2594E+00
      2.963  0.1408E+00  0.2719E+00
      3.052  0.1403E+00  0.2844E+00
      3.142  0.1398E+00  0.2969E+00
      3.231  0.1392E+00  0.3093E+00
      3.320  0.1386E+00  0.3217E+00
      3.409  0.1380E+00  0.3340E+00
      3.499  0.1375E+00  0.3463E+00
      3.588  0.1369E+00  0.3585E+00
      3.677  0.1364E+00  0.3707E+00
      3.766  0.1357E+00  0.3828E+00
      3.855  0.1351E+00  0.3949E+00
      3.945  0.1343E+00  0.4068E+00
      4.034  0.1335E+00  0.4188E+00
      4.123  0.1327E+00  0.4306E+00
      4.212  0.1318E+00  0.4424E+00
      4.302  0.1309E+00  0.4541E+00
      4.391  0.1299E+00  0.4657E+00
      4.480  0.1290E+00  0.4772E+00
      4.569  0.1281E+00  0.4886E+00
      4.659  0.1273E+00  0.5000E+00
      4.748  0.1266E+00  0.5113E+00
      4.837  0.1260E+00  0.5225E+00
      4.926  0.1255E+00  0.5337E+00
      5.015  0.1251E+00  0.5449E+00
      5.105  0.1248E+00  0.5560E+00
      5.194  0.1246E+00  0.5672E+00
      5.283  0.1245E+00  0.5783E+00
      5.372  0.1245E+00  0.5894E+00
      5.462  0.1247E+00  0.6005E+00
      5.551  0.1249E+00  0.6117E+00
      5.640  0.1253E+00  0.6229E+00
      5.729  0.1259E+00  0.6341E+00
      5.819  0.1266E+00  0.6454E+00
      5.908  0.1274E+00  0.6568E+00
      5.997  0.1283E+00  0.6683E+00
      6.086  0.1293E+00  0.6798E+00
      6.175  0.1303E+00  0.6914E+00
      6.265  0.1313E+00  0.7031E+00
      6.354  0.1323E+00  0.7150E+00
      6.443  0.1333E+00  0.7269E+00
      6.532  0.1344E+00  0.7389E+00
      6.622  0.1354E+00  0.7509E+00
      6.711  0.1364E+00  0.7631E+00
      6.800  0.1374E+00  0.7754E+00
      6.889  0.1382E+00  0.7877E+00
      6.979  0.1388E+00  0.8001E+00
      7.068  0.1393E+00  0.8125E+00
      7.157  0.1394E+00  0.8250E+00
      7.246  0.1392E+00  0.8374E+00
      7.336  0.1386E+00  0.8498E+00
      7.425  0.1376E+00  0.8621E+00
      7.514  0.1362E+00  0.8742E+00
      7.603  0.1342E+00  0.8862E+00
      7.692  0.1317E+00  0.8979E+00
      7.782  0.1286E+00  0.9094E+00
      7.871  0.1249E+00  0.9206E+00
      7.960  0.1206E+00  0.9313E+00
      8.049  0.1157E+00  0.9417E+00
      8.139  0.1103E+00  0.9515E+00
      8.228  0.1046E+00  0.9609E+00
      8.317  0.9863E-01  0.9697E+00
      8.406  0.9250E-01  0.9779E+00
      8.496  0.8637E-01  0.9856E+00
      8.585  0.8032E-01  0.9928E+00
      8.674  0.7448E-01  0.9995E+00
      8.763  0.6890E-01  0.1006E+01
      8.852  0.6365E-01  0.1011E+01
      8.942  0.5879E-01  0.1017E+01
      9.031  0.5435E-01  0.1021E+01
      9.120  0.5036E-01  0.1026E+01
      9.209  0.4682E-01  0.1030E+01
      9.299  0.4374E-01  0.1034E+01
      9.388  0.4109E-01  0.1038E+01
      9.477  0.3884E-01  0.1041E+01
      9.566  0.3695E-01  0.1044E+01
      9.656  0.3537E-01  0.1048E+01
      9.745  0.3406E-01  0.1051E+01
      9.834  0.3295E-01  0.1054E+01
      9.923  0.3202E-01  0.1056E+01
     10.012  0.3123E-01  0.1059E+01
     10.102  0.3055E-01  0.1062E+01
     10.191  0.2996E-01  0.1065E+01
     10.280  0.2945E-01  0.1067E+01
     10.369  0.2900E-01  0.1070E+01
     10.459  0.2860E-01  0.1072E+01
     10.548  0.2825E-01  0.1075E+01
     10.637  0.2792E-01  0.1077E+01
     10.726  0.2761E-01  0.1080E+01
     10.816  0.2730E-01  0.1082E+01
     10.905  0.2699E-01  0.1085E+01
     10.994  0.2669E-01  0.1087E+01
     11.083  0.2638E-01  0.1089E+01
     11.172  0.2606E-01  0.1092E+01
     11.262  0.2573E-01  0.1094E+01
     11.351  0.2539E-01  0.1096E+01
     11.440  0.2503E-01  0.1099E+01
     11.529  0.2467E-01  0.1101E+01
     11.619  0.2432E-01  0.1103E+01
     11.708  0.2398E-01  0.1105E+01
     11.797  0.2366E-01  0.1107E+01
     11.886  0.2337E-01  0.1109E+01
     11.976  0.2310E-01  0.1111E+01
     12.065  0.2288E-01  0.1113E+01
     12.154  0.2270E-01  0.1115E+01
     12.243  0.2257E-01  0.1117E+01
     12.332  0.2250E-01  0.1119E+01
     12.422  0.2249E-01  0.1121E+01
     12.511  0.2255E-01  0.1124E+01
     12.600  0.2268E-01  0.1126E+01
     12.689  0.2287E-01  0.1128E+01
     12.779  0.2310E-01  0.1130E+01
     12.868  0.2336E-01  0.1132E+01
     12.957  0.2364E-01  0.1134E+01
     13.046  0.2391E-01  0.1136E+01
     13.136  0.2416E-01  0.1138E+01
     13.225  0.2437E-01  0.1140E+01
     13.314  0.2454E-01  0.1142E+01
     13.403  0.2466E-01  0.1145E+01
     13.492  0.2473E-01  0.1147E+01
     13.582  0.2475E-01  0.1149E+01
     13.671  0.2473E-01  0.1151E+01
     13.760  0.2467E-01  0.1154E+01
     13.849  0.2459E-01  0.1156E+01
     13.939  0.2451E-01  0.1158E+01
     14.028  0.2444E-01  0.1160E+01
     14.117  0.2440E-01  0.1162E+01
     14.206  0.2441E-01  0.1164E+01
     14.296  0.2448E-01  0.1167E+01
     14.385  0.2462E-01  0.1169E+01
     14.474  0.2486E-01  0.1171E+01
     14.563  0.2518E-01  0.1173E+01
     14.652  0.2560E-01  0.1176E+01
     14.742  0.2610E-01  0.1178E+01
     14.831  0.2668E-01  0.1180E+01
     14.920  0.2730E-01  0.1183E+01
     15.009  0.2797E-01  0.1185E+01
     15.099  0.2864E-01  0.1188E+01
     15.188  0.2933E-01  0.1190E+01
     15.277  0.3000E-01  0.1193E+01
     15.366  0.3067E-01  0.1196E+01
     15.456  0.3133E-01  0.1199E+01
     15.545  0.3198E-01  0.1201E+01
     15.634  0.3263E-01  0.1204E+01
     15.723  0.3328E-01  0.1207E+01
     15.812  0.3390E-01  0.1210E+01
     15.902  0.3451E-01  0.1213E+01
     15.991  0.3510E-01  0.1217E+01
     16.080  0.3567E-01  0.1220E+01
     16.169  0.3622E-01  0.1223E+01
     16.259  0.3677E-01  0.1226E+01
     16.348  0.3731E-01  0.1230E+01
     16.437  0.3784E-01  0.1233E+01