   48   48  500    1
  0.1633934E+02  0.7205269E-09  0.1018878E-08  0.1159721E-08  0.1500000E-14
   3000.00000000000     
  CAR 
 Ir_Ru                                   
    384    101    350
 
  0.0000000E+00  0.0000000E+00  0.0000000E+00  0.5000000E-02
    1       -0.304569   1.000000
    2        0.550250   1.000000
    3        0.847414   1.000000
    4        0.903480   1.000000
    5        0.908467   1.000000
    6        0.955687   1.000000
    7        1.025798   1.000000
    8        1.123477   1.000000
    9        1.185024   1.000000
   10        1.217467   1.000000
   11        1.279317   1.000000
   12        1.316149   1.000000
   13        1.388816   1.000000
   14        1.416576   1.000000
   15        1.441033   1.000000
   16        1.476391   1.000000
   17        1.532405   1.000000
   18        1.545252   1.000000
   19        1.551171   1.000000
   20        1.603765   1.000000
   21        1.611521   1.000000
   22        1.642340   1.000000
   23        1.654730   1.000000
   24        1.708677   1.000000
   25        1.723848   1.000000
   26        1.742216   1.000000
   27        1.782087   1.000000
   28        1.806468   1.000000
   29        1.840019   1.000000
   30        1.853224   1.000000
   31        1.878724   1.000000
   32        1.927627   1.000000
   33        1.975766   1.000000
   34        2.001377   1.000000
   35        2.028014   1.000000
   36        2.056337   1.000000
   37        2.081525   1.000000
   38        2.099283   1.000000
   39        2.151758   1.000000
   40        2.164916   1.000000
   41        2.191937   1.000000
   42        2.225457   1.000000
   43        2.232498   1.000000
   44        2.255411   1.000000
   45        2.332846   1.000000
   46        2.349964   1.000000
   47        2.366633   1.000000
   48        2.410123   1.000000
   49        2.413943   1.000000
   50        2.448684   1.000000
   51        2.475930   1.000000
   52        2.504300   1.000000
   53        2.531621   1.000000
   54        2.576321   1.000000
   55        2.611140   1.000000
   56        2.629965   1.000000
   57        2.651316   1.000000
   58        2.679419   1.000000
   59        2.686126   0.999999
   60        2.702564   0.999999
   61        2.749703   0.999999
   62        2.760526   0.999999
   63        2.822176   0.999999
   64        2.863758   0.999999
   65        2.904684   0.999999
   66        2.914095   0.999999
   67        2.920207   0.999999
   68        2.948815   0.999999
   69        2.989716   0.999999
   70        3.041863   0.999998
   71        3.052919   0.999998
   72        3.089010   0.999998
   73        3.097536   0.999998
   74        3.119909   0.999998
   75        3.150069   0.999997
   76        3.173475   0.999997
   77        3.190450   0.999997
   78        3.214357   0.999997
   79        3.249336   0.999996
   80        3.290256   0.999996
   81        3.323522   0.999995
   82        3.349584   0.999995
   83        3.367824   0.999994
   84        3.397024   0.999994
   85        3.410979   0.999993
   86        3.453826   0.999992
   87        3.469895   0.999992
   88        3.498399   0.999991
   89        3.536563   0.999990
   90        3.560452   0.999989
   91        3.618602   0.999986
   92        3.647381   0.999984
   93        3.656143   0.999984
   94        3.713514   0.999980
   95        3.722719   0.999980
   96        3.760215   0.999977
   97        3.768407   0.999976
   98        3.835148   0.999970
   99        3.870735   0.999965
  100        3.892554   0.999963
  101        3.905141   0.999961
  102        3.913630   0.999960
  103        3.961216   0.999952
  104        3.968616   0.999951
  105        4.048964   0.999935
  106        4.072229   0.999929
  107        4.076913   0.999928
  108        4.102992   0.999921
  109        4.156556   0.999904
  110        4.196899   0.999889
  111        4.240864   0.999870
  112        4.263797   0.999859
  113        4.301567   0.999839
  114        4.319757   0.999828
  115        4.372074   0.999793
  116        4.384180   0.999783
  117        4.406356   0.999765
  118        4.430482   0.999744
  119        4.463039   0.999713
  120        4.471278   0.999704
  121        4.537195   0.999626
  122        4.578651   0.999566
  123        4.594319   0.999541
  124        4.629981   0.999479
  125        4.688385   0.999358
  126        4.702765   0.999324
  127        4.746598   0.999210
  128        4.762772   0.999163
  129        4.795919   0.999058
  130        4.812598   0.999000
  131        4.841196   0.998893
  132        4.860478   0.998814
  133        4.918072   0.998543
  134        4.953906   0.998345
  135        4.972293   0.998233
  136        4.998647   0.998059
  137        5.028279   0.997842
  138        5.064328   0.997547
  139        5.090150   0.997310
  140        5.119179   0.997017
  141        5.138319   0.996807
  142        5.154418   0.996619
  143        5.163825   0.996504
  144        5.223083   0.995683
  145        5.252537   0.995207
  146        5.291489   0.994495
  147        5.330019   0.993688
  148        5.361909   0.992932
  149        5.394352   0.992071
  150        5.400718   0.991890
  151        5.426355   0.991119
  152        5.445903   0.990483
  153        5.512835   0.987944
  154        5.527983   0.987282
  155        5.566685   0.985425
  156        5.578718   0.984795
  157        5.629455   0.981829
  158        5.640439   0.981115
  159        5.682907   0.978090
  160        5.703557   0.976453
  161        5.751054   0.972221
  162        5.835878   0.962757
  163        5.863897   0.958999
  164        5.884484   0.956008
  165        5.927790   0.949025
  166        5.938360   0.947167
  167        5.957958   0.943553
  168        5.975901   0.940041
  169        6.029180   0.928375
  170        6.051521   0.922884
  171        6.078587   0.915717
  172        6.088733   0.912878
  173        6.154532   0.892285
  174        6.172106   0.886103
  175        6.204456   0.873912
  176        6.273421   0.844184
  177        6.292387   0.835066
  178        6.336763   0.812064
  179        6.352073   0.803576
  180        6.371077   0.792642
  181        6.377598   0.788788
  182        6.413393   0.766704
  183        6.459424   0.736023
  184        6.518773   0.692842
  185        6.537376   0.678524
  186        6.575887   0.647818
  187        6.616812   0.613797
  188        6.640655   0.593426
  189        6.677010   0.561760
  190        6.687620   0.552411
  191        6.718658   0.524870
  192        6.744435   0.501876
  193        6.769513   0.479496
  194        6.809344   0.444155
  195        6.825397   0.430050
  196        6.870991   0.390674
  197        6.876935   0.385632
  198        6.894072   0.371237
  199        6.966001   0.313501
  200        6.993204   0.292980
  201        7.008273   0.281957
  202        7.016093   0.276337
  203        7.020466   0.273225
  204        7.059306   0.246561
  205        7.098808   0.221298
  206        7.141321   0.196242
  207        7.178137   0.176327
  208        7.231042   0.150539
  209        7.234363   0.149029
  210        7.267083   0.134808
  211        7.296849   0.122883
  212        7.337672   0.108013
  213        7.360087   0.100539
  214        7.382442   0.093546
  215        7.401147   0.088033
  216        7.438070   0.078005
  217        7.477338   0.068497
  218        7.491186   0.065408
  219        7.524272   0.058545
  220        7.557432   0.052349
  221        7.578947   0.048665
  222        7.601639   0.045048
  223        7.625412   0.041533
  224        7.675912   0.034918
  225        7.683383   0.034030
  226        7.688154   0.033475
  227        7.754616   0.026590
  228        7.779174   0.024411
  229        7.814741   0.021562
  230        7.840699   0.019691
  231        7.852195   0.018914
  232        7.868748   0.017847
  233        7.901439   0.015912
  234        7.955044   0.013176
  235        7.976874   0.012200
  236        8.010519   0.010833
  237        8.017332   0.010576
  238        8.039100   0.009792
  239        8.115502   0.007471
  240        8.144989   0.006730
  241        8.167561   0.006212
  242        8.222249   0.005115
  243        8.277385   0.004205
  244        8.331172   0.003472
  245        8.363038   0.003100
  246        8.371301   0.003010
  247        8.430366   0.002439
  248        8.468877   0.002126
  249        8.521144   0.001765
  250        8.576960   0.001446
  251        8.626210   0.001213
  252        8.655455   0.001093
  253        8.712641   0.000891
  254        8.792706   0.000670
  255        8.923152   0.000421
  256        8.948732   0.000384
  257        9.079614   0.000241
  258        9.169963   0.000174
  259        9.261899   0.000125
  260        9.302388   0.000109
  261        9.380868   0.000082
  262        9.558538   0.000043
  263        9.673480   0.000029
  264        9.766348   0.000021
  265        9.804598   0.000018
  266       10.043286   0.000008
  267       10.245883   0.000004
  268       10.284987   0.000003
  269       10.411452   0.000002
  270       10.517773   0.000001
  271       10.657096   0.000001
  272       10.690321   0.000001
  273       10.793514   0.000001
  274       10.875260   0.000000
  275       11.073932   0.000000
  276       11.227957   0.000000
  277       11.318749   0.000000
  278       11.439142   0.000000
  279       11.665931   0.000000
  280       11.868680   0.000000
  281       12.106862   0.000000
  282       12.311052   0.000000
  283       12.478867   0.000000
  284       12.698131   0.000000
  285       12.936664   0.000000
  286       13.202235   0.000000
  287       13.267129   0.000000
  288       13.564473   0.000000
  289       13.715321   0.000000
  290       13.862382   0.000000
  291       14.281168   0.000000
  292       14.526316   0.000000
  293       14.667277   0.000000
  294       14.864771   0.000000
  295       15.069604   0.000000
  296       15.469195   0.000000
  297       15.535240   0.000000
  298       15.576436   0.000000
  299       15.797595   0.000000
  300       15.951399   0.000000
  301       16.061039   0.000000
  302       16.149301   0.000000
  303       16.291515   0.000000
  304       16.306979   0.000000
  305       16.497647   0.000000
  306       16.587005   0.000000
  307       16.660390   0.000000
  308       16.748014   0.000000
  309       16.845043   0.000000
  310       16.978207   0.000000
  311       17.006790   0.000000
  312       17.044066   0.000000
  313       17.177629   0.000000
  314       17.328988   0.000000
  315       17.411086   0.000000
  316       17.480613   0.000000
  317       17.555730   0.000000
  318       17.580784   0.000000
  319       17.628844   0.000000
  320       17.727227   0.000000
  321       17.736849   0.000000
  322       17.831079   0.000000
  323       17.859698   0.000000
  324       17.972090   0.000000
  325       18.065014   0.000000
  326       18.134103   0.000000
  327       18.233206   0.000000
  328       18.326184   0.000000
  329       18.391500   0.000000
  330       18.471605   0.000000
  331       18.511735   0.000000
  332       18.639231   0.000000
  333       18.694719   0.000000
  334       18.781410   0.000000
  335       18.818289   0.000000
  336       18.959922   0.000000
  337       19.003431   0.000000
  338       19.151701   0.000000
  339       19.294469   0.000000
  340       19.409761   0.000000
  341       19.494583   0.000000
  342       19.591469   0.000000
  343       19.645180   0.000000
  344       19.729008   0.000000
  345       19.801957   0.000000
  346       19.966252   0.000000
  347       20.067287   0.000000
  348       20.173667   0.000000
  349       20.400297   0.000000
  350       20.518156   0.000000
 
  0.1250000E+00  0.0000000E+00  0.0000000E+00  0.1000000E-01
    1       -0.245940   1.000000
    2        0.551362   1.000000
    3        0.858332   1.000000
    4        0.901816   1.000000
    5        0.928714   1.000000
    6        0.964787   1.000000
    7        1.042086   1.000000
    8        1.125851   1.000000
    9        1.183919   1.000000
   10        1.245668   1.000000
   11        1.275945   1.000000
   12        1.320397   1.000000
   13        1.376958   1.000000
   14        1.406277   1.000000
   15        1.429390   1.000000
   16        1.474651   1.000000
   17        1.512725   1.000000
   18        1.540638   1.000000
   19        1.577258   1.000000
   20        1.602645   1.000000
   21        1.615197   1.000000
   22        1.641330   1.000000
   23        1.664100   1.000000
   24        1.698838   1.000000
   25        1.730312   1.000000
   26        1.749162   1.000000
   27        1.781728   1.000000
   28        1.807985   1.000000
   29        1.829279   1.000000
   30        1.857410   1.000000
   31        1.888609   1.000000
   32        1.909402   1.000000
   33        1.964727   1.000000
   34        1.997798   1.000000
   35        2.025864   1.000000
   36        2.046291   1.000000
   37        2.070196   1.000000
   38        2.104131   1.000000
   39        2.158768   1.000000
   40        2.166576   1.000000
   41        2.189530   1.000000
   42        2.211881   1.000000
   43        2.268606   1.000000
   44        2.283328   1.000000
   45        2.321977   1.000000
   46        2.342401   1.000000
   47        2.358500   1.000000
   48        2.392380   1.000000
   49        2.422401   1.000000
   50        2.441496   1.000000
   51        2.478601   1.000000
   52        2.502385   1.000000
   53        2.525337   1.000000
   54        2.577913   1.000000
   55        2.589749   1.000000
   56        2.607230   1.000000
   57        2.632877   1.000000
   58        2.660487   1.000000
   59        2.686519   0.999999
   60        2.700264   0.999999
   61        2.752444   0.999999
   62        2.764502   0.999999
   63        2.811520   0.999999
   64        2.847390   0.999999
   65        2.865254   0.999999
   66        2.899748   0.999999
   67        2.913629   0.999999
   68        2.946710   0.999999
   69        2.980653   0.999999
   70        3.000651   0.999998
   71        3.040555   0.999998
   72        3.080600   0.999998
   73        3.105104   0.999998
   74        3.131439   0.999998
   75        3.155044   0.999997
   76        3.174766   0.999997
   77        3.205016   0.999997
   78        3.243710   0.999996
   79        3.252670   0.999996
   80        3.316034   0.999995
   81        3.327641   0.999995
   82        3.349212   0.999995
   83        3.384133   0.999994
   84        3.397119   0.999994
   85        3.419824   0.999993
   86        3.440614   0.999993
   87        3.479266   0.999991
   88        3.511798   0.999990
   89        3.534847   0.999990
   90        3.573824   0.999988
   91        3.607010   0.999986
   92        3.641018   0.999985
   93        3.651667   0.999984
   94        3.697629   0.999981
   95        3.726499   0.999979
   96        3.747574   0.999978
   97        3.759721   0.999977
   98        3.818666   0.999971
   99        3.834273   0.999970
  100        3.884478   0.999964
  101        3.916747   0.999959
  102        3.944561   0.999955
  103        3.965671   0.999951
  104        4.000554   0.999945
  105        4.014270   0.999942
  106        4.041508   0.999936
  107        4.082567   0.999926
  108        4.101765   0.999921
  109        4.158067   0.999903
  110        4.198164   0.999888
  111        4.213848   0.999882
  112        4.267655   0.999857
  113        4.301016   0.999839
  114        4.319898   0.999828
  115        4.339111   0.999816
  116        4.370020   0.999794
  117        4.392237   0.999777
  118        4.410165   0.999762
  119        4.439989   0.999736
  120        4.470763   0.999705
  121        4.497267   0.999676
  122        4.564898   0.999587
  123        4.585300   0.999556
  124        4.651107   0.999438
  125        4.686410   0.999363
  126        4.697766   0.999336
  127        4.734994   0.999242
  128        4.757085   0.999180
  129        4.787494   0.999086
  130        4.826930   0.998948
  131        4.855491   0.998835
  132        4.875692   0.998748
  133        4.910791   0.998581
  134        4.930322   0.998478
  135        4.961175   0.998301
  136        4.977252   0.998201
  137        5.027125   0.997851
  138        5.050990   0.997661
  139        5.085653   0.997353
  140        5.114061   0.997071
  141        5.147721   0.996698
  142        5.175214   0.996359
  143        5.204014   0.995966
  144        5.212102   0.995848
  145        5.243731   0.995354
  146        5.288482   0.994554
  147        5.315018   0.994015
  148        5.360583   0.992965
  149        5.391084   0.992162
  150        5.419123   0.991344
  151        5.442711   0.990590
  152        5.467461   0.989729
  153        5.500228   0.988469
  154        5.527098   0.987322
  155        5.588110   0.984284
  156        5.602056   0.983495
  157        5.660302   0.979755
  158        5.669949   0.979060
  159        5.698342   0.976877
  160        5.746852   0.972623
  161        5.786732   0.968564
  162        5.819434   0.964807
  163        5.850057   0.960899
  164        5.883365   0.956176
  165        5.923897   0.949693
  166        5.942059   0.946502
  167        5.989258   0.937295
  168        6.003252   0.934293
  169        6.025585   0.929224
  170        6.055732   0.921807
  171        6.083713   0.914294
  172        6.093173   0.911609
  173        6.177935   0.883985
  174        6.208688   0.872237
  175        6.221230   0.867162
  176        6.269345   0.846089
  177        6.291785   0.835361
  178        6.318618   0.821754
  179        6.353464   0.802791
  180        6.372181   0.791993
  181        6.407776   0.770274
  182        6.421289   0.761623
  183        6.475170   0.724953
  184        6.519421   0.692349
  185        6.540138   0.676369
  186        6.575147   0.648421
  187        6.593178   0.633603
  188        6.632536   0.600402
  189        6.657539   0.578799
  190        6.675606   0.562994
  191        6.717541   0.525865
  192        6.745591   0.500844
  193        6.771510   0.477717
  194        6.807726   0.445582
  195        6.838378   0.418726
  196        6.867626   0.393538
  197        6.879707   0.383289
  198        6.895327   0.370191
  199        6.921366   0.348783
  200        6.954570   0.322353
  201        7.012208   0.279121
  202        7.038201   0.260830
  203        7.056752   0.248260
  204        7.082212   0.231681
  205        7.112760   0.212831
  206        7.141639   0.196063
  207        7.179752   0.175491
  208        7.219173   0.156041
  209        7.238537   0.147148
  210        7.272397   0.132610
  211        7.292998   0.124374
  212        7.317802   0.115043
  213        7.342221   0.106458
  214        7.367625   0.098130
  215        7.412291   0.084889
  216        7.439449   0.077652
  217        7.462029   0.072069
  218        7.499237   0.063672
  219        7.511555   0.061099
  220        7.560952   0.051729
  221        7.596549   0.045836
  222        7.611335   0.043581
  223        7.617285   0.042704
  224        7.658394   0.037089
  225        7.679011   0.034547
  226        7.700398   0.032088
  227        7.738663   0.028105
  228        7.770402   0.025169
  229        7.782800   0.024105
  230        7.812886   0.021702
  231        7.841936   0.019606
  232        7.879759   0.017171
  233        7.888844   0.016632
  234        7.916151   0.015110
  235        7.941734   0.013809
  236        7.984462   0.011877
  237        8.036469   0.009884
  238        8.073563   0.008668
  239        8.107987   0.007673
  240        8.126717   0.007180
  241        8.164828   0.006272
  242        8.230514   0.004967
  243        8.269474   0.004325
  244        8.283208   0.004119
  245        8.339269   0.003374
  246        8.362572   0.003105
  247        8.418539   0.002544
  248        8.478217   0.002057
  249        8.537068   0.001668
  250        8.576614   0.001448
  251        8.594335   0.001359
  252        8.662776   0.001065
  253        8.721442   0.000864
  254        8.796307   0.000661
  255        8.855447   0.000535
  256        8.903436   0.000451
  257        8.974137   0.000351
  258        9.220023   0.000146
  259        9.316539   0.000103
  260        9.450495   0.000064
  261        9.553808   0.000044
  262        9.609011   0.000036
  263        9.742048   0.000023
  264        9.833856   0.000016
  265        9.916119   0.000012
  266       10.014220   0.000009
  267       10.118473   0.000006
  268       10.267964   0.000003
  269       10.355765   0.000003
  270       10.420998   0.000002
  271       10.529807   0.000001
  272       10.633334   0.000001
  273       10.732390   0.000001
  274       11.023088   0.000000
  275       11.160420   0.000000
  276       11.341269   0.000000
  277       11.488685   0.000000
  278       11.639923   0.000000
  279       11.786715   0.000000
  280       11.853185   0.000000
  281       12.193230   0.000000
  282       12.424341   0.000000
  283       12.660506   0.000000
  284       12.865642   0.000000
  285       12.988025   0.000000
  286       13.159634   0.000000
  287       13.383062   0.000000
  288       13.548309   0.000000
  289       13.773837   0.000000
  290       13.896906   0.000000
  291       14.135103   0.000000
  292       14.240941   0.000000
  293       14.609971   0.000000
  294       14.777748   0.000000
  295       15.075371   0.000000
  296       15.272066   0.000000
  297       15.411176   0.000000
  298       15.585896   0.000000
  299       15.707082   0.000000
  300       15.858774   0.000000
  301       15.893084   0.000000
  302       16.041230   0.000000
  303       16.099144   0.000000
  304       16.216689   0.000000
  305       16.317513   0.000000
  306       16.507122   0.000000
  307       16.600738   0.000000
  308       16.614539   0.000000
  309       16.826114   0.000000
  310       16.843404   0.000000
  311       16.924391   0.000000
  312       17.053835   0.000000
  313       17.146647   0.000000
  314       17.242771   0.000000
  315       17.367497   0.000000
  316       17.487723   0.000000
  317       17.514190   0.000000
  318       17.559788   0.000000
  319       17.656270   0.000000
  320       17.704164   0.000000
  321       17.759965   0.000000
  322       17.859765   0.000000
  323       17.928179   0.000000
  324       17.962344   0.000000
  325       18.032980   0.000000
  326       18.145163   0.000000
  327       18.298127   0.000000
  328       18.355290   0.000000
  329       18.440916   0.000000
  330       18.485051   0.000000
  331       18.524468   0.000000
  332       18.624276   0.000000
  333       18.699824   0.000000
  334       18.821951   0.000000
  335       18.913969   0.000000
  336       19.003177   0.000000
  337       19.045525   0.000000
  338       19.112214   0.000000
  339       19.270832   0.000000
  340       19.437047   0.000000
  341       19.486782   0.000000
  342       19.563452   0.000000
  343       19.650122   0.000000
  344       19.721935   0.000000
  345       19.803909   0.000000
  346       19.918721   0.000000
  347       20.007947   0.000000
  348       20.185549   0.000000
  349       20.305308   0.000000
  350       20.552502   0.000000
 
  0.2500000E+00  0.0000000E+00  0.0000000E+00  0.1000000E-01
    1       -0.075707   1.000000
    2        0.553652   1.000000
    3        0.879938   1.000000
    4        0.901636   1.000000
    5        0.967409   1.000000
    6        1.002886   1.000000
    7        1.077626   1.000000
    8        1.128523   1.000000
    9        1.187984   1.000000
   10        1.258463   1.000000
   11        1.308289   1.000000
   12        1.313578   1.000000
   13        1.355468   1.000000
   14        1.381745   1.000000
   15        1.418452   1.000000
   16        1.452614   1.000000
   17        1.489349   1.000000
   18        1.546261   1.000000
   19        1.573358   1.000000
   20        1.595784   1.000000
   21        1.605797   1.000000
   22        1.637496   1.000000
   23        1.665984   1.000000
   24        1.698432   1.000000
   25        1.717002   1.000000
   26        1.753057   1.000000
   27        1.775579   1.000000
   28        1.790145   1.000000
   29        1.837547   1.000000
   30        1.865288   1.000000
   31        1.892669   1.000000
   32        1.913873   1.000000
   33        1.962193   1.000000
   34        1.987984   1.000000
   35        2.006304   1.000000
   36        2.052629   1.000000
   37        2.097344   1.000000
   38        2.111418   1.000000
   39        2.134893   1.000000
   40        2.170956   1.000000
   41        2.188344   1.000000
   42        2.219707   1.000000
   43        2.266844   1.000000
   44        2.275198   1.000000
   45        2.305901   1.000000
   46        2.337415   1.000000
   47        2.357615   1.000000
   48        2.392015   1.000000
   49        2.408783   1.000000
   50        2.418666   1.000000
   51        2.466111   1.000000
   52        2.499678   1.000000
   53        2.516297   1.000000
   54        2.553485   1.000000
   55        2.560828   1.000000
   56        2.576585   1.000000
   57        2.617444   1.000000
   58        2.649800   1.000000
   59        2.687134   0.999999
   60        2.706681   0.999999
   61        2.759290   0.999999
   62        2.765176   0.999999
   63        2.785614   0.999999
   64        2.823009   0.999999
   65        2.842242   0.999999
   66        2.880256   0.999999
   67        2.908208   0.999999
   68        2.938584   0.999999
   69        2.961919   0.999999
   70        3.000109   0.999998
   71        3.019496   0.999998
   72        3.047537   0.999998
   73        3.081310   0.999998
   74        3.121215   0.999998
   75        3.155317   0.999997
   76        3.164385   0.999997
   77        3.224590   0.999997
   78        3.272473   0.999996
   79        3.284353   0.999996
   80        3.300225   0.999995
   81        3.334037   0.999995
   82        3.347996   0.999995
   83        3.378555   0.999994
   84        3.392703   0.999994
   85        3.404934   0.999993
   86        3.458346   0.999992
   87        3.482937   0.999991
   88        3.500776   0.999991
   89        3.538096   0.999989
   90        3.563820   0.999988
   91        3.589312   0.999987
   92        3.618496   0.999986
   93        3.648408   0.999984
   94        3.682781   0.999982
   95        3.713367   0.999980
   96        3.745998   0.999978
   97        3.765609   0.999976
   98        3.802732   0.999973
   99        3.849647   0.999968
  100        3.861170   0.999967
  101        3.899132   0.999962
  102        3.934898   0.999956
  103        3.961834   0.999952
  104        3.981539   0.999949
  105        4.022088   0.999941
  106        4.045815   0.999935
  107        4.064834   0.999931
  108        4.099292   0.999922
  109        4.137815   0.999910
  110        4.167529   0.999900
  111        4.191122   0.999891
  112        4.225226   0.999877
  113        4.265926   0.999858
  114        4.318148   0.999829
  115        4.332067   0.999820
  116        4.360908   0.999801
  117        4.380212   0.999786
  118        4.432810   0.999742
  119        4.464885   0.999711
  120        4.470733   0.999705
  121        4.517235   0.999652
  122        4.546107   0.999614
  123        4.576133   0.999570
  124        4.596714   0.999537
  125        4.647072   0.999446
  126        4.655983   0.999428
  127        4.720420   0.999280
  128        4.732536   0.999249
  129        4.765246   0.999156
  130        4.783763   0.999098
  131        4.842255   0.998889
  132        4.856974   0.998829
  133        4.896543   0.998651
  134        4.914558   0.998562
  135        4.952919   0.998351
  136        4.996516   0.998073
  137        5.028135   0.997844
  138        5.065291   0.997538
  139        5.091139   0.997301
  140        5.106837   0.997146
  141        5.154226   0.996621
  142        5.174891   0.996363
  143        5.190899   0.996150
  144        5.240084   0.995414
  145        5.266477   0.994963
  146        5.298708   0.994352
  147        5.338617   0.993493
  148        5.366833   0.992808
  149        5.405994   0.991737
  150        5.425378   0.991150
  151        5.456711   0.990112
  152        5.516098   0.987805
  153        5.549356   0.986288
  154        5.575248   0.984979
  155        5.616262   0.982651
  156        5.639219   0.981196
  157        5.654200   0.980183
  158        5.714942   0.975500
  159        5.734104   0.973810
  160        5.764579   0.970886
  161        5.805414   0.966468
  162        5.841059   0.962088
  163        5.882047   0.956373
  164        5.927768   0.949029
  165        5.936495   0.947499
  166        5.959715   0.943218
  167        5.992131   0.936690
  168        6.007306   0.933399
  169        6.064870   0.919422
  170        6.080610   0.915158
  171        6.106144   0.907804
  172        6.137879   0.897870
  173        6.188480   0.880066
  174        6.206937   0.872932
  175        6.249692   0.855009
  176        6.268250   0.846598
  177        6.289421   0.836519
  178        6.326982   0.817337
  179        6.352058   0.803584
  180        6.374003   0.790919
  181        6.408555   0.769781
  182        6.445606   0.745499
  183        6.469561   0.728929
  184        6.522410   0.690071
  185        6.529152   0.684897
  186        6.565173   0.656497
  187        6.593636   0.633223
  188        6.607578   0.621584
  189        6.645094   0.589596
  190        6.669596   0.568267
  191        6.688437   0.551689
  192        6.737722   0.507869
  193        6.762740   0.485536
  194        6.802905   0.449840
  195        6.829013   0.426888
  196        6.860086   0.399983
  197        6.893511   0.371704