       N       E                     dE             d eps       ncg     rms          rms(c)
RMM:   1     0.162043195272E+04    0.16204E+04   -0.66446E+04 35350   0.434E+02
RMM:   2    -0.135064827730E+02   -0.16339E+04   -0.15231E+04 35350   0.148E+02
RMM:   3    -0.329811921228E+03   -0.31631E+03   -0.16541E+03 35350   0.594E+01
RMM:   4    -0.416916578561E+03   -0.87105E+02   -0.37470E+02 35350   0.340E+01
RMM:   5    -0.431788551317E+03   -0.14872E+02   -0.94114E+01 35350   0.154E+01
RMM:   6    -0.435284511767E+03   -0.34960E+01   -0.23356E+01 35350   0.812E+00
RMM:   7    -0.435960392581E+03   -0.67588E+00   -0.58265E+00 35350   0.380E+00
RMM:   8    -0.436122357195E+03   -0.16196E+00   -0.14681E+00 35350   0.209E+00
RMM:   9    -0.436173312867E+03   -0.50956E-01   -0.49620E-01 70702   0.104E+00
RMM:  10    -0.436178088389E+03   -0.47755E-02   -0.46033E-02 73847   0.256E-01
RMM:  11    -0.436178355786E+03   -0.26740E-03   -0.26117E-03 67588   0.947E-02
RMM:  12    -0.436178389885E+03   -0.34099E-04   -0.33782E-04 67435   0.191E-02    0.308E+01
RMM:  13    -0.409155821845E+03    0.27023E+02   -0.56441E+01 70700   0.146E+01    0.654E+00
RMM:  14    -0.407963889067E+03    0.11919E+01   -0.42563E+00 70700   0.308E+00    0.154E+00
RMM:  15    -0.407804015972E+03    0.15987E+00   -0.17332E-01 70700   0.815E-01    0.186E+00
RMM:  16    -0.407769425091E+03    0.34591E-01   -0.15397E-02 70700   0.186E-01    0.410E-01
RMM:  17    -0.407767131875E+03    0.22932E-02   -0.12982E-02 70700   0.206E-01    0.374E-01
RMM:  18    -0.407766149086E+03    0.98279E-03   -0.92601E-04 70705   0.442E-02    0.134E-01
RMM:  19    -0.407766049449E+03    0.99637E-04   -0.94116E-05 70229   0.147E-02    0.108E-01
RMM:  20    -0.407765747975E+03    0.30147E-03   -0.14844E-04 70700   0.200E-02    0.654E-02
RMM:  21    -0.407765682760E+03    0.65216E-04   -0.12934E-05 41605   0.582E-03    0.316E-02
RMM:  22    -0.407765634509E+03    0.48250E-04   -0.15216E-05 40505   0.580E-03    0.346E-02
RMM:  23    -0.407765593032E+03    0.41477E-04   -0.87751E-06 39031   0.494E-03    0.474E-03
RMM:  24    -0.407765592394E+03    0.63881E-06   -0.73966E-07 38344   0.160E-03
    1 T=  3018. E= -.38786812E+03 F= -.40776559E+03 E0= -.39362078E+03  EK= 0.19897E+02 SP= 0.00E+00 SK= 0.00E+00
       N       E                     dE             d eps       ncg     rms          rms(c)
RMM:   1    -0.407821187740E+03   -0.55595E-01   -0.26797E+01 70700   0.594E+00    0.703E-01
RMM:   2    -0.407981340140E+03   -0.16015E+00   -0.54172E-01 70700   0.930E-01    0.326E+00
RMM:   3    -0.407877339055E+03    0.10400E+00   -0.58293E-02 70700   0.316E-01    0.723E-01
RMM:   4    -0.407873510631E+03    0.38284E-02   -0.48560E-03 70700   0.118E-01    0.535E-01
RMM:   5    -0.407871544294E+03    0.19663E-02   -0.43201E-04 70700   0.319E-02    0.427E-01
RMM:   6    -0.407870934622E+03    0.60967E-03   -0.16555E-04 70700   0.200E-02    0.398E-01
RMM:   7    -0.407870357626E+03    0.57700E-03   -0.11805E-03 70700   0.459E-02    0.455E-01
RMM:   8    -0.407868223169E+03    0.21345E-02   -0.44564E-03 70700   0.814E-02    0.286E-01
RMM:   9    -0.407867613072E+03    0.61010E-03   -0.11396E-03 70700   0.461E-02    0.110E-01
RMM:  10    -0.407867634574E+03   -0.21501E-04   -0.16312E-04 70700   0.194E-02    0.127E-01
RMM:  11    -0.407867457324E+03    0.17725E-03   -0.52016E-05 70700   0.108E-02    0.645E-02
RMM:  12    -0.407867425670E+03    0.31654E-04   -0.12022E-05 42625   0.546E-03    0.519E-02
RMM:  13    -0.407867395684E+03    0.29986E-04   -0.57975E-05 70699   0.945E-03    0.490E-02
RMM:  14    -0.407867368258E+03    0.27426E-04   -0.39035E-05 68708   0.792E-03    0.145E-02
RMM:  15    -0.407867369065E+03   -0.80700E-06   -0.39397E-06 37572   0.340E-03
    2 T=  3034. E= -.38786881E+03 F= -.40786737E+03 E0= -.39373722E+03  EK= 0.19999E+02 SP= 0.00E+00 SK= 0.00E+00
       N       E                     dE             d eps       ncg     rms          rms(c)
RMM:   1    -0.407996831585E+03   -0.12946E+00   -0.12366E-01 70700   0.616E-01    0.261E-01
RMM:   2    -0.407995612207E+03    0.12194E-02   -0.70928E-03 70700   0.140E-01    0.199E-01
RMM:   3    -0.407995480451E+03    0.13176E-03   -0.41231E-04 70700   0.296E-02    0.211E-01
RMM:   4    -0.407994830356E+03    0.65009E-03   -0.77646E-04 70700   0.349E-02    0.697E-02
RMM:   5    -0.407994787378E+03    0.42978E-04   -0.69187E-05 70139   0.125E-02    0.250E-02
RMM:   6    -0.407994793105E+03   -0.57275E-05   -0.15968E-05 43846   0.604E-03
    3 T=  3053. E= -.38786926E+03 F= -.40799479E+03 E0= -.39389197E+03  EK= 0.20126E+02 SP= 0.00E+00 SK= 0.00E+00
       N       E                     dE             d eps       ncg     rms          rms(c)
RMM:   1    -0.408150995613E+03   -0.15621E+00   -0.23481E-02 70700   0.206E-01    0.310E-01
RMM:   2    -0.408148115609E+03    0.28800E-02   -0.64114E-03 70700   0.143E-01    0.172E-01
RMM:   3    -0.408147798069E+03    0.31754E-03   -0.16923E-04 70700   0.191E-02    0.378E-02
RMM:   4    -0.408147838058E+03   -0.39989E-04   -0.23114E-05 56242   0.765E-03    0.566E-02
RMM:   5    -0.408147813184E+03    0.24873E-04   -0.12885E-05 43752   0.671E-03    0.128E-02
RMM:   6    -0.408147818275E+03   -0.50906E-05   -0.48298E-06 39266   0.353E-03
    4 T=  3076. E= -.38786976E+03 F= -.40814782E+03 E0= -.39408478E+03  EK= 0.20278E+02 SP= 0.00E+00 SK= 0.00E+00
       N       E                     dE             d eps       ncg     rms          rms(c)
RMM:   1    -0.408327483260E+03   -0.17967E+00   -0.27737E-02 70700   0.228E-01    0.334E-01
RMM:   2    -0.408323883127E+03    0.36001E-02   -0.76518E-03 70700   0.157E-01    0.914E-02
RMM:   3    -0.408323808550E+03    0.74578E-04   -0.13520E-04 70496   0.148E-02    0.352E-02
RMM:   4    -0.408323775286E+03    0.33263E-04   -0.27567E-05 57282   0.783E-03    0.384E-02
RMM:   5    -0.408323753140E+03    0.22146E-04   -0.11226E-05 41437   0.570E-03    0.113E-02
RMM:   6    -0.408323750262E+03    0.28784E-05   -0.33843E-06 39160   0.347E-03
    5 T=  3103. E= -.38786954E+03 F= -.40832375E+03 E0= -.39431286E+03  EK= 0.20454E+02 SP= 0.00E+00 SK= 0.00E+00
       N       E                     dE             d eps       ncg     rms          rms(c)
RMM:   1    -0.408527135325E+03   -0.20338E+00   -0.25994E-02 70700   0.231E-01    0.375E-01
RMM:   2    -0.408522461255E+03    0.46741E-02   -0.94062E-03 70700   0.179E-01    0.765E-02
RMM:   3    -0.408522408861E+03    0.52393E-04   -0.11835E-04 70329   0.132E-02    0.122E-02
RMM:   4    -0.408522418200E+03   -0.93390E-05   -0.54346E-06 42048   0.434E-03
    6 T=  3133. E= -.38787016E+03 F= -.40852242E+03 E0= -.39457534E+03  EK= 0.20652E+02 SP= 0.00E+00 SK= 0.00E+00
       N       E                     dE             d eps       ncg     rms          rms(c)
RMM:   1    -0.408743006600E+03   -0.22060E+00   -0.27658E-02 70700   0.255E-01    0.405E-01
RMM:   2    -0.408737536103E+03    0.54705E-02   -0.11117E-02 70700   0.197E-01    0.479E-02
RMM:   3    -0.408737524912E+03    0.11191E-04   -0.14719E-04 70433   0.138E-02    0.138E-02
RMM:   4    -0.408737528685E+03   -0.37721E-05   -0.65003E-06 41861   0.486E-03
    7 T=  3165. E= -.38786976E+03 F= -.40873753E+03 E0= -.39486554E+03  EK= 0.20868E+02 SP= 0.00E+00 SK= 0.00E+00
       N       E                     dE             d eps       ncg     rms          rms(c)
RMM:   1    -0.408971987214E+03   -0.23446E+00   -0.29123E-02 70700   0.265E-01    0.438E-01
RMM:   2    -0.408965555418E+03    0.64318E-02   -0.12874E-02 70700   0.214E-01    0.380E-02
RMM:   3    -0.408965554694E+03    0.72412E-06   -0.15232E-04 70392   0.137E-02    0.110E-02
RMM:   4    -0.408965558524E+03   -0.38309E-05   -0.54912E-06 41270   0.497E-03
    8 T=  3200. E= -.38787015E+03 F= -.40896556E+03 E0= -.39517936E+03  EK= 0.21095E+02 SP= 0.00E+00 SK= 0.00E+00
       N       E                     dE             d eps       ncg     rms          rms(c)
RMM:   1    -0.409212042773E+03   -0.24649E+00   -0.32261E-02 70700   0.281E-01    0.473E-01
RMM:   2    -0.409204543392E+03    0.74994E-02   -0.15204E-02 70700   0.234E-01    0.313E-02
RMM:   3    -0.409204548468E+03   -0.50755E-05   -0.17257E-04 70473   0.146E-02    0.110E-02
RMM:   4    -0.409204546318E+03    0.21500E-05   -0.62666E-06 41356   0.557E-03
    9 T=  3236. E= -.38787125E+03 F= -.40920455E+03 E0= -.39551410E+03  EK= 0.21333E+02 SP= 0.00E+00 SK= 0.00E+00
       N       E                     dE             d eps       ncg     rms          rms(c)
RMM:   1    -0.409458266326E+03   -0.25372E+00   -0.35784E-02 70700   0.300E-01    0.501E-01
RMM:   2    -0.409449826108E+03    0.84402E-02   -0.17564E-02 70700   0.253E-01    0.220E-02
RMM:   3    -0.409449838996E+03   -0.12887E-04   -0.18903E-04 70545   0.151E-02    0.138E-02
RMM:   4    -0.409449834963E+03    0.40324E-05   -0.32668E-06 41172   0.380E-03
   10 T=  3273. E= -.38787253E+03 F= -.40944983E+03 E0= -.39586448E+03  EK= 0.21577E+02 SP= 0.00E+00 SK= 0.00E+00
       N       E                     dE             d eps       ncg     rms          rms(c)
RMM:   1    -0.409706010874E+03   -0.25617E+00   -0.38971E-02 70700   0.318E-01    0.536E-01
RMM:   2    -0.409696379261E+03    0.96316E-02   -0.20079E-02 70700   0.272E-01    0.173E-02
RMM:   3    -0.409696399859E+03   -0.20599E-04   -0.22165E-04 70609   0.163E-02    0.201E-02
RMM:   4    -0.409696395093E+03    0.47668E-05   -0.47360E-06 41455   0.440E-03
   11 T=  3310. E= -.38787321E+03 F= -.40969640E+03 E0= -.39622471E+03  EK= 0.21823E+02 SP= 0.00E+00 SK= 0.00E+00
       N       E                     dE             d eps       ncg     rms          rms(c)
RMM:   1    -0.409952394323E+03   -0.25599E+00   -0.42368E-02 70700   0.310E-01    0.569E-01
RMM:   2    -0.409941516836E+03    0.10877E-01   -0.22344E-02 70700   0.283E-01    0.203E-02
RMM:   3    -0.409941533172E+03   -0.16336E-04   -0.27879E-04 70700   0.189E-02    0.200E-02
RMM:   4    -0.409941527775E+03    0.53968E-05   -0.92525E-06 41805   0.671E-03
   12 T=  3347. E= -.38787533E+03 F= -.40994153E+03 E0= -.39659122E+03  EK= 0.22066E+02 SP= 0.00E+00 SK= 0.00E+00
       N       E                     dE             d eps       ncg     rms          rms(c)
RMM:   1    -0.410186120040E+03   -0.24459E+00   -0.49040E-02 70700   0.340E-01    0.600E-01
RMM:   2    -0.410173975266E+03    0.12145E-01   -0.24967E-02 70700   0.301E-01    0.276E-02
RMM:   3    -0.410173993617E+03   -0.18351E-04   -0.27695E-04 70683   0.184E-02    0.177E-02
RMM:   4    -0.410173983960E+03    0.96572E-05   -0.64395E-06 41715   0.562E-03
   13 T=  3382. E= -.38787624E+03 F= -.41017398E+03 E0= -.39695234E+03  EK= 0.22298E+02 SP= 0.00E+00 SK= 0.00E+00
       N       E                     dE             d eps       ncg     rms          rms(c)
RMM:   1    -0.410402201687E+03   -0.22821E+00   -0.51865E-02 70700   0.342E-01    0.632E-01
RMM:   2    -0.410388740980E+03    0.13461E-01   -0.28559E-02 70700   0.321E-01    0.713E-02
RMM:   3    -0.410388717637E+03    0.23344E-04   -0.29670E-04 70700   0.195E-02    0.177E-02
RMM:   4    -0.410388711506E+03    0.61308E-05   -0.71628E-06 42155   0.563E-03
   14 T=  3415. E= -.38787646E+03 F= -.41038871E+03 E0= -.39730184E+03  EK= 0.22512E+02 SP= 0.00E+00 SK= 0.00E+00
       N       E                     dE             d eps       ncg     rms          rms(c)
RMM:   1    -0.410596668521E+03   -0.20795E+00   -0.56821E-02 70700   0.363E-01    0.665E-01
RMM:   2    -0.410581735539E+03    0.14933E-01   -0.31626E-02 70700   0.341E-01    0.429E-02
RMM:   3    -0.410581756960E+03   -0.21421E-04   -0.34156E-04 70700   0.206E-02    0.175E-02
RMM:   4    -0.410581755439E+03    0.15214E-05   -0.11340E-05 42586   0.574E-03
   15 T=  3444. E= -.38787748E+03 F= -.41058176E+03 E0= -.39763495E+03  EK= 0.22704E+02 SP= 0.00E+00 SK= 0.00E+00
       N       E                     dE             d eps       ncg     rms          rms(c)
RMM:   1    -0.410762712711E+03   -0.18096E+00   -0.60720E-02 70700   0.380E-01    0.687E-01
RMM:   2    -0.410746817620E+03    0.15895E-01   -0.33904E-02 70700   0.353E-01    0.471E-02
RMM:   3    -0.410746827359E+03   -0.97396E-05   -0.33214E-04 70700   0.208E-02    0.268E-02
RMM:   4    -0.410746822003E+03    0.53565E-05   -0.11036E-05 43361   0.620E-03
   16 T=  3469. E= -.38787805E+03 F= -.41074682E+03 E0= -.39794479E+03  EK= 0.22869E+02 SP= 0.00E+00 SK= 0.00E+00
       N       E                     dE             d eps       ncg     rms          rms(c)
RMM:   1    -0.410896908436E+03   -0.15008E+00   -0.63785E-02 70700   0.391E-01    0.714E-01
RMM:   2    -0.410879717111E+03    0.17191E-01   -0.36610E-02 70700   0.369E-01    0.445E-02
RMM:   3    -0.410879738298E+03   -0.21188E-04   -0.34388E-04 70700   0.213E-02    0.196E-02
RMM:   4    -0.410879736457E+03    0.18411E-05   -0.81155E-06 42582   0.564E-03
   17 T=  3489. E= -.38787725E+03 F= -.41087974E+03 E0= -.39822612E+03  EK= 0.23002E+02 SP= 0.00E+00 SK= 0.00E+00
       N       E                     dE             d eps       ncg     rms          rms(c)
RMM:   1    -0.410995458904E+03   -0.11572E+00   -0.70947E-02 70700   0.420E-01    0.743E-01
RMM:   2    -0.410976896903E+03    0.18562E-01   -0.39497E-02 70700   0.386E-01    0.799E-02
RMM:   3    -0.410976873503E+03    0.23400E-04   -0.42820E-04 70700   0.239E-02    0.179E-02
RMM:   4    -0.410976880215E+03   -0.67118E-05   -0.99099E-06 43511   0.645E-03
   18 T=  3504. E= -.38787761E+03 F= -.41097688E+03 E0= -.39847528E+03  EK= 0.23099E+02 SP= 0.00E+00 SK= 0.00E+00
       N       E                     dE             d eps       ncg     rms          rms(c)
RMM:   1    -0.411052380058E+03   -0.75507E-01   -0.71635E-02 70700   0.418E-01    0.763E-01
RMM:   2    -0.411032694868E+03    0.19685E-01   -0.40648E-02 70700   0.391E-01    0.920E-02
RMM:   3    -0.411032647587E+03    0.47281E-04   -0.46478E-04 70700   0.249E-02    0.208E-02
RMM:   4    -0.411032649838E+03   -0.22514E-05   -0.16733E-05 48541   0.861E-03
   19 T=  3512. E= -.38787788E+03 F= -.41103265E+03 E0= -.39868558E+03  EK= 0.23155E+02 SP= 0.00E+00 SK= 0.00E+00
       N       E                     dE             d eps       ncg     rms          rms(c)
RMM:   1    -0.411064675203E+03   -0.32028E-01   -0.76498E-02 70700   0.444E-01    0.790E-01
RMM:   2    -0.411043730614E+03    0.20945E-01   -0.45791E-02 70700   0.419E-01    0.117E-01
RMM:   3    -0.411043617550E+03    0.11306E-03   -0.44539E-04 70700   0.263E-02    0.201E-02
RMM:   4    -0.411043617699E+03   -0.14889E-06   -0.15732E-05 49848   0.801E-03
   20 T=  3514. E= -.38787830E+03 F= -.41104362E+03 E0= -.39885306E+03  EK= 0.23165E+02 SP= 0.00E+00 SK= 0.00E+00
       N       E                     dE             d eps       ncg     rms          rms(c)
RMM:   1    -0.411030001084E+03    0.13616E-01   -0.77095E-02 70700   0.444E-01    0.815E-01
RMM:   2    -0.411007622097E+03    0.22379E-01   -0.47118E-02 70700   0.426E-01    0.890E-02
RMM:   3    -0.411007574645E+03    0.47452E-04   -0.53983E-04 70700   0.268E-02    0.222E-02
RMM:   4    -0.411007571065E+03    0.35801E-05   -0.14146E-05 46509   0.788E-03
   21 T=  3508. E= -.38787887E+03 F= -.41100757E+03 E0= -.39897488E+03  EK= 0.23129E+02 SP= 0.00E+00 SK= 0.00E+00
       N       E                     dE             d eps       ncg     rms          rms(c)
RMM:   1    -0.410947747150E+03    0.59827E-01   -0.82571E-02 70700   0.470E-01    0.837E-01
RMM:   2    -0.410924091743E+03    0.23655E-01   -0.49822E-02 70700   0.440E-01    0.794E-02
RMM:   3    -0.410924078156E+03    0.13587E-04   -0.53534E-04 70700   0.270E-02    0.318E-02
RMM:   4    -0.410924074178E+03    0.39774E-05   -0.16241E-05 48209   0.789E-03
   22 T=  3496. E= -.38787949E+03 F= -.41092407E+03 E0= -.39904991E+03  EK= 0.23045E+02 SP= 0.00E+00 SK= 0.00E+00
       N       E                     dE             d eps       ncg     rms          rms(c)
RMM:   1    -0.410816141317E+03    0.10794E+00   -0.84480E-02 70700   0.475E-01    0.846E-01
RMM:   2    -0.410792216096E+03    0.23925E-01   -0.49355E-02 70700   0.438E-01    0.161E-01
RMM:   3    -0.410791953756E+03    0.26234E-03   -0.66016E-04 70700   0.317E-02    0.206E-02
RMM:   4    -0.410791957518E+03   -0.37624E-05   -0.26056E-05 57538   0.100E-02
   23 T=  3476. E= -.38788014E+03 F= -.41079196E+03 E0= -.39907663E+03  EK= 0.22912E+02 SP= 0.00E+00 SK= 0.00E+00
       N       E                     dE             d eps       ncg     rms          rms(c)
RMM:   1    -0.410639145670E+03    0.15281E+00   -0.85574E-02 70700   0.485E-01    0.867E-01
RMM:   2    -0.410613835838E+03    0.25310E-01   -0.52909E-02 70700   0.457E-01    0.105E-01
RMM:   3    -0.410613763627E+03    0.72211E-04   -0.58516E-04 70700   0.286E-02    0.298E-02
RMM:   4    -0.410613756508E+03    0.71189E-05   -0.19483E-05 52380   0.887E-03
   24 T=  3448. E= -.38788064E+03 F= -.41061376E+03 E0= -.39905718E+03  EK= 0.22733E+02 SP= 0.00E+00 SK= 0.00E+00
       N       E                     dE             d eps       ncg     rms          rms(c)
RMM:   1    -0.410422544387E+03    0.19122E+00   -0.85477E-02 70700   0.486E-01    0.898E-01
RMM:   2    -0.410395398767E+03    0.27146E-01   -0.58173E-02 70700   0.481E-01    0.155E-01
RMM:   3    -0.410395158968E+03    0.23980E-03   -0.65669E-04 70700   0.321E-02    0.204E-02
RMM:   4    -0.410395160959E+03   -0.19911E-05   -0.18948E-05 52565   0.880E-03
   25 T=  3415. E= -.38788108E+03 F= -.41039516E+03 E0= -.39899626E+03  EK= 0.22514E+02 SP= 0.00E+00 SK= 0.00E+00
       N       E                     dE             d eps       ncg     rms          rms(c)
RMM:   1    -0.410169047535E+03    0.22611E+00   -0.89367E-02 70700   0.508E-01    0.907E-01
RMM:   2    -0.410141157617E+03    0.27890E-01   -0.56797E-02 70700   0.477E-01    0.117E-01
RMM:   3    -0.410141044097E+03    0.11352E-03   -0.73934E-04 70700   0.325E-02    0.276E-02
RMM:   4    -0.410141045270E+03   -0.11729E-05   -0.26156E-05 57823   0.102E-02
   26 T=  3377. E= -.38788184E+03 F= -.41014105E+03 E0= -.39889817E+03  EK= 0.22259E+02 SP= 0.00E+00 SK= 0.00E+00
       N       E                     dE             d eps       ncg     rms          rms(c)
RMM:   1    -0.409884017308E+03    0.25703E+00   -0.89916E-02 70700   0.515E-01    0.911E-01
RMM:   2    -0.409855963401E+03    0.28054E-01   -0.58866E-02 70700   0.487E-01    0.925E-02
RMM:   3    -0.409855919005E+03    0.44396E-04   -0.62597E-04 70700   0.296E-02    0.280E-02
RMM:   4    -0.409855922174E+03   -0.31693E-05   -0.20517E-05 54243   0.900E-03
   27 T=  3333. E= -.38788315E+03 F= -.40985592E+03 E0= -.39876725E+03  EK= 0.21973E+02 SP= 0.00E+00 SK= 0.00E+00
       N       E                     dE             d eps       ncg     rms          rms(c)
RMM:   1    -0.409574866183E+03    0.28105E+00   -0.89510E-02 70700   0.514E-01    0.920E-01
RMM:   2    -0.409546119124E+03    0.28747E-01   -0.60851E-02 70700   0.497E-01    0.847E-02
RMM:   3    -0.409546084206E+03    0.34917E-04   -0.61119E-04 70700   0.292E-02    0.172E-02
RMM:   4    -0.409546083552E+03    0.65450E-06   -0.13000E-05 45588   0.790E-03
   28 T=  3286. E= -.38788287E+03 F= -.40954608E+03 E0= -.39860913E+03  EK= 0.21663E+02 SP= 0.00E+00 SK= 0.00E+00
       N       E                     dE             d eps       ncg     rms          rms(c)
RMM:   1    -0.409254175164E+03    0.29191E+00   -0.93610E-02 70700   0.530E-01    0.945E-01
RMM:   2    -0.409223943441E+03    0.30232E-01   -0.63379E-02 70700   0.509E-01    0.132E-01
RMM:   3    -0.409223782777E+03    0.16066E-03   -0.69080E-04 70700   0.324E-02    0.226E-02
RMM:   4    -0.409223787291E+03   -0.45142E-05   -0.21977E-05 55217   0.944E-03
   29 T=  3237. E= -.38788328E+03 F= -.40922379E+03 E0= -.39843560E+03  EK= 0.21341E+02 SP= 0.00E+00 SK= 0.00E+00
       N       E                     dE             d eps       ncg     rms          rms(c)
RMM:   1    -0.408927527369E+03    0.29626E+00   -0.94394E-02 70700   0.533E-01    0.953E-01
RMM:   2    -0.408896570386E+03    0.30957E-01   -0.64189E-02 70700   0.514E-01    0.100E-01
RMM:   3    -0.408896492842E+03    0.77545E-04   -0.70693E-04 70700   0.317E-02    0.185E-02
RMM:   4    -0.408896496274E+03   -0.34321E-05   -0.19030E-05 52356   0.914E-03
   30 T=  3188. E= -.38788276E+03 F= -.40889650E+03 E0= -.39825339E+03  EK= 0.21014E+02 SP= 0.00E+00 SK= 0.00E+00
       N       E                     dE             d eps       ncg     rms          rms(c)
RMM:   1    -0.408606955117E+03    0.28954E+00   -0.94947E-02 70700   0.541E-01    0.948E-01
RMM:   2    -0.408576215856E+03    0.30739E-01   -0.63525E-02 70700   0.513E-01    0.793E-02
RMM:   3    -0.408576196005E+03    0.19851E-04   -0.67272E-04 70700   0.305E-02    0.217E-02
RMM:   4    -0.408576196892E+03   -0.88663E-06   -0.21023E-05 52477   0.973E-03
   31 T=  3139. E= -.38788222E+03 F= -.40857620E+03 E0= -.39807426E+03  EK= 0.20694E+02 SP= 0.00E+00 SK= 0.00E+00
       N       E                     dE             d eps       ncg     rms          rms(c)
RMM:   1    -0.408304121246E+03    0.27207E+00   -0.94271E-02 70700   0.546E-01    0.956E-01
RMM:   2    -0.408272924555E+03    0.31197E-01   -0.64720E-02 70700   0.520E-01    0.767E-02
RMM:   3    -0.408272910794E+03    0.13761E-04   -0.67498E-04 70700   0.308E-02    0.289E-02
RMM:   4    -0.408272906880E+03    0.39138E-05   -0.18027E-05 51292   0.856E-03
   32 T=  3093. E= -.38788271E+03 F= -.40827291E+03 E0= -.39790795E+03  EK= 0.20390E+02 SP= 0.00E+00 SK= 0.00E+00
       N       E                     dE             d eps       ncg     rms          rms(c)
RMM:   1    -0.408026361992E+03    0.24655E+00   -0.93873E-02 70700   0.550E-01    0.965E-01
RMM:   2    -0.407994455379E+03    0.31907E-01   -0.66122E-02 70700   0.527E-01    0.478E-02
RMM:   3    -0.407994486446E+03   -0.31067E-04   -0.66243E-04 70700   0.300E-02    0.268E-02
RMM:   4    -0.407994479810E+03    0.66361E-05   -0.14454E-05 45984   0.782E-03
   33 T=  3051. E= -.38788308E+03 F= -.40799448E+03 E0= -.39776185E+03  EK= 0.20111E+02 SP= 0.00E+00 SK= 0.00E+00
       N       E                     dE             d eps       ncg     rms          rms(c)
RMM:   1    -0.407780637676E+03    0.21385E+00   -0.95538E-02 70700   0.557E-01    0.966E-01
RMM:   2    -0.407748785923E+03    0.31852E-01   -0.65664E-02 70700   0.527E-01    0.960E-02
RMM:   3    -0.407748722425E+03    0.63498E-04   -0.69633E-04 70700   0.315E-02    0.245E-02
RMM:   4    -0.407748720795E+03    0.16302E-05   -0.20965E-05 54783   0.981E-03
   34 T=  3013. E= -.38788299E+03 F= -.40774872E+03 E0= -.39764371E+03  EK= 0.19866E+02 SP= 0.00E+00 SK= 0.00E+00
       N       E                     dE             d eps       ncg     rms          rms(c)
RMM:   1    -0.407575770919E+03    0.17295E+00   -0.93170E-02 70700   0.551E-01    0.969E-01
RMM:   2    -0.407543509075E+03    0.32262E-01   -0.66267E-02 70700   0.531E-01    0.443E-02
RMM:   3    -0.407543547895E+03   -0.38820E-04   -0.68869E-04 70700   0.306E-02    0.228E-02
RMM:   4    -0.407543545839E+03    0.20556E-05   -0.16350E-05 45969   0.865E-03
   35 T=  2982. E= -.38788337E+03 F= -.40754355E+03 E0= -.39756080E+03  EK= 0.19660E+02 SP= 0.00E+00 SK= 0.00E+00
       N       E                     dE             d eps       ncg     rms          rms(c)
RMM:   1    -0.407415919540E+03    0.12763E+00   -0.95468E-02 70700   0.565E-01    0.959E-01
RMM:   2    -0.407384391655E+03    0.31528E-01   -0.64210E-02 70700   0.524E-01    0.975E-02
RMM:   3    -0.407384322759E+03    0.68896E-04   -0.69363E-04 70700   0.318E-02    0.253E-02
RMM:   4    -0.407384319988E+03    0.27705E-05   -0.23176E-05 56201   0.100E-02
   36 T=  2958. E= -.38788306E+03 F= -.40738432E+03 E0= -.39751878E+03  EK= 0.19501E+02 SP= 0.00E+00 SK= 0.00E+00
       N       E                     dE             d eps       ncg     rms          rms(c)
RMM:   1    -0.407308295057E+03    0.76028E-01   -0.92809E-02 70700   0.557E-01    0.967E-01
RMM:   2    -0.407276179527E+03    0.32116E-01   -0.66823E-02 70700   0.536E-01    0.423E-02
RMM:   3    -0.407276217763E+03   -0.38237E-04   -0.66733E-04 70700   0.304E-02    0.256E-02
RMM:   4    -0.407276213275E+03    0.44887E-05   -0.11985E-05 44818   0.693E-03
   37 T=  2942. E= -.38788419E+03 F= -.40727621E+03 E0= -.39752261E+03  EK= 0.19392E+02 SP= 0.00E+00 SK= 0.00E+00
       N       E                     dE             d eps       ncg     rms          rms(c)
RMM:   1    -0.407251205883E+03    0.25012E-01   -0.96295E-02 70700   0.570E-01    0.960E-01
RMM:   2    -0.407219534792E+03    0.31671E-01   -0.63703E-02 70700   0.525E-01    0.476E-02
RMM:   3    -0.407219563255E+03   -0.28464E-04   -0.68299E-04 70700   0.306E-02    0.237E-02
RMM:   4    -0.407219557952E+03    0.53031E-05   -0.26814E-05 58295   0.113E-02
   38 T=  2933. E= -.38788401E+03 F= -.40721956E+03 E0= -.39757274E+03  EK= 0.19336E+02 SP= 0.00E+00 SK= 0.00E+00
       N       E                     dE             d eps       ncg     rms          rms(c)
RMM:   1    -0.407249482786E+03   -0.29920E-01   -0.92825E-02 70700   0.559E-01    0.951E-01
RMM:   2    -0.407218278461E+03    0.31204E-01   -0.64150E-02 70700   0.527E-01    0.545E-02
RMM:   3    -0.407218298006E+03   -0.19544E-04   -0.63993E-04 70700   0.301E-02    0.182E-02
RMM:   4    -0.407218294881E+03    0.31245E-05   -0.12881E-05 44536   0.796E-03
   39 T=  2933. E= -.38788478E+03 F= -.40721829E+03 E0= -.39767323E+03  EK= 0.19334E+02 SP= 0.00E+00 SK= 0.00E+00
       N       E                     dE             d eps       ncg     rms          rms(c)
RMM:   1    -0.407301920570E+03   -0.83623E-01   -0.94592E-02 70700   0.566E-01    0.954E-01
RMM:   2    -0.407270486302E+03    0.31434E-01   -0.65061E-02 70700   0.532E-01    0.327E-02
RMM:   3    -0.407270539024E+03   -0.52722E-04   -0.64188E-04 70700   0.299E-02    0.283E-02
RMM:   4    -0.407270530570E+03    0.84544E-05   -0.92589E-06 44139   0.579E-03
   40 T=  2940. E= -.38788598E+03 F= -.40727053E+03 E0= -.39782235E+03  EK= 0.19385E+02 SP= 0.00E+00 SK= 0.00E+00
       N       E                     dE             d eps       ncg     rms          rms(c)
RMM:   1    -0.407403979012E+03   -0.13344E+00   -0.93577E-02 70700   0.565E-01    0.941E-01
RMM:   2    -0.407373424375E+03    0.30555E-01   -0.62593E-02 70700   0.523E-01    0.333E-02
RMM:   3    -0.407373473895E+03   -0.49520E-04   -0.65678E-04 70700   0.301E-02    0.260E-02
RMM:   4    -0.407373467450E+03    0.64447E-05   -0.12673E-05 44456   0.770E-03
   41 T=  2956. E= -.38788615E+03 F= -.40737347E+03 E0= -.39801733E+03  EK= 0.19487E+02 SP= 0.00E+00 SK= 0.00E+00
       N       E                     dE             d eps       ncg     rms          rms(c)
RMM:   1    -0.407554260715E+03   -0.18079E+00   -0.94140E-02 70700   0.566E-01    0.930E-01
RMM:   2    -0.407524436317E+03    0.29824E-01   -0.60887E-02 70700   0.517E-01    0.287E-02
RMM:   3    -0.407524490115E+03   -0.53798E-04   -0.65102E-04 70700   0.299E-02    0.304E-02
RMM:   4    -0.407524480645E+03    0.94700E-05   -0.15188E-05 44976   0.840E-03
   42 T=  2979. E= -.38788701E+03 F= -.40752448E+03 E0= -.39825612E+03  EK= 0.19637E+02 SP= 0.00E+00 SK= 0.00E+00
       N       E                     dE             d eps       ncg     rms          rms(c)
RMM:   1    -0.407745027264E+03   -0.22054E+00   -0.93546E-02 70700   0.565E-01    0.923E-01
RMM:   2    -0.407715611528E+03    0.29416E-01   -0.60978E-02 70700   0.518E-01    0.410E-02
RMM:   3    -0.407715647350E+03   -0.35822E-04   -0.62196E-04 70700   0.298E-02    0.230E-02
RMM:   4    -0.407715643401E+03    0.39487E-05   -0.11588E-05 44787   0.696E-03
   43 T=  3008. E= -.38788760E+03 F= -.40771564E+03 E0= -.39853062E+03  EK= 0.19828E+02 SP= 0.00E+00 SK= 0.00E+00
       N       E                     dE             d eps       ncg     rms          rms(c)
RMM:   1    -0.407972144169E+03   -0.25650E+00   -0.93629E-02 70700   0.562E-01    0.922E-01
RMM:   2    -0.407942731822E+03    0.29412E-01   -0.60037E-02 70700   0.515E-01    0.326E-02
RMM:   3    -0.407942778266E+03   -0.46443E-04   -0.62506E-04 70700   0.296E-02    0.221E-02
RMM:   4    -0.407942772698E+03    0.55673E-05   -0.94433E-06 43803   0.645E-03
   44 T=  3042. E= -.38788721E+03 F= -.40794277E+03 E0= -.39883729E+03  EK= 0.20056E+02 SP= 0.00E+00 SK= 0.00E+00
       N       E                     dE             d eps       ncg     rms          rms(c)
RMM:   1    -0.408231730248E+03   -0.28895E+00   -0.92737E-02 70700   0.556E-01    0.907E-01
RMM:   2    -0.408203236575E+03    0.28494E-01   -0.56862E-02 70700   0.501E-01    0.370E-02
RMM:   3    -0.408203275867E+03   -0.39292E-04   -0.63682E-04 70700   0.298E-02    0.212E-02
RMM:   4    -0.408203270189E+03    0.56776E-05   -0.24346E-05 54168   0.110E-02
   45 T=  3082. E= -.38788840E+03 F= -.40820327E+03 E0= -.39917343E+03  EK= 0.20315E+02 SP= 0.00E+00 SK= 0.00E+00
       N       E                     dE             d eps       ncg     rms          rms(c)
RMM:   1    -0.408514637983E+03   -0.31136E+00   -0.92216E-02 70700   0.558E-01    0.891E-01
RMM:   2    -0.408487164534E+03    0.27473E-01   -0.56126E-02 70700   0.499E-01    0.248E-02
RMM:   3    -0.408487217320E+03   -0.52786E-04   -0.61551E-04 70700   0.293E-02    0.246E-02
RMM:   4    -0.408487208998E+03    0.83222E-05   -0.13483E-05 44189   0.805E-03
   46 T=  3125. E= -.38788903E+03 F= -.40848721E+03 E0= -.39952930E+03  EK= 0.20598E+02 SP= 0.00E+00 SK= 0.00E+00
       N       E                     dE             d eps       ncg     rms          rms(c)
RMM:   1    -0.408813326920E+03   -0.32611E+00   -0.94018E-02 70700   0.558E-01    0.878E-01
RMM:   2    -0.408786677696E+03    0.26649E-01   -0.55380E-02 70700   0.496E-01    0.240E-02
RMM:   3    -0.408786734147E+03   -0.56451E-04   -0.58329E-04 70700   0.287E-02    0.282E-02
RMM:   4    -0.408786725977E+03    0.81698E-05   -0.88719E-06 43951   0.579E-03
   47 T=  3170. E= -.38789005E+03 F= -.40878673E+03 E0= -.39989736E+03  EK= 0.20897E+02 SP= 0.00E+00 SK= 0.00E+00
       N       E                     dE             d eps       ncg     rms          rms(c)
RMM:   1    -0.409119661054E+03   -0.33293E+00   -0.91237E-02 70700   0.547E-01    0.859E-01
RMM:   2    -0.409094166092E+03    0.25495E-01   -0.53943E-02 70700   0.489E-01    0.278E-02
RMM:   3    -0.409094209438E+03   -0.43346E-04   -0.50397E-04 70700   0.279E-02    0.234E-02
RMM:   4    -0.409094204320E+03    0.51177E-05   -0.84438E-06 43587   0.593E-03
   48 T=  3216. E= -.38789123E+03 F= -.40909420E+03 E0= -.40027040E+03  EK= 0.21203E+02 SP= 0.00E+00 SK= 0.00E+00
       N       E                     dE             d eps       ncg     rms          rms(c)
RMM:   1    -0.409429249430E+03   -0.33504E+00   -0.88182E-02 70700   0.529E-01    0.855E-01
RMM:   2    -0.409403891412E+03    0.25358E-01   -0.52803E-02 70700   0.483E-01    0.348E-02
RMM:   3    -0.409403929323E+03   -0.37911E-04   -0.49081E-04 70700   0.280E-02    0.195E-02
RMM:   4    -0.409403925529E+03    0.37936E-05   -0.84775E-06 43924   0.596E-03
   49 T=  3263. E= -.38789157E+03 F= -.40940393E+03 E0= -.40064269E+03  EK= 0.21512E+02 SP= 0.00E+00 SK= 0.00E+00
       N       E                     dE             d eps       ncg     rms          rms(c)
RMM:   1    -0.409734795451E+03   -0.33087E+00   -0.89659E-02 70700   0.537E-01    0.850E-01
RMM:   2    -0.409709678418E+03    0.25117E-01   -0.50104E-02 70700   0.472E-01    0.355E-02
RMM:   3    -0.409709716341E+03   -0.37923E-04   -0.55584E-04 70700   0.281E-02    0.214E-02
RMM:   4    -0.409709708474E+03    0.78670E-05   -0.16781E-05 44905   0.931E-03
   50 T=  3309. E= -.38789264E+03 F= -.40970971E+03 E0= -.40100797E+03  EK= 0.21817E+02 SP= 0.00E+00 SK= 0.00E+00
       N       E                     dE             d eps       ncg     rms          rms(c)
RMM:   1    -0.410025325211E+03   -0.31561E+00   -0.92189E-02 70700   0.545E-01    0.832E-01
RMM:   2    -0.410001244429E+03    0.24081E-01   -0.48098E-02 70700   0.463E-01    0.306E-02
RMM:   3    -0.410001283343E+03   -0.38915E-04   -0.60782E-04 70700   0.293E-02    0.187E-02
RMM:   4    -0.410001280505E+03    0.28385E-05   -0.13030E-05 44413   0.810E-03
   51 T=  3354. E= -.38789287E+03 F= -.41000128E+03 E0= -.40135630E+03  EK= 0.22108E+02 SP= 0.00E+00 SK= 0.00E+00
       N       E                     dE             d eps       ncg     rms          rms(c)
RMM:   1    -0.410293664367E+03   -0.29238E+00   -0.89439E-02 70700   0.527E-01    0.800E-01
RMM:   2    -0.410271467430E+03    0.22197E-01   -0.46402E-02 70700   0.454E-01    0.147E-02
RMM:   3    -0.410271516592E+03   -0.49162E-04   -0.49476E-04 70700   0.267E-02    0.199E-02
RMM:   4    -0.410271512504E+03    0.40877E-05   -0.61636E-06 42546   0.460E-03
   52 T=  3395. E= -.38789227E+03 F= -.41027151E+03 E0= -.40168086E+03  EK= 0.22379E+02 SP= 0.00E+00 SK= 0.00E+00
       N       E                     dE             d eps       ncg     rms          rms(c)
RMM:   1    -0.410537467786E+03   -0.26595E+00   -0.90321E-02 70700   0.520E-01    0.781E-01
RMM:   2    -0.410516333082E+03    0.21135E-01   -0.43357E-02 70700   0.438E-01    0.212E-02
RMM:   3    -0.410516377224E+03   -0.44142E-04   -0.53751E-04 70700   0.275E-02    0.224E-02
RMM:   4    -0.410516371125E+03    0.60985E-05   -0.84170E-06 43333   0.583E-03
   53 T=  3432. E= -.38789309E+03 F= -.41051637E+03 E0= -.40197803E+03  EK= 0.22623E+02 SP= 0.00E+00 SK= 0.00E+00
       N       E                     dE             d eps       ncg     rms          rms(c)
RMM:   1    -0.410750848168E+03   -0.23447E+00   -0.90184E-02 70700   0.517E-01    0.772E-01
RMM:   2    -0.410730178093E+03    0.20670E-01   -0.42312E-02 70700   0.432E-01    0.225E-02
RMM:   3    -0.410730220123E+03   -0.42030E-04   -0.46946E-04 70700   0.261E-02    0.190E-02
RMM:   4    -0.410730217129E+03    0.29943E-05   -0.77174E-06 42895   0.579E-03
   54 T=  3464. E= -.38789377E+03 F= -.41073022E+03 E0= -.40224243E+03  EK= 0.22836E+02 SP= 0.00E+00 SK= 0.00E+00
       N       E                     dE             d eps       ncg     rms          rms(c)
RMM:   1    -0.410929286472E+03   -0.19907E+00   -0.87995E-02 70700   0.503E-01    0.764E-01
RMM:   2    -0.410908903808E+03    0.20383E-01   -0.40809E-02 70700   0.424E-01    0.311E-02
RMM:   3    -0.410908946516E+03   -0.42708E-04   -0.44189E-04 70700   0.259E-02    0.213E-02
RMM:   4    -0.410908940384E+03    0.61317E-05   -0.91865E-06 43538   0.631E-03
   55 T=  3491. E= -.38789355E+03 F= -.41090894E+03 E0= -.40247008E+03  EK= 0.23015E+02 SP= 0.00E+00 SK= 0.00E+00
       N       E                     dE             d eps       ncg     rms          rms(c)
RMM:   1    -0.411067802278E+03   -0.15886E+00   -0.88721E-02 70700   0.500E-01    0.752E-01
RMM:   2    -0.411048001256E+03    0.19801E-01   -0.38561E-02 70700   0.412E-01    0.346E-02
RMM:   3    -0.411048030051E+03   -0.28795E-04   -0.49754E-04 70700   0.266E-02    0.207E-02
RMM:   4    -0.411048021859E+03    0.81923E-05   -0.18605E-05 46550   0.102E-02
   56 T=  3513. E= -.38789239E+03 F= -.41104802E+03 E0= -.40265625E+03  EK= 0.23156E+02 SP= 0.00E+00 SK= 0.00E+00
       N       E                     dE             d eps       ncg     rms          rms(c)
RMM:   1    -0.411164770627E+03   -0.11674E+00   -0.88802E-02 70700   0.495E-01    0.716E-01
RMM:   2    -0.411146861683E+03    0.17909E-01   -0.36107E-02 70700   0.398E-01    0.274E-02
RMM:   3    -0.411146895208E+03   -0.33524E-04   -0.47421E-04 70700   0.260E-02    0.170E-02
RMM:   4    -0.411146894421E+03    0.78687E-06   -0.11674E-05 43984   0.761E-03
   57 T=  3527. E= -.38789273E+03 F= -.41114689E+03 E0= -.40280061E+03  EK= 0.23254E+02 SP= 0.00E+00 SK= 0.00E+00
       N       E                     dE             d eps       ncg     rms          rms(c)
RMM:   1    -0.411219652699E+03   -0.72757E-01   -0.91118E-02 70700   0.492E-01    0.682E-01
RMM:   2    -0.411203452404E+03    0.16200E-01   -0.33508E-02 70700   0.382E-01    0.212E-02
RMM:   3    -0.411203489107E+03   -0.36703E-04   -0.39966E-04 70700   0.242E-02    0.189E-02
RMM:   4    -0.411203485576E+03    0.35309E-05   -0.60896E-06 42684   0.464E-03
   58 T=  3536. E= -.38789282E+03 F= -.41120349E+03 E0= -.40290180E+03  EK= 0.23311E+02 SP= 0.00E+00 SK= 0.00E+00
       N       E                     dE             d eps       ncg     rms          rms(c)
RMM:   1    -0.411235902695E+03   -0.32414E-01   -0.85372E-02 70700   0.466E-01    0.669E-01
RMM:   2    -0.411220256928E+03    0.15646E-01   -0.31645E-02 70700   0.371E-01    0.247E-02
RMM:   3    -0.411220285594E+03   -0.28665E-04   -0.38303E-04 70700   0.236E-02    0.141E-02
RMM:   4    -0.411220284178E+03    0.14158E-05   -0.83836E-06 42810   0.657E-03
   59 T=  3539. E= -.38789235E+03 F= -.41122028E+03 E0= -.40296210E+03  EK= 0.23328E+02 SP= 0.00E+00 SK= 0.00E+00
       N       E                     dE             d eps       ncg     rms          rms(c)
RMM:   1    -0.411218489944E+03    0.17957E-02   -0.86060E-02 70700   0.465E-01    0.656E-01
RMM:   2    -0.411203377466E+03    0.15112E-01   -0.30188E-02 70700   0.362E-01    0.257E-02
RMM:   3    -0.411203406729E+03   -0.29263E-04   -0.37494E-04 70700   0.235E-02    0.152E-02
RMM:   4    -0.411203401806E+03    0.49231E-05   -0.10333E-05 42919   0.734E-03
   60 T=  3536. E= -.38789198E+03 F= -.41120340E+03 E0= -.40298781E+03  EK= 0.23311E+02 SP= 0.00E+00 SK= 0.00E+00
       N       E                     dE             d eps       ncg     rms          rms(c)
RMM:   1    -0.411171856263E+03    0.31550E-01   -0.87895E-02 70700   0.461E-01    0.640E-01
RMM:   2    -0.411157456512E+03    0.14400E-01   -0.28469E-02 70700   0.350E-01    0.225E-02
RMM:   3    -0.411157487663E+03   -0.31151E-04   -0.35861E-04 70700   0.229E-02    0.164E-02
RMM:   4    -0.411157483715E+03    0.39477E-05   -0.90222E-06 42692   0.676E-03
   61 T=  3529. E= -.38789157E+03 F= -.41115748E+03 E0= -.40298341E+03  EK= 0.23266E+02 SP= 0.00E+00 SK= 0.00E+00
       N       E                     dE             d eps       ncg     rms          rms(c)
RMM:   1    -0.411100644004E+03    0.56844E-01   -0.87058E-02 70700   0.450E-01    0.607E-01
RMM:   2    -0.411087641809E+03    0.13002E-01   -0.26072E-02 70700   0.334E-01    0.160E-02
RMM:   3    -0.411087674840E+03   -0.33031E-04   -0.33723E-04 70700   0.221E-02    0.160E-02
RMM:   4    -0.411087672499E+03    0.23411E-05   -0.68293E-06 42520   0.565E-03
   62 T=  3519. E= -.38789149E+03 F= -.41108767E+03 E0= -.40295396E+03  EK= 0.23196E+02 SP= 0.00E+00 SK= 0.00E+00
       N       E                     dE             d eps       ncg     rms          rms(c)
RMM:   1    -0.411010867436E+03    0.76807E-01   -0.88836E-02 70700   0.448E-01    0.573E-01
RMM:   2    -0.410999296993E+03    0.11570E-01   -0.23313E-02 70700   0.314E-01    0.199E-02
RMM:   3    -0.410999324713E+03   -0.27720E-04   -0.32512E-04 70700   0.217E-02    0.172E-02
RMM:   4    -0.410999323132E+03    0.15809E-05   -0.63780E-06 42549   0.556E-03
   63 T=  3505. E= -.38789072E+03 F= -.41099932E+03 E0= -.40290506E+03  EK= 0.23109E+02 SP= 0.00E+00 SK= 0.00E+00
       N       E                     dE             d eps       ncg     rms          rms(c)
RMM:   1    -0.410911137274E+03    0.88187E-01   -0.88111E-02 70700   0.437E-01    0.552E-01
RMM:   2    -0.410900353603E+03    0.10784E-01   -0.22041E-02 70700   0.305E-01    0.445E-02
RMM:   3    -0.410900349268E+03    0.43351E-05   -0.28929E-04 70700   0.211E-02    0.131E-02
RMM:   4    -0.410900348917E+03    0.35054E-06   -0.67921E-06 42660   0.578E-03
   64 T=  3490. E= -.38789050E+03 F= -.41090035E+03 E0= -.40284474E+03  EK= 0.23010E+02 SP= 0.00E+00 SK= 0.00E+00
       N       E                     dE             d eps       ncg     rms          rms(c)
RMM:   1    -0.410805033691E+03    0.95316E-01   -0.84198E-02 70700   0.417E-01    0.533E-01
RMM:   2    -0.410794925745E+03    0.10108E-01   -0.19791E-02 70700   0.287E-01    0.232E-02
RMM:   3    -0.410794943426E+03   -0.17681E-04   -0.27202E-04 70700   0.201E-02    0.102E-02
RMM:   4    -0.410794942921E+03    0.50487E-06   -0.61598E-06 42353   0.565E-03
   65 T=  3475. E= -.38788914E+03 F= -.41079494E+03 E0= -.40277695E+03  EK= 0.22906E+02 SP= 0.00E+00 SK= 0.00E+00
       N       E                     dE             d eps       ncg     rms          rms(c)
RMM:   1    -0.410699145197E+03    0.95798E-01   -0.82382E-02 70700   0.412E-01    0.510E-01
RMM:   2    -0.410689871313E+03    0.92739E-02   -0.17636E-02 70700   0.271E-01    0.400E-02
RMM:   3    -0.410689870803E+03    0.50953E-06   -0.26211E-04 70700   0.199E-02    0.105E-02
RMM:   4    -0.410689869708E+03    0.10954E-05   -0.12536E-05 43204   0.843E-03
   66 T=  3459. E= -.38788826E+03 F= -.41068987E+03 E0= -.40270822E+03  EK= 0.22802E+02 SP= 0.00E+00 SK= 0.00E+00
       N       E                     dE             d eps       ncg     rms          rms(c)
RMM:   1    -0.410597389904E+03    0.92481E-01   -0.80004E-02 70700   0.399E-01    0.480E-01
RMM:   2    -0.410589119983E+03    0.82699E-02   -0.16004E-02 70700   0.257E-01    0.167E-02
RMM:   3    -0.410589139581E+03   -0.19598E-04   -0.24621E-04 70700   0.191E-02    0.141E-02
RMM:   4    -0.410589138986E+03    0.59463E-06   -0.63820E-06 42424   0.552E-03
   67 T=  3444. E= -.38788817E+03 F= -.41058914E+03 E0= -.40264244E+03  EK= 0.22701E+02 SP= 0.00E+00 SK= 0.00E+00
       N       E                     dE             d eps       ncg     rms          rms(c)
RMM:   1    -0.410502207146E+03    0.86932E-01   -0.78520E-02 70700   0.392E-01    0.449E-01
RMM:   2    -0.410494960223E+03    0.72469E-02   -0.14296E-02 70700   0.242E-01    0.197E-02
RMM:   3    -0.410494976023E+03   -0.15800E-04   -0.20599E-04 70693   0.175E-02    0.117E-02
RMM:   4    -0.410494976552E+03   -0.52870E-06   -0.41903E-06 42160   0.428E-03
   68 T=  3429. E= -.38788801E+03 F= -.41049498E+03 E0= -.40258174E+03  EK= 0.22607E+02 SP= 0.00E+00 SK= 0.00E+00
       N       E                     dE             d eps       ncg     rms          rms(c)
RMM:   1    -0.410417270541E+03    0.77705E-01   -0.77688E-02 70700   0.377E-01    0.419E-01
RMM:   2    -0.410410945436E+03    0.63251E-02   -0.12435E-02 70700   0.224E-01    0.217E-02
RMM:   3    -0.410410954885E+03   -0.94487E-05   -0.17259E-04 70666   0.164E-02    0.897E-03
RMM:   4    -0.410410954905E+03   -0.20536E-07   -0.35369E-06 42084   0.415E-03
   69 T=  3417. E= -.38788782E+03 F= -.41041095E+03 E0= -.40252959E+03  EK= 0.22523E+02 SP= 0.00E+00 SK= 0.00E+00
       N       E                     dE             d eps       ncg     rms          rms(c)
RMM:   1    -0.410346750988E+03    0.64204E-01   -0.78915E-02 70700   0.371E-01    0.402E-01
RMM:   2    -0.410340889091E+03    0.58619E-02   -0.11049E-02 70700   0.210E-01    0.167E-02
RMM:   3    -0.410340900124E+03   -0.11033E-04   -0.17455E-04 70690   0.162E-02    0.940E-03
RMM:   4    -0.410340898209E+03    0.19150E-05   -0.49987E-06 42237   0.531E-03
   70 T=  3406. E= -.38788786E+03 F= -.41034090E+03 E0= -.40248952E+03  EK= 0.22453E+02 SP= 0.00E+00 SK= 0.00E+00
       N       E                     dE             d eps       ncg     rms          rms(c)
RMM:   1    -0.410290754732E+03    0.50145E-01   -0.80742E-02 70700   0.369E-01    0.372E-01
RMM:   2    -0.410285679573E+03    0.50752E-02   -0.92149E-03 70700   0.190E-01    0.167E-02
RMM:   3    -0.410285689083E+03   -0.95098E-05   -0.16298E-04 70664   0.158E-02    0.103E-02
RMM:   4    -0.410285687990E+03    0.10921E-05   -0.78070E-06 42414   0.672E-03
   71 T=  3398. E= -.38788687E+03 F= -.41028569E+03 E0= -.40246210E+03  EK= 0.22399E+02 SP= 0.00E+00 SK= 0.00E+00
       N       E                     dE             d eps       ncg     rms          rms(c)
RMM:   1    -0.410254239400E+03    0.31450E-01   -0.81869E-02 70700   0.361E-01    0.340E-01
RMM:   2    -0.410249970248E+03    0.42692E-02   -0.78448E-03 70700   0.174E-01    0.124E-02
RMM:   3    -0.410249980261E+03   -0.10013E-04   -0.14596E-04 70653   0.150E-02    0.953E-03
RMM:   4    -0.410249979250E+03    0.10103E-05   -0.61370E-06 42357   0.591E-03
   72 T=  3392. E= -.38788733E+03 F= -.41024998E+03 E0= -.40245187E+03  EK= 0.22363E+02 SP= 0.00E+00 SK= 0.00E+00
       N       E                     dE             d eps       ncg     rms          rms(c)
RMM:   1    -0.410235311254E+03    0.14669E-01   -0.80857E-02 70700   0.356E-01    0.311E-01
RMM:   2    -0.410231735995E+03    0.35753E-02   -0.67682E-03 70700   0.161E-01    0.176E-02
RMM:   3    -0.410231742515E+03   -0.65202E-05   -0.12548E-04 70632   0.139E-02    0.894E-03
RMM:   4    -0.410231742369E+03    0.14576E-06   -0.34386E-06 42246   0.406E-03
   73 T=  3390. E= -.38788711E+03 F= -.41023174E+03 E0= -.40245673E+03  EK= 0.22345E+02 SP= 0.00E+00 SK= 0.00E+00
       N       E                     dE             d eps       ncg     rms          rms(c)
RMM:   1    -0.410233749237E+03   -0.20067E-02   -0.76300E-02 70700   0.340E-01    0.284E-01
RMM:   2    -0.410230745189E+03    0.30040E-02   -0.56557E-03 70700   0.147E-01    0.195E-02
RMM:   3    -0.410230749152E+03   -0.39636E-05   -0.10330E-04 70616   0.127E-02    0.681E-03
RMM:   4    -0.410230749116E+03    0.35969E-07   -0.36964E-06 42182   0.453E-03
   74 T=  3389. E= -.38788727E+03 F= -.41023075E+03 E0= -.40247634E+03  EK= 0.22343E+02 SP= 0.00E+00 SK= 0.00E+00
       N       E                     dE             d eps       ncg     rms          rms(c)
RMM:   1    -0.410247632746E+03   -0.16884E-01   -0.74993E-02 70700   0.331E-01    0.259E-01
RMM:   2    -0.410245121660E+03    0.25111E-02   -0.47479E-03 70700   0.134E-01    0.175E-02
RMM:   3    -0.410245125559E+03   -0.38992E-05   -0.85846E-05 70602   0.117E-02    0.593E-03
RMM:   4    -0.410245126092E+03   -0.53222E-06   -0.27539E-06 42065   0.376E-03
   75 T=  3391. E= -.38788752E+03 F= -.41024513E+03 E0= -.40250879E+03  EK= 0.22358E+02 SP= 0.00E+00 SK= 0.00E+00
       N       E                     dE             d eps       ncg     rms          rms(c)
RMM:   1    -0.410274585407E+03   -0.29460E-01   -0.75258E-02 70700   0.325E-01    0.234E-01
RMM:   2    -0.410272515554E+03    0.20699E-02   -0.39274E-03 70700   0.122E-01    0.114E-02
RMM:   3    -0.410272521078E+03   -0.55239E-05   -0.79909E-05 70594   0.111E-02    0.790E-03
RMM:   4    -0.410272520448E+03    0.62938E-06   -0.21813E-06 42027   0.336E-03
   76 T=  3396. E= -.38788790E+03 F= -.41027252E+03 E0= -.40255160E+03  EK= 0.22385E+02 SP= 0.00E+00 SK= 0.00E+00
       N       E                     dE             d eps       ncg     rms          rms(c)
RMM:   1    -0.410316104734E+03   -0.43584E-01   -0.77326E-02 70700   0.323E-01    0.208E-01
RMM:   2    -0.410314470316E+03    0.16344E-02   -0.32308E-03 70700   0.111E-01    0.897E-03
RMM:   3    -0.410314475230E+03   -0.49147E-05   -0.73865E-05 70593   0.107E-02    0.833E-03
RMM:   4    -0.410314474501E+03    0.72884E-06   -0.25333E-06 42056   0.365E-03
   77 T=  3402. E= -.38788850E+03 F= -.41031447E+03 E0= -.40260637E+03  EK= 0.22426E+02 SP= 0.00E+00 SK= 0.00E+00
       N       E                     dE             d eps       ncg     rms          rms(c)
RMM:   1    -0.410374627414E+03   -0.60152E-01   -0.77613E-02 70700   0.319E-01    0.181E-01
RMM:   2    -0.410373389498E+03    0.12379E-02   -0.25521E-03 70700   0.988E-02    0.143E-02
RMM:   3    -0.410373391023E+03   -0.15246E-05   -0.71990E-05 70597   0.109E-02    0.688E-03
RMM:   4    -0.410373391009E+03    0.13777E-07   -0.35905E-06 42129   0.437E-03
   78 T=  3411. E= -.38788935E+03 F= -.41037339E+03 E0= -.40267564E+03  EK= 0.22484E+02 SP= 0.00E+00 SK= 0.00E+00
       N       E                     dE             d eps       ncg     rms          rms(c)
RMM:   1    -0.410450098938E+03   -0.76708E-01   -0.78244E-02 70700   0.317E-01    0.161E-01
RMM:   2    -0.410449131128E+03    0.96781E-03   -0.22315E-03 70700   0.928E-02    0.131E-02
RMM:   3    -0.410449133745E+03   -0.26174E-05   -0.58761E-05 70407   0.960E-03    0.609E-03
RMM:   4    -0.410449133925E+03   -0.17925E-06   -0.20364E-06 41980   0.335E-03
   79 T=  3422. E= -.38788971E+03 F= -.41044913E+03 E0= -.40275958E+03  EK= 0.22559E+02 SP= 0.00E+00 SK= 0.00E+00
       N       E                     dE             d eps       ncg     rms          rms(c)
RMM:   1    -0.410543407340E+03   -0.94274E-01   -0.77380E-02 70700   0.310E-01    0.144E-01
RMM:   2    -0.410542639680E+03    0.76766E-03   -0.19864E-03 70700   0.890E-02    0.239E-02
RMM:   3    -0.410542634483E+03    0.51970E-05   -0.51690E-05 67341   0.928E-03    0.522E-03
RMM:   4    -0.410542634450E+03    0.33138E-07   -0.26433E-06 41950   0.371E-03
   80 T=  3436. E= -.38789065E+03 F= -.41054263E+03 E0= -.40285918E+03  EK= 0.22652E+02 SP= 0.00E+00 SK= 0.00E+00
       N       E                     dE             d eps       ncg     rms          rms(c)
RMM:   1    -0.410653720229E+03   -0.11109E+00   -0.78009E-02 70700   0.311E-01    0.133E-01
RMM:   2    -0.410653066157E+03    0.65407E-03   -0.17977E-03 70700   0.849E-02    0.119E-02
RMM:   3    -0.410653068807E+03   -0.26504E-05   -0.48874E-05 65812   0.892E-03    0.710E-03
RMM:   4    -0.410653068708E+03    0.99215E-07   -0.25255E-06 41905   0.344E-03
   81 T=  3453. E= -.38788983E+03 F= -.41065307E+03 E0= -.40297373E+03  EK= 0.22763E+02 SP= 0.00E+00 SK= 0.00E+00
       N       E                     dE             d eps       ncg     rms          rms(c)
RMM:   1    -0.410785377141E+03   -0.13231E+00   -0.77593E-02 70700   0.309E-01    0.125E-01
RMM:   2    -0.410784812627E+03    0.56451E-03   -0.16671E-03 70700   0.824E-02    0.151E-02
RMM:   3    -0.410784813473E+03   -0.84593E-06   -0.47190E-05 64973   0.889E-03    0.645E-03
RMM:   4    -0.410784813326E+03    0.14662E-06   -0.27198E-06 41931   0.376E-03
   82 T=  3473. E= -.38788958E+03 F= -.41078481E+03 E0= -.40310777E+03  EK= 0.22895E+02 SP= 0.00E+00 SK= 0.00E+00
       N       E                     dE             d eps       ncg     rms          rms(c)
RMM:   1    -0.410939625170E+03   -0.15481E+00   -0.78729E-02 70700   0.310E-01    0.124E-01
RMM:   2    -0.410939078058E+03    0.54711E-03   -0.16315E-03 70700   0.811E-02    0.153E-02
RMM:   3    -0.410939077943E+03    0.11505E-06   -0.45404E-05 63812   0.886E-03    0.604E-03
RMM:   4    -0.410939078608E+03   -0.66555E-06   -0.28961E-06 41915   0.384E-03
   83 T=  3496. E= -.38789003E+03 F= -.41093908E+03 E0= -.40326278E+03  EK= 0.23049E+02 SP= 0.00E+00 SK= 0.00E+00
       N       E                     dE             d eps       ncg     rms          rms(c)
RMM:   1    -0.411115970736E+03   -0.17689E+00   -0.80362E-02 70700   0.313E-01    0.130E-01
RMM:   2    -0.411115367144E+03    0.60359E-03   -0.17304E-03 70700   0.836E-02    0.144E-02
RMM:   3    -0.411115367723E+03   -0.57916E-06   -0.48458E-05 64934   0.916E-03    0.769E-03
RMM:   4    -0.411115367675E+03    0.47730E-07   -0.36517E-06 41945   0.436E-03
   84 T=  3523. E= -.38788970E+03 F= -.41111537E+03 E0= -.40343840E+03  EK= 0.23226E+02 SP= 0.00E+00 SK= 0.00E+00
       N       E                     dE             d eps       ncg     rms          rms(c)
RMM:   1    -0.411315399780E+03   -0.20003E+00   -0.79737E-02 70700   0.312E-01    0.143E-01
RMM:   2    -0.411314666024E+03    0.73376E-03   -0.18919E-03 70700   0.873E-02    0.214E-02
RMM:   3    -0.411314661512E+03    0.45118E-05   -0.53990E-05 67333   0.985E-03    0.589E-03
RMM:   4    -0.411314660833E+03    0.67958E-06   -0.36416E-06 41930   0.444E-03
   85 T=  3554. E= -.38788868E+03 F= -.41131466E+03 E0= -.40363581E+03  EK= 0.23426E+02 SP= 0.00E+00 SK= 0.00E+00
       N       E                     dE             d eps       ncg     rms          rms(c)
RMM:   1    -0.411541774752E+03   -0.22711E+00   -0.80899E-02 70700   0.316E-01    0.158E-01
RMM:   2    -0.411540863112E+03    0.91164E-03   -0.20337E-03 70700   0.887E-02    0.213E-02
RMM:   3    -0.411540860646E+03    0.24655E-05   -0.55922E-05 67716   0.991E-03    0.682E-03
RMM:   4    -0.411540860976E+03   -0.32977E-06   -0.32316E-06 42012   0.405E-03
   86 T=  3588. E= -.38788896E+03 F= -.41154086E+03 E0= -.40385905E+03  EK= 0.23652E+02 SP= 0.00E+00 SK= 0.00E+00
       N       E                     dE             d eps       ncg     rms          rms(c)
RMM:   1    -0.411793769499E+03   -0.25291E+00   -0.83325E-02 70700   0.322E-01    0.176E-01
RMM:   2    -0.411792622505E+03    0.11470E-02   -0.23656E-03 70700   0.955E-02    0.138E-02
RMM:   3    -0.411792625440E+03   -0.29353E-05   -0.60855E-05 70079   0.100E-02    0.785E-03
RMM:   4    -0.411792625516E+03   -0.75826E-07   -0.30220E-06 42091   0.399E-03
   87 T=  3626. E= -.38788887E+03 F= -.41179263E+03 E0= -.40410678E+03  EK= 0.23904E+02 SP= 0.00E+00 SK= 0.00E+00
       N       E                     dE             d eps       ncg     rms          rms(c)
RMM:   1    -0.412071106844E+03   -0.27848E+00   -0.85441E-02 70700   0.329E-01    0.199E-01
RMM:   2    -0.412069642068E+03    0.14648E-02   -0.27497E-03 70700   0.102E-01    0.144E-02
RMM:   3    -0.412069645145E+03   -0.30770E-05   -0.68839E-05 70600   0.107E-02    0.648E-03
RMM:   4    -0.412069645952E+03   -0.80702E-06   -0.39242E-06 42163   0.469E-03
   88 T=  3668. E= -.38788787E+03 F= -.41206965E+03 E0= -.40437878E+03  EK= 0.24182E+02 SP= 0.00E+00 SK= 0.00E+00
       N       E                     dE             d eps       ncg     rms          rms(c)
RMM:   1    -0.412372803694E+03   -0.30316E+00   -0.86496E-02 70700   0.334E-01    0.222E-01
RMM:   2    -0.412370979342E+03    0.18244E-02   -0.33157E-03 70700   0.112E-01    0.158E-02
RMM:   3    -0.412370982363E+03   -0.30210E-05   -0.75770E-05 70618   0.111E-02    0.652E-03
RMM:   4    -0.412370982698E+03   -0.33476E-06   -0.29521E-06 42140   0.405E-03
   89 T=  3714. E= -.38788681E+03 F= -.41237098E+03 E0= -.40467425E+03  EK= 0.24484E+02 SP= 0.00E+00 SK= 0.00E+00
       N       E                     dE             d eps       ncg     rms          rms(c)
RMM:   1    -0.412697750702E+03   -0.32677E+00   -0.88228E-02 70700   0.340E-01    0.247E-01
RMM:   2    -0.412695498846E+03    0.22519E-02   -0.40000E-03 70700   0.122E-01    0.194E-02
RMM:   3    -0.412695500179E+03   -0.13332E-05   -0.83179E-05 70632   0.117E-02    0.716E-03
RMM:   4    -0.412695499777E+03    0.40195E-06   -0.27082E-06 42147   0.385E-03
   90 T=  3763. E= -.38788711E+03 F= -.41269550E+03 E0= -.40499219E+03  EK= 0.24808E+02 SP= 0.00E+00 SK= 0.00E+00
       N       E                     dE             d eps       ncg     rms          rms(c)
RMM:   1    -0.413042009488E+03   -0.34651E+00   -0.89839E-02 70700   0.347E-01    0.269E-01
RMM:   2    -0.413039325383E+03    0.26841E-02   -0.45799E-03 70700   0.130E-01    0.232E-02
RMM:   3    -0.413039325856E+03   -0.47260E-06   -0.94209E-05 70657   0.125E-02    0.751E-03
RMM:   4    -0.413039325488E+03    0.36796E-06   -0.31380E-06 42242   0.396E-03
   91 T=  3815. E= -.38788784E+03 F= -.41303933E+03 E0= -.40532874E+03  EK= 0.25151E+02 SP= 0.00E+00 SK= 0.00E+00
       N       E                     dE             d eps       ncg     rms          rms(c)
RMM:   1    -0.413399999493E+03   -0.36067E+00   -0.92679E-02 70700   0.356E-01    0.301E-01
RMM:   2    -0.413396692964E+03    0.33065E-02   -0.59790E-03 70700   0.149E-01    0.409E-02
RMM:   3    -0.413396677495E+03    0.15469E-04   -0.10971E-04 70684   0.139E-02    0.131E-02
RMM:   4    -0.413396675192E+03    0.23031E-05   -0.43437E-06 42281   0.493E-03
   92 T=  3869. E= -.38788937E+03 F= -.41339668E+03 E0= -.40567844E+03  EK= 0.25507E+02 SP= 0.00E+00 SK= 0.00E+00
       N       E                     dE             d eps       ncg     rms          rms(c)
RMM:   1    -0.413763326295E+03   -0.36665E+00   -0.95715E-02 70700   0.357E-01    0.284E-01
RMM:   2    -0.413773515984E+03   -0.10190E-01   -0.16030E-02 70700   0.248E-01    0.851E-01
RMM:   3    -0.413760493726E+03    0.13022E-01   -0.22832E-02 70700   0.315E-01    0.450E-02
RMM:   4    -0.413760507670E+03   -0.13943E-04   -0.39908E-04 70700   0.248E-02    0.316E-02
RMM:   5    -0.413760530596E+03   -0.22927E-04   -0.32984E-05 64804   0.114E-02    0.536E-02
RMM:   6    -0.413760532698E+03   -0.21018E-05   -0.41450E-06 40390   0.300E-03
   93 T=  3924. E= -.38789001E+03 F= -.41376053E+03 E0= -.40603481E+03  EK= 0.25871E+02 SP= 0.00E+00 SK= 0.00E+00
       N       E                     dE             d eps       ncg     rms          rms(c)
RMM:   1    -0.414132764127E+03   -0.37223E+00   -0.11295E-01 70700   0.419E-01    0.377E-01
RMM:   2    -0.414127925422E+03    0.48387E-02   -0.75515E-03 70700   0.163E-01    0.128E-01
RMM:   3    -0.414127725495E+03    0.19993E-03   -0.41051E-04 70700   0.316E-02    0.329E-02
RMM:   4    -0.414127714061E+03    0.11434E-04   -0.19693E-05 51698   0.753E-03    0.205E-02
RMM:   5    -0.414127708606E+03    0.54553E-05   -0.11972E-05 41583   0.759E-03
   94 T=  3980. E= -.38789111E+03 F= -.41412771E+03 E0= -.40639330E+03  EK= 0.26237E+02 SP= 0.00E+00 SK= 0.00E+00
       N       E                     dE             d eps       ncg     rms          rms(c)
RMM:   1    -0.414493854510E+03   -0.36614E+00   -0.99793E-02 70700   0.369E-01    0.371E-01
RMM:   2    -0.414489010114E+03    0.48444E-02   -0.78102E-03 70700   0.173E-01    0.576E-02
RMM:   3    -0.414489156047E+03   -0.14593E-03   -0.15785E-04 70700   0.172E-02    0.110E-01
RMM:   4    -0.414488993642E+03    0.16241E-03   -0.14509E-04 70700   0.189E-02    0.196E-02
RMM:   5    -0.414488989539E+03    0.41027E-05   -0.73658E-06 41779   0.487E-03
   95 T=  4035. E= -.38789139E+03 F= -.41448899E+03 E0= -.40674638E+03  EK= 0.26598E+02 SP= 0.00E+00 SK= 0.00E+00
       N       E                     dE             d eps       ncg     rms          rms(c)
RMM:   1    -0.414846070552E+03   -0.35708E+00   -0.96341E-02 70700   0.390E-01    0.386E-01
RMM:   2    -0.414840689094E+03    0.53815E-02   -0.92239E-03 70700   0.185E-01    0.389E-02
RMM:   3    -0.414840685286E+03    0.38073E-05   -0.15872E-04 70700   0.164E-02    0.199E-02
RMM:   4    -0.414840685058E+03    0.22801E-06   -0.89037E-06 42930   0.663E-03
   96 T=  4088. E= -.38789163E+03 F= -.41484069E+03 E0= -.40709020E+03  EK= 0.26949E+02 SP= 0.00E+00 SK= 0.00E+00
       N       E                     dE             d eps       ncg     rms          rms(c)
RMM:   1    -0.415187040782E+03   -0.34636E+00   -0.94873E-02 70700   0.392E-01    0.407E-01
RMM:   2    -0.415181045651E+03    0.59951E-02   -0.99981E-03 70700   0.193E-01    0.410E-02
RMM:   3    -0.415181036149E+03    0.95019E-05   -0.16357E-04 70700   0.165E-02    0.161E-02
RMM:   4    -0.415181034533E+03    0.16152E-05   -0.98979E-06 42832   0.680E-03
   97 T=  4139. E= -.38789264E+03 F= -.41518103E+03 E0= -.40742241E+03  EK= 0.27288E+02 SP= 0.00E+00 SK= 0.00E+00
       N       E                     dE             d eps       ncg     rms          rms(c)
RMM:   1    -0.415508706386E+03   -0.32767E+00   -0.93490E-02 70700   0.386E-01    0.438E-01
RMM:   2    -0.415501811160E+03    0.68952E-02   -0.12108E-02 70700   0.214E-01    0.493E-02
RMM:   3    -0.415501795669E+03    0.15491E-04   -0.17924E-04 70700   0.177E-02    0.175E-02
RMM:   4    -0.415501792284E+03    0.33858E-05   -0.75621E-06 42522   0.612E-03
   98 T=  4188. E= -.38789379E+03 F= -.41550179E+03 E0= -.40773502E+03  EK= 0.27608E+02 SP= 0.00E+00 SK= 0.00E+00
       N       E                     dE             d eps       ncg     rms          rms(c)
RMM:   1    -0.415802213427E+03   -0.30042E+00   -0.97038E-02 70700   0.399E-01    0.466E-01
RMM:   2    -0.415794421495E+03    0.77919E-02   -0.13615E-02 70700   0.229E-01    0.365E-02
RMM:   3    -0.415794428455E+03   -0.69598E-05   -0.21512E-04 70700   0.190E-02    0.259E-02
RMM:   4    -0.415794417694E+03    0.10761E-04   -0.85860E-06 43353   0.548E-03    0.107E-02
RMM:   5    -0.415794417255E+03    0.43950E-06   -0.25998E-06 40981   0.316E-03
   99 T=  4232. E= -.38789356E+03 F= -.41579442E+03 E0= -.40801947E+03  EK= 0.27901E+02 SP= 0.00E+00 SK= 0.00E+00
       N       E                     dE             d eps       ncg     rms          rms(c)
RMM:   1    -0.416066105889E+03   -0.27169E+00   -0.10512E-01 70700   0.419E-01    0.473E-01
RMM:   2    -0.416058119613E+03    0.79863E-02   -0.13042E-02 70700   0.222E-01    0.617E-02
RMM:   3    -0.416058083694E+03    0.35918E-04   -0.21845E-04 70700   0.195E-02    0.213E-02
RMM:   4    -0.416058084327E+03   -0.63281E-06   -0.86205E-06 42987   0.676E-03
  100 T=  4272. E= -.38789387E+03 F= -.41605808E+03 E0= -.40827456E+03  EK= 0.28164E+02 SP= 0.00E+00 SK= 0.00E+00
       N       E                     dE             d eps       ncg     rms          rms(c)
RMM:   1    -0.416296715676E+03   -0.23863E+00   -0.10592E-01 70700   0.426E-01    0.526E-01
RMM:   2    -0.416286916594E+03    0.97991E-02   -0.15322E-02 70700   0.242E-01    0.518E-02
RMM:   3    -0.416286936872E+03   -0.20278E-04   -0.23935E-04 70700   0.191E-02    0.498E-02
RMM:   4    -0.416287593774E+03   -0.65690E-03   -0.41199E-04 70700   0.330E-02    0.211E-01
RMM:   5    -0.416286922400E+03    0.67137E-03   -0.32426E-04 70700   0.302E-02    0.396E-02
RMM:   6    -0.416286913878E+03    0.85224E-05   -0.10673E-05 41995   0.582E-03
  101 T=  4307. E= -.38789227E+03 F= -.41628691E+03 E0= -.40849454E+03  EK= 0.28395E+02 SP= 0.00E+00 SK= 0.00E+00
       N       E                     dE             d eps       ncg     rms          rms(c)
RMM:   1    -0.416492033128E+03   -0.20511E+00   -0.11285E-01 70700   0.442E-01    0.523E-01
RMM:   2    -0.416482527119E+03    0.95060E-02   -0.16921E-02 70700   0.255E-01    0.472E-02
RMM:   3    -0.416482535465E+03   -0.83463E-05   -0.22494E-04 70700   0.191E-02    0.384E-02
RMM:   4    -0.416482539882E+03   -0.44165E-05   -0.27085E-05 58613   0.105E-02
  102 T=  4337. E= -.38789259E+03 F= -.41648254E+03 E0= -.40868150E+03  EK= 0.28590E+02 SP= 0.00E+00 SK= 0.00E+00
       N       E                     dE             d eps       ncg     rms          rms(c)
RMM:   1    -0.416651717104E+03   -0.16918E+00   -0.10139E-01 70700   0.399E-01    0.504E-01
RMM:   2    -0.416648148709E+03    0.35684E-02   -0.11600E-02 70700   0.181E-01    0.462E-01
RMM:   3    -0.416645980499E+03    0.21682E-02   -0.34206E-03 70700   0.112E-01    0.214E-01
RMM:   4    -0.416646831871E+03   -0.85137E-03   -0.39744E-04 70700   0.327E-02    0.300E-01
RMM:   5    -0.416645322624E+03    0.15092E-02   -0.30552E-03 70700   0.106E-01    0.774E-02
RMM:   6    -0.416645241280E+03    0.81344E-04   -0.94223E-05 70684   0.167E-02    0.425E-02
RMM:   7    -0.416645223853E+03    0.17426E-04   -0.14447E-05 42351   0.680E-03    0.251E-02
RMM:   8    -0.416645217615E+03    0.62379E-05   -0.14036E-05 40396   0.717E-03
  103 T=  4362. E= -.38789278E+03 F= -.41664522E+03 E0= -.40883393E+03  EK= 0.28752E+02 SP= 0.00E+00 SK= 0.00E+00
       N       E                     dE             d eps       ncg     rms          rms(c)
RMM:   1    -0.416791438429E+03   -0.14621E+00   -0.13114E-01 70700   0.517E-01    0.799E-01
RMM:   2    -0.416772112980E+03    0.19325E-01   -0.30949E-02 70700   0.354E-01    0.113E-01
RMM:   3    -0.416772010726E+03    0.10225E-03   -0.55046E-04 70700   0.303E-02    0.666E-02
RMM:   4    -0.416772004703E+03    0.60228E-05   -0.17960E-05 51207   0.963E-03
  104 T=  4381. E= -.38789143E+03 F= -.41677200E+03 E0= -.40894919E+03  EK= 0.28881E+02 SP= 0.00E+00 SK= 0.00E+00
       N       E                     dE             d eps       ncg     rms          rms(c)
RMM:   1    -0.416875035864E+03   -0.10303E+00   -0.10035E-01 70700   0.427E-01    0.639E-01
RMM:   2    -0.416861403664E+03    0.13632E-01   -0.16746E-02 70700   0.251E-01    0.238E-01
RMM:   3    -0.416860823701E+03    0.57996E-03   -0.96354E-04 70700   0.475E-02    0.155E-01
RMM:   4    -0.416860779581E+03    0.44120E-04   -0.77291E-05 70700   0.135E-02    0.139E-01
RMM:   5    -0.416860683103E+03    0.96479E-04   -0.18769E-05 42847   0.825E-03    0.127E-01
RMM:   6    -0.416860633696E+03    0.49407E-04   -0.12216E-05 40817   0.491E-03    0.120E-01
RMM:   7    -0.416860532627E+03    0.10107E-03   -0.35635E-05 66326   0.899E-03    0.104E-01
RMM:   8    -0.416860424739E+03    0.10789E-03   -0.53335E-05 70572   0.121E-02    0.847E-02
RMM:   9    -0.416860396877E+03    0.27861E-04   -0.11044E-05 39386   0.536E-03    0.769E-02
RMM:  10    -0.416860365030E+03    0.31847E-04   -0.99726E-06 38713   0.436E-03    0.689E-02
RMM:  11    -0.416860306264E+03    0.58766E-04   -0.33131E-05 64386   0.909E-03    0.509E-02
RMM:  12    -0.416860265976E+03    0.40288E-04   -0.45625E-05 70533   0.103E-02    0.322E-02
RMM:  13    -0.416860266950E+03   -0.97370E-06   -0.21964E-04 70700   0.247E-02    0.205E-02
RMM:  14    -0.416860255357E+03    0.11593E-04   -0.63649E-06 38252   0.408E-03    0.104E-02
RMM:  15    -0.416860256881E+03   -0.15246E-05   -0.22517E-06 37637   0.290E-03
  105 T=  4395. E= -.38789039E+03 F= -.41686026E+03 E0= -.40902670E+03  EK= 0.28970E+02 SP= 0.00E+00 SK= 0.00E+00
       N       E                     dE             d eps       ncg     rms          rms(c)
RMM:   1    -0.416919124545E+03   -0.58869E-01   -0.13954E-01 70700   0.497E-01    0.523E-01
RMM:   2    -0.416919659183E+03   -0.53464E-03   -0.50466E-02 70700   0.433E-01    0.519E-01
RMM:   3    -0.416917388386E+03    0.22708E-02   -0.65318E-04 70700   0.408E-02    0.460E-01
RMM:   4    -0.416911658444E+03    0.57299E-02   -0.60620E-03 70700   0.136E-01    0.201E-01
RMM:   5    -0.416910688183E+03    0.97026E-03   -0.20634E-03 70700   0.681E-02    0.904E-02
RMM:   6    -0.416910527009E+03    0.16117E-03   -0.47999E-04 70700   0.342E-02    0.477E-02
RMM:   7    -0.416911926516E+03   -0.13995E-02   -0.19467E-03 70700   0.728E-02    0.205E-01
RMM:   8    -0.416910714736E+03    0.12118E-02   -0.87324E-04 70700   0.504E-02    0.866E-02
RMM:   9    -0.416910680195E+03    0.34540E-04   -0.56757E-05 70533   0.102E-02    0.789E-02
RMM:  10    -0.416910679921E+03    0.27428E-06   -0.36126E-06 38627   0.393E-03
  106 T=  4402. E= -.38789184E+03 F= -.41691068E+03 E0= -.40906566E+03  EK= 0.29019E+02 SP= 0.00E+00 SK= 0.00E+00
       N       E                     dE             d eps       ncg     rms          rms(c)
RMM:   1    -0.416933334548E+03   -0.22654E-01   -0.89445E-02 70700   0.403E-01    0.505E-01
RMM:   2    -0.416950320467E+03   -0.16986E-01   -0.81568E-02 70700   0.546E-01    0.850E-01
RMM:   3    -0.416946835169E+03    0.34853E-02   -0.18642E-03 70700   0.588E-02    0.804E-01
RMM:   4    -0.416960217832E+03   -0.13383E-01   -0.45849E-03 70700   0.100E-01    0.103E+00
RMM:   5    -0.416934169846E+03    0.26048E-01   -0.19955E-02 70700   0.241E-01    0.518E-01
RMM:   6    -0.416935097675E+03   -0.92783E-03   -0.68011E-04 70801   0.335E-02    0.527E-01
RMM:   7    -0.416940852801E+03   -0.57551E-02   -0.16509E-03 70700   0.669E-02    0.671E-01
RMM:   8    -0.416935552267E+03    0.53005E-02   -0.10814E-03 70700   0.563E-02    0.541E-01
RMM:   9    -0.416935242469E+03    0.30980E-03   -0.76460E-05 70563   0.122E-02    0.529E-01
RMM:  10    -0.416933928700E+03    0.13138E-02   -0.91512E-02 70700   0.506E-01    0.514E-01
RMM:  11    -0.416926338745E+03    0.75900E-02   -0.16323E-02 70700   0.233E-01    0.828E-02
RMM:  12    -0.416926159259E+03    0.17949E-03   -0.41346E-04 70700   0.386E-02    0.706E-02
RMM:  13    -0.416926158036E+03    0.12229E-05   -0.10946E-04 70700   0.183E-02    0.645E-02
RMM:  14    -0.416930970688E+03   -0.48127E-02   -0.13656E-02 70700   0.199E-01    0.397E-01
RMM:  15    -0.416933570529E+03   -0.25998E-02   -0.55018E-02 70700   0.405E-01    0.462E-01
RMM:  16    -0.416930308814E+03    0.32617E-02   -0.44921E-02 70700   0.377E-01    0.373E-01
RMM:  17    -0.416927972201E+03    0.23366E-02   -0.67479E-04 70700   0.480E-02    0.262E-01
RMM:  18    -0.416927201762E+03    0.77044E-03   -0.22487E-04 70700   0.286E-02    0.208E-01
RMM:  19    -0.416926933707E+03    0.26806E-03   -0.70514E-05 70700   0.135E-02    0.183E-01
RMM:  20    -0.416926094297E+03    0.83941E-03   -0.29852E-03 70700   0.925E-02    0.290E-02
RMM:  21    -0.416926109476E+03   -0.15179E-04   -0.20030E-04 71324   0.181E-02    0.241E-02
RMM:  22    -0.416926107098E+03    0.23775E-05   -0.10685E-05 38002   0.752E-03
  107 T=  4404. E= -.38789344E+03 F= -.41692611E+03 E0= -.40906637E+03  EK= 0.29033E+02 SP= 0.00E+00 SK= 0.00E+00
       N       E                     dE             d eps       ncg     rms          rms(c)
RMM:   1    -0.416935934330E+03   -0.98249E-02   -0.13021E-01 70700   0.537E-01    0.867E-01
RMM:   2    -0.416908235353E+03    0.27699E-01   -0.56681E-02 70700   0.468E-01    0.545E-02
RMM:   3    -0.416908359437E+03   -0.12408E-03   -0.15743E-03 70700   0.483E-02    0.445E-02
RMM:   4    -0.416908359991E+03   -0.55409E-06   -0.95838E-05 70700   0.216E-02
  108 T=  4401. E= -.38789458E+03 F= -.41690836E+03 E0= -.40903383E+03  EK= 0.29014E+02 SP= 0.00E+00 SK= 0.00E+00
       N       E                     dE             d eps       ncg     rms          rms(c)
RMM:   1    -0.416868310203E+03    0.40049E-01   -0.82265E-02 70700   0.425E-01    0.575E-01
RMM:   2    -0.416857533864E+03    0.10776E-01   -0.20318E-02 70700   0.283E-01    0.108E-01
RMM:   3    -0.416857621252E+03   -0.87388E-04   -0.30940E-04 70700   0.231E-02    0.939E-02
RMM:   4    -0.416857603690E+03    0.17562E-04   -0.11806E-05 43868   0.744E-03    0.911E-02
RMM:   5    -0.416857606563E+03   -0.28726E-05   -0.26856E-06 40930   0.285E-03
  109 T=  4393. E= -.38789661E+03 F= -.41685761E+03 E0= -.40896684E+03  EK= 0.28961E+02 SP= 0.00E+00 SK= 0.00E+00
       N       E                     dE             d eps       ncg     rms          rms(c)
RMM:   1    -0.416791598461E+03    0.66005E-01   -0.74773E-02 70700   0.432E-01    0.638E-01
RMM:   2    -0.416779099690E+03    0.12499E-01   -0.33583E-02 70700   0.377E-01    0.232E-01
RMM:   3    -0.416779164974E+03   -0.65284E-04   -0.46026E-04 70700   0.310E-02    0.221E-01
RMM:   4    -0.416779194385E+03   -0.29411E-04   -0.62513E-05 70700   0.136E-02    0.240E-01
RMM:   5    -0.416779974771E+03   -0.78039E-03   -0.16423E-03 70700   0.628E-02    0.277E-01
RMM:   6    -0.416778800147E+03    0.11746E-02   -0.28674E-04 70700   0.256E-02    0.187E-01
RMM:   7    -0.416778657137E+03    0.14301E-03   -0.10224E-04 70700   0.150E-02    0.172E-01
RMM:   8    -0.416778493173E+03    0.16396E-03   -0.50143E-05 70474   0.942E-03    0.159E-01
RMM:   9    -0.416778358768E+03    0.13441E-03   -0.30507E-05 59592   0.819E-03    0.147E-01
RMM:  10    -0.416778220517E+03    0.13825E-03   -0.42197E-05 70513   0.864E-03    0.135E-01
RMM:  11    -0.416778157597E+03    0.62920E-04   -0.94788E-06 38805   0.490E-03    0.130E-01
RMM:  12    -0.416777839794E+03    0.31780E-03   -0.78520E-04 70700   0.477E-02    0.137E-01
RMM:  13    -0.416777950785E+03   -0.11099E-03   -0.31606E-04 70700   0.338E-02    0.109E-01
RMM:  14    -0.416777772018E+03    0.17877E-03   -0.40594E-05 70558   0.932E-03    0.901E-02
RMM:  15    -0.416777578665E+03    0.19335E-03   -0.14855E-04 70700   0.167E-02    0.636E-02
RMM:  16    -0.416777464491E+03    0.11417E-03   -0.16872E-04 70700   0.186E-02    0.374E-02
RMM:  17    -0.416777431821E+03    0.32669E-04   -0.99890E-05 70700   0.137E-02    0.245E-02
RMM:  18    -0.416777422333E+03    0.94882E-05   -0.30456E-05 59499   0.884E-03
  110 T=  4381. E= -.38789861E+03 F= -.41677742E+03 E0= -.40886799E+03  EK= 0.28879E+02 SP= 0.00E+00 SK= 0.00E+00
       N       E                     dE             d eps       ncg     rms          rms(c)
RMM:   1    -0.416692101555E+03    0.85330E-01   -0.11839E-01 70700   0.495E-01    0.763E-01
RMM:   2    -0.416671054884E+03    0.21047E-01   -0.39677E-02 70700   0.383E-01    0.729E-02
RMM:   3    -0.416671118869E+03   -0.63985E-04   -0.13371E-03 70700   0.445E-02    0.364E-02
RMM:   4    -0.416671126465E+03   -0.75961E-05   -0.32225E-04 70700   0.330E-02    0.297E-02
RMM:   5    -0.416671115220E+03    0.11245E-04   -0.25051E-05 54411   0.782E-03    0.161E-02
RMM:   6    -0.416671111569E+03    0.36510E-05   -0.14869E-05 41332   0.671E-03
  111 T=  4364. E= -.38789933E+03 F= -.41667111E+03 E0= -.40874195E+03  EK= 0.28772E+02 SP= 0.00E+00 SK= 0.00E+00
       N       E                     dE             d eps       ncg     rms          rms(c)
RMM:   1    -0.416557797782E+03    0.11332E+00   -0.84243E-02 70700   0.448E-01    0.674E-01
RMM:   2    -0.416542200119E+03    0.15598E-01   -0.29130E-02 70700   0.346E-01    0.123E-01
RMM:   3    -0.416541975695E+03    0.22442E-03   -0.46804E-04 70700   0.286E-02    0.503E-02
RMM:   4    -0.416541997105E+03   -0.21409E-04   -0.11982E-05 44769   0.777E-03    0.550E-02
RMM:   5    -0.416541917345E+03    0.79760E-04   -0.67426E-05 70700   0.106E-02    0.321E-02
RMM:   6    -0.416541901035E+03    0.16309E-04   -0.12706E-05 40651   0.665E-03    0.245E-02
RMM:   7    -0.416541883653E+03    0.17383E-04   -0.22627E-05 43769   0.593E-03    0.142E-02
RMM:   8    -0.416541875057E+03    0.85959E-05   -0.37548E-05 68050   0.795E-03
  112 T=  4345. E= -.38790033E+03 F= -.41654188E+03 E0= -.40859171E+03  EK= 0.28642E+02 SP= 0.00E+00 SK= 0.00E+00
       N       E                     dE             d eps       ncg     rms          rms(c)
RMM:   1    -0.416408293093E+03    0.13359E+00   -0.97709E-02 70700   0.488E-01    0.714E-01
RMM:   2    -0.416392163647E+03    0.16129E-01   -0.47013E-02 70700   0.435E-01    0.205E-01
RMM:   3    -0.416390722078E+03    0.14416E-02   -0.18840E-03 70700   0.715E-02    0.819E-02
RMM:   4    -0.416391105745E+03   -0.38367E-03   -0.29291E-04 70700   0.247E-02    0.153E-01
RMM:   5    -0.417858113316E+03   -0.14670E+01   -0.23828E+00 70700   0.238E+00    0.889E+00
RMM:   6    -0.416386096534E+03    0.14720E+01   -0.18284E+00 70700   0.212E+00    0.290E-01
RMM:   7    -0.416390935007E+03   -0.48385E-02   -0.72865E-02 70742   0.354E-01    0.195E-01
RMM:   8    -0.416391231449E+03   -0.29644E-03   -0.62050E-03 70805   0.167E-01    0.121E-01
RMM:   9    -0.416390824815E+03    0.40663E-03   -0.54903E-04 70700   0.341E-02    0.722E-02
RMM:  10    -0.416390714710E+03    0.11011E-03   -0.87442E-05 70700   0.171E-02    0.509E-02
RMM:  11    -0.416390707557E+03    0.71525E-05   -0.34757E-06 40102   0.297E-03
  113 T=  4322. E= -.38789828E+03 F= -.41639071E+03 E0= -.40841817E+03  EK= 0.28492E+02 SP= 0.00E+00 SK= 0.00E+00
       N       E                     dE             d eps       ncg     rms          rms(c)
RMM:   1    -0.416246418683E+03    0.14430E+00   -0.97680E-02 70700   0.479E-01    0.713E-01
RMM:   2    -0.416229020327E+03    0.17398E-01   -0.33492E-02 70700   0.370E-01    0.139E-01
RMM:   3    -0.416229080156E+03   -0.59829E-04   -0.42993E-04 70700   0.254E-02    0.138E-01
RMM:   4    -0.416229007044E+03    0.73112E-04   -0.46378E-05 70512   0.985E-03    0.137E-01
RMM:   5    -0.416230006131E+03   -0.99909E-03   -0.97025E-04 70700   0.412E-02    0.198E-01
RMM:   6    -0.416229433441E+03    0.57269E-03   -0.11147E-04 70700   0.133E-02    0.161E-01
RMM:   7    -0.416229303770E+03    0.12967E-03   -0.21137E-05 43387   0.698E-03    0.151E-01
RMM:   8    -0.416229295009E+03    0.87605E-05   -0.15482E-05 39810   0.742E-03
  114 T=  4298. E= -.38789651E+03 F= -.41622930E+03 E0= -.40823287E+03  EK= 0.28333E+02 SP= 0.00E+00 SK= 0.00E+00
       N       E                     dE             d eps       ncg     rms          rms(c)
RMM:   1    -0.416080406133E+03    0.14890E+00   -0.84474E-02 70700   0.460E-01    0.766E-01
RMM:   2    -0.416062018597E+03    0.18388E-01   -0.35306E-02 70700   0.384E-01    0.264E-01
RMM:   3    -0.416061818425E+03    0.20017E-03   -0.50301E-04 70700   0.270E-02    0.248E-01
RMM:   4    -0.416061527016E+03    0.29141E-03   -0.61138E-05 70618   0.121E-02    0.233E-01
RMM:   5    -0.416061527595E+03   -0.57874E-06   -0.65702E-06 40900   0.439E-03
  115 T=  4273. E= -.38789449E+03 F= -.41606153E+03 E0= -.40804022E+03  EK= 0.28167E+02 SP= 0.00E+00 SK= 0.00E+00
       N       E                     dE             d eps       ncg     rms          rms(c)
RMM:   1    -0.415907541113E+03    0.15399E+00   -0.93159E-02 70700   0.498E-01    0.727E-01
RMM:   2    -0.415890850018E+03    0.16691E-01   -0.44171E-02 70700   0.411E-01    0.245E-01
RMM:   3    -0.415889530250E+03    0.13198E-02   -0.11381E-03 70700   0.539E-02    0.624E-02
RMM:   4    -0.415889494748E+03    0.35503E-04   -0.79481E-05 70700   0.150E-02    0.506E-02
RMM:   5    -0.415889493240E+03    0.15075E-05   -0.13164E-05 42188   0.601E-03
  116 T=  4247. E= -.38789231E+03 F= -.41588949E+03 E0= -.40784082E+03  EK= 0.27997E+02 SP= 0.00E+00 SK= 0.00E+00
       N       E                     dE             d eps       ncg     rms          rms(c)
RMM:   1    -0.415740990545E+03    0.14850E+00   -0.10196E-01 70700   0.504E-01    0.747E-01
RMM:   2    -0.415724117448E+03    0.16873E-01   -0.33776E-02 70700   0.372E-01    0.270E-01
RMM:   3    -0.415722158163E+03    0.19593E-02   -0.46301E-03 70700   0.855E-02    0.825E-02
RMM:   4    -0.415722175744E+03   -0.17581E-04   -0.28084E-04 71321   0.304E-02    0.734E-02
RMM:   5    -0.415722685259E+03   -0.50951E-03   -0.27160E-04 70700   0.274E-02    0.153E-01
RMM:   6    -0.415722041254E+03    0.64400E-03   -0.76964E-04 70700   0.433E-02    0.368E-02
RMM:   7    -0.415722037536E+03    0.37185E-05   -0.58304E-05 70477   0.982E-03
  117 T=  4221. E= -.38789331E+03 F= -.41572204E+03 E0= -.40764406E+03  EK= 0.27829E+02 SP= 0.00E+00 SK= 0.00E+00
       N       E                     dE             d eps       ncg     rms          rms(c)
RMM:   1    -0.415583759634E+03    0.13828E+00   -0.88961E-02 70700   0.478E-01    0.811E-01
RMM:   2    -0.415561702896E+03    0.22057E-01   -0.38318E-02 70700   0.394E-01    0.180E-01
RMM:   3    -0.415561413812E+03    0.28908E-03   -0.11064E-03 70700   0.454E-02    0.988E-02
RMM:   4    -0.415561503649E+03   -0.89837E-04   -0.30873E-04 70700   0.293E-02    0.976E-02
RMM:   5    -0.415561537682E+03   -0.34033E-04   -0.12077E-04 70700   0.187E-02    0.931E-02
RMM:   6    -0.415561459338E+03    0.78345E-04   -0.18962E-05 43301   0.753E-03    0.821E-02
RMM:   7    -0.415561429198E+03    0.30139E-04   -0.11785E-05 40237   0.554E-03    0.767E-02
RMM:   8    -0.415561342014E+03    0.87184E-04   -0.40383E-05 70402   0.856E-03    0.612E-02
RMM:   9    -0.415561264501E+03    0.77513E-04   -0.59407E-05 70683   0.104E-02    0.427E-02
RMM:  10    -0.415561242083E+03    0.22418E-04   -0.14249E-05 39681   0.608E-03    0.350E-02
RMM:  11    -0.415561224381E+03    0.17702E-04   -0.13616E-05 38468   0.504E-03    0.282E-02
RMM:  12    -0.415561206497E+03    0.17884E-04   -0.17972E-05 41882   0.653E-03    0.187E-02
RMM:  13    -0.415561203359E+03    0.31387E-05   -0.62831E-06 37652   0.460E-03
  118 T=  4197. E= -.38789364E+03 F= -.41556120E+03 E0= -.40745354E+03  EK= 0.27668E+02 SP= 0.00E+00 SK= 0.00E+00
       N       E                     dE             d eps       ncg     rms          rms(c)
RMM:   1    -0.415431432502E+03    0.12977E+00   -0.97860E-02 70700   0.501E-01    0.742E-01
RMM:   2    -0.415412423362E+03    0.19009E-01   -0.38252E-02 70700   0.399E-01    0.966E-02
RMM:   3    -0.415412562905E+03   -0.13954E-03   -0.52900E-04 70700   0.281E-02    0.101E-01
RMM:   4    -0.415412343759E+03    0.21915E-03   -0.15500E-04 70700   0.224E-02    0.654E-02
RMM:   5    -0.415412395961E+03   -0.52202E-04   -0.55685E-05 70545   0.152E-02    0.824E-02
RMM:   6    -0.415412401538E+03   -0.55773E-05   -0.10700E-05 40579   0.660E-03
  119 T=  4174. E= -.38789365E+03 F= -.41541240E+03 E0= -.40727413E+03  EK= 0.27519E+02 SP= 0.00E+00 SK= 0.00E+00
       N       E                     dE             d eps       ncg     rms          rms(c)
RMM:   1    -0.415299091481E+03    0.11330E+00   -0.84366E-02 70700   0.476E-01    0.785E-01
RMM:   2    -0.415277703272E+03    0.21388E-01   -0.40341E-02 70700   0.405E-01    0.125E-01
RMM:   3    -0.415277689814E+03    0.13458E-04   -0.85957E-04 70700   0.350E-02    0.103E-01
RMM:   4    -0.415278645817E+03   -0.95600E-03   -0.63069E-04 70700   0.395E-02    0.212E-01
RMM:   5    -0.415277928624E+03    0.71719E-03   -0.19749E-03 70700   0.764E-02    0.193E-01
RMM:   6    -0.415277795853E+03    0.13277E-03   -0.38076E-03 70700   0.870E-02    0.118E-01
[...]
RMM:   2    -0.405287653126E+03    0.69310E-03   -0.98847E-04 70700   0.560E-02    0.160E-02
RMM:   3    -0.405287650962E+03    0.21635E-05   -0.18092E-05 50752   0.601E-03    0.587E-03
RMM:   4    -0.405287651235E+03   -0.27250E-06   -0.29106E-06 40931   0.356E-03
  864 T=  2643. E= -.38786115E+03 F= -.40528765E+03 E0= -.39613367E+03  EK= 0.17427E+02 SP= 0.00E+00 SK= 0.00E+00
       N       E                     dE             d eps       ncg     rms          rms(c)
RMM:   1    -0.405242227290E+03    0.45424E-01   -0.29746E-02 70700   0.180E-01    0.135E-01
RMM:   2    -0.405241543275E+03    0.68402E-03   -0.96305E-04 70700   0.552E-02    0.122E-02
RMM:   3    -0.405241542820E+03    0.45415E-06   -0.18383E-05 50985   0.597E-03    0.652E-03
RMM:   4    -0.405241542969E+03   -0.14813E-06   -0.28379E-06 40924   0.351E-03
  865 T=  2637. E= -.38786068E+03 F= -.40524154E+03 E0= -.39609312E+03  EK= 0.17381E+02 SP= 0.00E+00 SK= 0.00E+00
       N       E                     dE             d eps       ncg     rms          rms(c)
RMM:   1    -0.405212140548E+03    0.29402E-01   -0.28961E-02 70700   0.177E-01    0.134E-01
RMM:   2    -0.405211470980E+03    0.66957E-03   -0.94549E-04 70700   0.545E-02    0.155E-02
RMM:   3    -0.405211469036E+03    0.19432E-05   -0.17586E-05 50616   0.590E-03    0.570E-03
RMM:   4    -0.405211469377E+03   -0.34057E-06   -0.27298E-06 40906   0.348E-03
  866 T=  2632. E= -.38786020E+03 F= -.40521147E+03 E0= -.39606793E+03  EK= 0.17351E+02 SP= 0.00E+00 SK= 0.00E+00
       N       E                     dE             d eps       ncg     rms          rms(c)
RMM:   1    -0.405198963145E+03    0.12506E-01   -0.29029E-02 70700   0.177E-01    0.134E-01
RMM:   2    -0.405198292058E+03    0.67109E-03   -0.93626E-04 70700   0.541E-02    0.167E-02
RMM:   3    -0.405198289079E+03    0.29788E-05   -0.17836E-05 50608   0.602E-03    0.503E-03
RMM:   4    -0.405198289367E+03   -0.28761E-06   -0.27866E-06 40905   0.349E-03
  867 T=  2630. E= -.38785973E+03 F= -.40519829E+03 E0= -.39605892E+03  EK= 0.17339E+02 SP= 0.00E+00 SK= 0.00E+00
       N       E                     dE             d eps       ncg     rms          rms(c)
RMM:   1    -0.405202626292E+03   -0.43372E-02   -0.29172E-02 70700   0.177E-01    0.133E-01
RMM:   2    -0.405201962914E+03    0.66338E-03   -0.93592E-04 70700   0.544E-02    0.162E-02
RMM:   3    -0.405201960444E+03    0.24691E-05   -0.18175E-05 50883   0.598E-03    0.531E-03
RMM:   4    -0.405201960758E+03   -0.31359E-06   -0.27642E-06 40919   0.346E-03
  868 T=  2631. E= -.38785910E+03 F= -.40520196E+03 E0= -.39606593E+03  EK= 0.17343E+02 SP= 0.00E+00 SK= 0.00E+00
       N       E                     dE             d eps       ncg     rms          rms(c)
RMM:   1    -0.405223265733E+03   -0.21305E-01   -0.28897E-02 70700   0.177E-01    0.132E-01
RMM:   2    -0.405222603927E+03    0.66181E-03   -0.92552E-04 70700   0.542E-02    0.133E-02
RMM:   3    -0.405222602807E+03    0.11203E-05   -0.17804E-05 50639   0.587E-03    0.544E-03
RMM:   4    -0.405222603078E+03   -0.27124E-06   -0.26049E-06 40928   0.340E-03
  869 T=  2634. E= -.38785868E+03 F= -.40522260E+03 E0= -.39608923E+03  EK= 0.17364E+02 SP= 0.00E+00 SK= 0.00E+00
       N       E                     dE             d eps       ncg     rms          rms(c)
RMM:   1    -0.405261847434E+03   -0.39245E-01   -0.29194E-02 70700   0.178E-01    0.132E-01
RMM:   2    -0.405261190109E+03    0.65733E-03   -0.91704E-04 70700   0.539E-02    0.989E-03
RMM:   3    -0.405261190171E+03   -0.62770E-07   -0.17629E-05 50548   0.583E-03    0.687E-03
RMM:   4    -0.405261190048E+03    0.12350E-06   -0.27048E-06 40927   0.344E-03
  870 T=  2640. E= -.38785855E+03 F= -.40526119E+03 E0= -.39612981E+03  EK= 0.17403E+02 SP= 0.00E+00 SK= 0.00E+00
       N       E                     dE             d eps       ncg     rms          rms(c)
RMM:   1    -0.405317631910E+03   -0.56442E-01   -0.29962E-02 70700   0.179E-01    0.130E-01
RMM:   2    -0.405316988999E+03    0.64291E-03   -0.90968E-04 70700   0.541E-02    0.135E-02
RMM:   3    -0.405316987859E+03    0.11396E-05   -0.18583E-05 51046   0.593E-03    0.576E-03
RMM:   4    -0.405316988213E+03   -0.35405E-06   -0.26922E-06 40960   0.340E-03
  871 T=  2648. E= -.38785870E+03 F= -.40531699E+03 E0= -.39618712E+03  EK= 0.17458E+02 SP= 0.00E+00 SK= 0.00E+00
       N       E                     dE             d eps       ncg     rms          rms(c)
RMM:   1    -0.405389714180E+03   -0.72726E-01   -0.28934E-02 70700   0.176E-01    0.129E-01
RMM:   2    -0.405389080543E+03    0.63364E-03   -0.87082E-04 70700   0.528E-02    0.243E-02
RMM:   3    -0.405389073310E+03    0.72332E-05   -0.19635E-05 51790   0.633E-03    0.496E-03
RMM:   4    -0.405389073671E+03   -0.36050E-06   -0.28367E-06 40970   0.348E-03
  872 T=  2659. E= -.38785921E+03 F= -.40538907E+03 E0= -.39626044E+03  EK= 0.17530E+02 SP= 0.00E+00 SK= 0.00E+00
       N       E                     dE             d eps       ncg     rms          rms(c)
RMM:   1    -0.405475699878E+03   -0.86627E-01   -0.28472E-02 70700   0.175E-01    0.129E-01
RMM:   2    -0.405475058056E+03    0.64182E-03   -0.88789E-04 70700   0.532E-02    0.987E-03
RMM:   3    -0.405475058003E+03    0.53453E-07   -0.17172E-05 50182   0.568E-03    0.629E-03
RMM:   4    -0.405475058084E+03   -0.81356E-07   -0.25872E-06 40923   0.331E-03
  873 T=  2672. E= -.38785866E+03 F= -.40547506E+03 E0= -.39634755E+03  EK= 0.17616E+02 SP= 0.00E+00 SK= 0.00E+00
       N       E                     dE             d eps       ncg     rms          rms(c)
RMM:   1    -0.405576299177E+03   -0.10124E+00   -0.27535E-02 70700   0.172E-01    0.127E-01
RMM:   2    -0.405575667053E+03    0.63212E-03   -0.86851E-04 70700   0.526E-02    0.120E-02
RMM:   3    -0.405575666398E+03    0.65437E-06   -0.17497E-05 50457   0.581E-03    0.645E-03
RMM:   4    -0.405575666387E+03    0.10841E-07   -0.26360E-06 40917   0.344E-03
  874 T=  2687. E= -.38785904E+03 F= -.40557567E+03 E0= -.39644934E+03  EK= 0.17717E+02 SP= 0.00E+00 SK= 0.00E+00
       N       E                     dE             d eps       ncg     rms          rms(c)
RMM:   1    -0.405687957682E+03   -0.11229E+00   -0.28305E-02 70700   0.175E-01    0.127E-01
RMM:   2    -0.405687324369E+03    0.63331E-03   -0.88234E-04 70700   0.530E-02    0.115E-02
RMM:   3    -0.405687323994E+03    0.37528E-06   -0.17019E-05 50105   0.574E-03    0.714E-03
RMM:   4    -0.405687324039E+03   -0.44882E-07   -0.28764E-06 40909   0.355E-03
  875 T=  2704. E= -.38785919E+03 F= -.40568732E+03 E0= -.39656247E+03  EK= 0.17828E+02 SP= 0.00E+00 SK= 0.00E+00
       N       E                     dE             d eps       ncg     rms          rms(c)
RMM:   1    -0.405807430931E+03   -0.12011E+00   -0.27418E-02 70700   0.173E-01    0.124E-01
RMM:   2    -0.405806815311E+03    0.61562E-03   -0.83686E-04 70700   0.516E-02    0.979E-03
RMM:   3    -0.405806815469E+03   -0.15798E-06   -0.16636E-05 49742   0.559E-03    0.714E-03
RMM:   4    -0.405806815375E+03    0.93907E-07   -0.25499E-06 40894   0.330E-03
  876 T=  2723. E= -.38785858E+03 F= -.40580682E+03 E0= -.39668392E+03  EK= 0.17948E+02 SP= 0.00E+00 SK= 0.00E+00
       N       E                     dE             d eps       ncg     rms          rms(c)
RMM:   1    -0.405934997410E+03   -0.12818E+00   -0.27173E-02 70700   0.172E-01    0.124E-01
RMM:   2    -0.405934384403E+03    0.61301E-03   -0.83035E-04 70700   0.518E-02    0.162E-02
RMM:   3    -0.405934382047E+03    0.23558E-05   -0.17413E-05 50287   0.588E-03    0.717E-03
RMM:   4    -0.405934381878E+03    0.16926E-06   -0.29220E-06 40945   0.353E-03
  877 T=  2742. E= -.38785801E+03 F= -.40593438E+03 E0= -.39681403E+03  EK= 0.18076E+02 SP= 0.00E+00 SK= 0.00E+00
       N       E                     dE             d eps       ncg     rms          rms(c)
RMM:   1    -0.406068487627E+03   -0.13411E+00   -0.26828E-02 70700   0.172E-01    0.122E-01
RMM:   2    -0.406067882362E+03    0.60526E-03   -0.81449E-04 70700   0.512E-02    0.205E-02
RMM:   3    -0.406067877520E+03    0.48419E-05   -0.18387E-05 51023   0.611E-03    0.570E-03
RMM:   4    -0.406067877835E+03   -0.31423E-06   -0.29077E-06 40968   0.353E-03
  878 T=  2762. E= -.38785823E+03 F= -.40606788E+03 E0= -.39695077E+03  EK= 0.18210E+02 SP= 0.00E+00 SK= 0.00E+00
       N       E                     dE             d eps       ncg     rms          rms(c)
RMM:   1    -0.406203829322E+03   -0.13595E+00   -0.26743E-02 70700   0.172E-01    0.124E-01
RMM:   2    -0.406203214441E+03    0.61488E-03   -0.82426E-04 70700   0.514E-02    0.162E-02
RMM:   3    -0.406203211963E+03    0.24776E-05   -0.17434E-05 50441   0.586E-03    0.497E-03
RMM:   4    -0.406203212387E+03   -0.42370E-06   -0.26404E-06 40903   0.343E-03
  879 T=  2783. E= -.38785808E+03 F= -.40620321E+03 E0= -.39709013E+03  EK= 0.18345E+02 SP= 0.00E+00 SK= 0.00E+00
       N       E                     dE             d eps       ncg     rms          rms(c)
RMM:   1    -0.406341913165E+03   -0.13870E+00   -0.27420E-02 70700   0.174E-01    0.121E-01
RMM:   2    -0.406341318160E+03    0.59500E-03   -0.83690E-04 70700   0.523E-02    0.209E-02
RMM:   3    -0.406341313504E+03    0.46564E-05   -0.17489E-05 50389   0.593E-03    0.667E-03
RMM:   4    -0.406341313877E+03   -0.37305E-06   -0.30650E-06 40923   0.363E-03
  880 T=  2804. E= -.38785797E+03 F= -.40634131E+03 E0= -.39723309E+03  EK= 0.18483E+02 SP= 0.00E+00 SK= 0.00E+00
       N       E                     dE             d eps       ncg     rms          rms(c)
RMM:   1    -0.406480105860E+03   -0.13879E+00   -0.25850E-02 70700   0.169E-01    0.120E-01
RMM:   2    -0.406479512452E+03    0.59341E-03   -0.78949E-04 70700   0.502E-02    0.170E-02
RMM:   3    -0.406479509381E+03    0.30707E-05   -0.16905E-05 50026   0.581E-03    0.574E-03
RMM:   4    -0.406479509631E+03   -0.24944E-06   -0.28584E-06 40855   0.353E-03
  881 T=  2825. E= -.38785808E+03 F= -.40647951E+03 E0= -.39737686E+03  EK= 0.18621E+02 SP= 0.00E+00 SK= 0.00E+00
       N       E                     dE             d eps       ncg     rms          rms(c)
RMM:   1    -0.406613522228E+03   -0.13401E+00   -0.26350E-02 70700   0.171E-01    0.119E-01
RMM:   2    -0.406612935131E+03    0.58710E-03   -0.79370E-04 70700   0.504E-02    0.197E-02
RMM:   3    -0.406612930658E+03    0.44727E-05   -0.17437E-05 50307   0.592E-03    0.531E-03
RMM:   4    -0.406612931128E+03   -0.46994E-06   -0.28524E-06 40893   0.350E-03
  882 T=  2845. E= -.38785732E+03 F= -.40661293E+03 E0= -.39751669E+03  EK= 0.18756E+02 SP= 0.00E+00 SK= 0.00E+00
       N       E                     dE             d eps       ncg     rms          rms(c)
RMM:   1    -0.406741748151E+03   -0.12882E+00   -0.27255E-02 70700   0.172E-01    0.118E-01
RMM:   2    -0.406741166618E+03    0.58153E-03   -0.80110E-04 70700   0.511E-02    0.162E-02
RMM:   3    -0.406741163972E+03    0.26466E-05   -0.17428E-05 50149   0.585E-03    0.554E-03
RMM:   4    -0.406741164326E+03   -0.35463E-06   -0.28165E-06 40923   0.351E-03
  883 T=  2865. E= -.38785718E+03 F= -.40674116E+03 E0= -.39765192E+03  EK= 0.18884E+02 SP= 0.00E+00 SK= 0.00E+00
       N       E                     dE             d eps       ncg     rms          rms(c)
RMM:   1    -0.406861578844E+03   -0.12041E+00   -0.26945E-02 70700   0.172E-01    0.118E-01
RMM:   2    -0.406860993333E+03    0.58551E-03   -0.80532E-04 70700   0.512E-02    0.126E-02
RMM:   3    -0.406860992456E+03    0.87717E-06   -0.17259E-05 50057   0.569E-03    0.638E-03
RMM:   4    -0.406860992561E+03   -0.10527E-06   -0.26958E-06 40866   0.345E-03
  884 T=  2883. E= -.38785707E+03 F= -.40686099E+03 E0= -.39777930E+03  EK= 0.19004E+02 SP= 0.00E+00 SK= 0.00E+00
       N       E                     dE             d eps       ncg     rms          rms(c)
RMM:   1    -0.406969367882E+03   -0.10838E+00   -0.27504E-02 70700   0.175E-01    0.118E-01
RMM:   2    -0.406968786979E+03    0.58090E-03   -0.80769E-04 70700   0.514E-02    0.994E-03
RMM:   3    -0.406968787229E+03   -0.24941E-06   -0.17258E-05 49991   0.570E-03    0.723E-03
RMM:   4    -0.406968787325E+03   -0.95977E-07   -0.28060E-06 40858   0.345E-03
  885 T=  2899. E= -.38785584E+03 F= -.40696879E+03 E0= -.39789501E+03  EK= 0.19113E+02 SP= 0.00E+00 SK= 0.00E+00
       N       E                     dE             d eps       ncg     rms          rms(c)
RMM:   1    -0.407065330711E+03   -0.96543E-01   -0.26508E-02 70700   0.172E-01    0.115E-01
RMM:   2    -0.407064768263E+03    0.56245E-03   -0.76952E-04 70700   0.506E-02    0.992E-03
RMM:   3    -0.407064768464E+03   -0.20099E-06   -0.17679E-05 50380   0.576E-03    0.733E-03
RMM:   4    -0.407064768393E+03    0.70962E-07   -0.27496E-06 40878   0.342E-03
  886 T=  2914. E= -.38785634E+03 F= -.40706477E+03 E0= -.39799912E+03  EK= 0.19208E+02 SP= 0.00E+00 SK= 0.00E+00
       N       E                     dE             d eps       ncg     rms          rms(c)
RMM:   1    -0.407145200029E+03   -0.80432E-01   -0.27591E-02 70700   0.175E-01    0.115E-01
RMM:   2    -0.407144639852E+03    0.56018E-03   -0.77332E-04 70700   0.505E-02    0.136E-02
RMM:   3    -0.407144638425E+03    0.14268E-05   -0.17694E-05 50462   0.579E-03    0.628E-03
RMM:   4    -0.407144638554E+03   -0.12907E-06   -0.27833E-06 40942   0.343E-03
  887 T=  2926. E= -.38785690E+03 F= -.40714464E+03 E0= -.39808718E+03  EK= 0.19288E+02 SP= 0.00E+00 SK= 0.00E+00
       N       E                     dE             d eps       ncg     rms          rms(c)
RMM:   1    -0.407206425653E+03   -0.61787E-01   -0.28138E-02 70700   0.177E-01    0.114E-01
RMM:   2    -0.407205866749E+03    0.55890E-03   -0.79614E-04 70700   0.516E-02    0.865E-03
RMM:   3    -0.407205867396E+03   -0.64658E-06   -0.17549E-05 50235   0.568E-03    0.737E-03
RMM:   4    -0.407205867349E+03    0.46315E-07   -0.27920E-06 40921   0.343E-03
  888 T=  2935. E= -.38785642E+03 F= -.40720587E+03 E0= -.39815658E+03  EK= 0.19349E+02 SP= 0.00E+00 SK= 0.00E+00
       N       E                     dE             d eps       ncg     rms          rms(c)
RMM:   1    -0.407247834858E+03   -0.41967E-01   -0.29271E-02 70700   0.180E-01    0.113E-01
RMM:   2    -0.407247283245E+03    0.55161E-03   -0.82554E-04 70700   0.529E-02    0.146E-02
RMM:   3    -0.407247282145E+03    0.11007E-05   -0.17737E-05 50445   0.574E-03    0.789E-03
RMM:   4    -0.407247281963E+03    0.18123E-06   -0.28432E-06 40924   0.350E-03
  889 T=  2941. E= -.38785605E+03 F= -.40724728E+03 E0= -.39820603E+03  EK= 0.19391E+02 SP= 0.00E+00 SK= 0.00E+00
       N       E                     dE             d eps       ncg     rms          rms(c)
RMM:   1    -0.407268162876E+03   -0.20881E-01   -0.29916E-02 70700   0.180E-01    0.114E-01
RMM:   2    -0.407267610538E+03    0.55234E-03   -0.83326E-04 70700   0.533E-02    0.915E-03
RMM:   3    -0.407267611179E+03   -0.64094E-06   -0.17644E-05 50228   0.562E-03    0.773E-03
RMM:   4    -0.407267611113E+03    0.65891E-07   -0.28525E-06 40898   0.345E-03
  890 T=  2945. E= -.38785633E+03 F= -.40726761E+03 E0= -.39823418E+03  EK= 0.19411E+02 SP= 0.00E+00 SK= 0.00E+00
       N       E                     dE             d eps       ncg     rms          rms(c)
RMM:   1    -0.407264864309E+03    0.27469E-02   -0.29564E-02 70700   0.179E-01    0.111E-01
RMM:   2    -0.407264331017E+03    0.53329E-03   -0.79825E-04 70700   0.522E-02    0.967E-03
RMM:   3    -0.407264331520E+03   -0.50386E-06   -0.17938E-05 50364   0.567E-03    0.740E-03
RMM:   4    -0.407264331325E+03    0.19508E-06   -0.26844E-06 40872   0.334E-03
  891 T=  2944. E= -.38785691E+03 F= -.40726433E+03 E0= -.39823854E+03  EK= 0.19407E+02 SP= 0.00E+00 SK= 0.00E+00
       N       E                     dE             d eps       ncg     rms          rms(c)
RMM:   1    -0.407234016071E+03    0.30315E-01   -0.28824E-02 70700   0.179E-01    0.110E-01
RMM:   2    -0.407233495409E+03    0.52066E-03   -0.78541E-04 70700   0.517E-02    0.215E-02
RMM:   3    -0.407233489721E+03    0.56880E-05   -0.18626E-05 51075   0.604E-03    0.505E-03
RMM:   4    -0.407233490204E+03   -0.48324E-06   -0.28808E-06 40921   0.354E-03
  892 T=  2939. E= -.38785619E+03 F= -.40723349E+03 E0= -.39821517E+03  EK= 0.19377E+02 SP= 0.00E+00 SK= 0.00E+00
       N       E                     dE             d eps       ncg     rms          rms(c)
RMM:   1    -0.407178056233E+03    0.55433E-01   -0.28043E-02 70700   0.176E-01    0.111E-01
RMM:   2    -0.407177528079E+03    0.52815E-03   -0.78845E-04 70700   0.522E-02    0.167E-02
RMM:   3    -0.407177525350E+03    0.27286E-05   -0.17815E-05 50159   0.576E-03    0.557E-03
RMM:   4    -0.407177525592E+03   -0.24205E-06   -0.27440E-06 40945   0.340E-03
  893 T=  2931. E= -.38785595E+03 F= -.40717753E+03 E0= -.39816659E+03  EK= 0.19322E+02 SP= 0.00E+00 SK= 0.00E+00
       N       E                     dE             d eps       ncg     rms          rms(c)
RMM:   1    -0.407096804586E+03    0.80721E-01   -0.27548E-02 70700   0.174E-01    0.109E-01
RMM:   2    -0.407096280500E+03    0.52409E-03   -0.79167E-04 70700   0.522E-02    0.122E-02
RMM:   3    -0.407096279958E+03    0.54173E-06   -0.17391E-05 49943   0.563E-03    0.589E-03
RMM:   4    -0.407096280085E+03   -0.12687E-06   -0.26887E-06 40854   0.339E-03
  894 T=  2919. E= -.38785552E+03 F= -.40709628E+03 E0= -.39809264E+03  EK= 0.19241E+02 SP= 0.00E+00 SK= 0.00E+00
       N       E                     dE             d eps       ncg     rms          rms(c)
RMM:   1    -0.406992228412E+03    0.10405E+00   -0.29565E-02 70700   0.179E-01    0.109E-01
RMM:   2    -0.406991715886E+03    0.51253E-03   -0.82515E-04 70700   0.538E-02    0.120E-02
RMM:   3    -0.406991715776E+03    0.10942E-06   -0.17824E-05 50387   0.565E-03    0.761E-03
RMM:   4    -0.406991715656E+03    0.12016E-06   -0.29291E-06 40928   0.349E-03
  895 T=  2903. E= -.38785441E+03 F= -.40699172E+03 E0= -.39799539E+03  EK= 0.19137E+02 SP= 0.00E+00 SK= 0.00E+00
       N       E                     dE             d eps       ncg     rms          rms(c)
RMM:   1    -0.406869542093E+03    0.12217E+00   -0.30282E-02 70700   0.180E-01    0.107E-01
RMM:   2    -0.406869050588E+03    0.49150E-03   -0.81674E-04 70700   0.540E-02    0.147E-02
RMM:   3    -0.406869048991E+03    0.15973E-05   -0.18266E-05 50372   0.570E-03    0.568E-03
RMM:   4    -0.406869049274E+03   -0.28254E-06   -0.26820E-06 40900   0.335E-03
  896 T=  2884. E= -.38785472E+03 F= -.40686905E+03 E0= -.39788012E+03  EK= 0.19014E+02 SP= 0.00E+00 SK= 0.00E+00
       N       E                     dE             d eps       ncg     rms          rms(c)
RMM:   1    -0.406728378355E+03    0.14067E+00   -0.30170E-02 70700   0.181E-01    0.106E-01
RMM:   2    -0.406727893173E+03    0.48518E-03   -0.78415E-04 70700   0.528E-02    0.143E-02
RMM:   3    -0.406727891801E+03    0.13712E-05   -0.19028E-05 51037   0.585E-03    0.617E-03
RMM:   4    -0.406727891866E+03   -0.64640E-07   -0.27930E-06 40941   0.340E-03
  897 T=  2863. E= -.38785401E+03 F= -.40672789E+03 E0= -.39774644E+03  EK= 0.18874E+02 SP= 0.00E+00 SK= 0.00E+00
       N       E                     dE             d eps       ncg     rms          rms(c)
RMM:   1    -0.406572008510E+03    0.15588E+00   -0.30204E-02 70700   0.182E-01    0.105E-01
RMM:   2    -0.406571540569E+03    0.46794E-03   -0.78481E-04 70700   0.532E-02    0.155E-02
RMM:   3    -0.406571538738E+03    0.18312E-05   -0.19381E-05 51276   0.597E-03    0.720E-03
RMM:   4    -0.406571538660E+03    0.77875E-07   -0.31638E-06 40954   0.364E-03
  898 T=  2839. E= -.38785297E+03 F= -.40657154E+03 E0= -.39759768E+03  EK= 0.18719E+02 SP= 0.00E+00 SK= 0.00E+00
       N       E                     dE             d eps       ncg     rms          rms(c)
RMM:   1    -0.406407359570E+03    0.16418E+00   -0.30583E-02 70700   0.182E-01    0.103E-01
RMM:   2    -0.406406904039E+03    0.45553E-03   -0.78691E-04 70700   0.539E-02    0.149E-02
RMM:   3    -0.406406902374E+03    0.16652E-05   -0.18809E-05 51005   0.579E-03    0.540E-03
