       N       E                     dE             d eps       ncg     rms          rms(c)
RMM:   1     0.136790547019E+05    0.13679E+05   -0.47218E+05 25080   0.725E+02
RMM:   2     0.131328080868E+04   -0.12366E+05   -0.13120E+05 25080   0.260E+02
RMM:   3    -0.104567187318E+04   -0.23590E+04   -0.22855E+04 25080   0.111E+02
RMM:   4    -0.184599845981E+04   -0.80033E+03   -0.57409E+03 25080   0.768E+01
RMM:   5    -0.212910944283E+04   -0.28311E+03   -0.24896E+03 25080   0.451E+01
RMM:   6    -0.227483031988E+04   -0.14572E+03   -0.12952E+03 25080   0.349E+01
RMM:   7    -0.235269573642E+04   -0.77865E+02   -0.73855E+02 25080   0.235E+01
RMM:   8    -0.240019507037E+04   -0.47499E+02   -0.44557E+02 25080   0.195E+01
RMM:   9    -0.247909125612E+04   -0.78896E+02   -0.77976E+02 71879   0.137E+01
RMM:  10    -0.248864506896E+04   -0.95538E+01   -0.11977E+02 79678   0.283E+00
RMM:  11    -0.249088428023E+04   -0.22392E+01   -0.17826E+01 77266   0.686E-01
RMM:  12    -0.249119187473E+04   -0.30759E+00   -0.19939E+00 79575   0.198E-01    0.782E+01
RMM:  13    -0.241372388673E+04    0.77468E+02   -0.68518E+02 57162   0.246E+01    0.584E+01
RMM:  14    -0.236776574698E+04    0.45958E+02   -0.34120E+02 51442   0.174E+01    0.416E+01
RMM:  15    -0.233568118616E+04    0.32085E+02   -0.11859E+02 53317   0.101E+01    0.255E+01
RMM:  16    -0.232135755358E+04    0.14324E+02   -0.25875E+01 56017   0.435E+00    0.457E+00
RMM:  17    -0.232157661525E+04   -0.21906E+00   -0.65265E+00 74057   0.128E+00    0.455E+00
RMM:  18    -0.232113646058E+04    0.44015E+00   -0.11764E+00 64423   0.714E-01    0.338E+00
RMM:  19    -0.232076396395E+04    0.37250E+00   -0.67684E-01 59642   0.773E-01    0.177E+00
RMM:  20    -0.232071370259E+04    0.50261E-01   -0.25350E-01 65758   0.331E-01    0.167E+00
RMM:  21    -0.232065944645E+04    0.54256E-01   -0.12777E-01 61439   0.271E-01    0.118E+00
RMM:  22    -0.232063876699E+04    0.20679E-01   -0.53248E-02 62040   0.163E-01    0.814E-01
RMM:  23    -0.232062984172E+04    0.89253E-02   -0.14914E-02 66111   0.766E-02    0.493E-01
RMM:  24    -0.232062640071E+04    0.34410E-02   -0.10098E-02 61945   0.748E-02    0.262E-01
RMM:  25    -0.232062692787E+04   -0.52716E-03   -0.11521E-02 66882   0.720E-02    0.245E-01
RMM:  26    -0.232062731443E+04   -0.38656E-03   -0.42667E-03 71674   0.376E-02    0.260E-01
RMM:  27    -0.232062655847E+04    0.75596E-03   -0.64241E-04 60787   0.185E-02    0.188E-01
RMM:  28    -0.232062594667E+04    0.61180E-03   -0.81149E-04 61783   0.215E-02    0.918E-02
RMM:  29    -0.232062578130E+04    0.16537E-03   -0.72787E-04 68246   0.183E-02    0.280E-02
RMM:  30    -0.232062576610E+04    0.15200E-04   -0.14583E-04 72445   0.660E-03
   1 F= -.23206258E+04 E0= -.23206257E+04  d E =-.234160E-03
