 256 256   0   0
  0.1418917E+02  0.1588033E-08  0.1692661E-08  0.1693229E-08  0.5000000E-15
  1.000000000000000E-004
  CAR 
 Ir_Ru                                   
     14.25914970     -1.29123804  301      9.45685239      1.00000000
     -1.291  0.0000E+00  0.0000E+00
     -1.239  0.0000E+00  0.0000E+00
     -1.188  0.0000E+00  0.0000E+00
     -1.136 -0.2719E-30 -0.1409E-31
     -1.084 -0.1237E-26 -0.6411E-28
     -1.032 -0.3273E-23 -0.1697E-24
     -0.980 -0.5037E-20 -0.2613E-21
     -0.928 -0.4503E-17 -0.2337E-18
     -0.877 -0.2277E-14 -0.1183E-15
     -0.825 -0.6786E-12 -0.3529E-13
     -0.773 -0.1172E-09 -0.6110E-11
     -0.721 -0.1166E-07 -0.6104E-09
     -0.669 -0.6653E-06 -0.3510E-07
     -0.617 -0.2166E-04 -0.1158E-05
     -0.566 -0.3994E-03 -0.2186E-04
     -0.514 -0.4130E-02 -0.2359E-03
     -0.462 -0.2370E-01 -0.1465E-02
     -0.410 -0.7406E-01 -0.5303E-02
     -0.358 -0.1028E+00 -0.1063E-01
     -0.306  0.1916E+00 -0.6996E-03
     -0.255  0.1591E+01  0.8179E-01
     -0.203  0.4334E+01  0.3064E+00
     -0.151  0.6334E+01  0.6348E+00
     -0.099  0.6425E+01  0.9678E+00
     -0.047  0.6925E+01  0.1327E+01
      0.005  0.8795E+01  0.1783E+01
      0.056  0.1110E+02  0.2358E+01
      0.108  0.1354E+02  0.3060E+01
      0.160  0.1437E+02  0.3805E+01
      0.212  0.1181E+02  0.4417E+01
      0.264  0.1002E+02  0.4937E+01
      0.316  0.1403E+02  0.5664E+01
      0.367  0.2016E+02  0.6709E+01
      0.419  0.2247E+02  0.7874E+01
      0.471  0.2263E+02  0.9047E+01
      0.523  0.2345E+02  0.1026E+02
      0.575  0.2261E+02  0.1143E+02
      0.627  0.2045E+02  0.1249E+02
      0.678  0.2088E+02  0.1358E+02
      0.730  0.2054E+02  0.1464E+02
      0.782  0.1501E+02  0.1542E+02
      0.834  0.9115E+01  0.1589E+02
      0.886  0.8004E+01  0.1631E+02
      0.938  0.1149E+02  0.1690E+02
      0.989  0.1849E+02  0.1786E+02
      1.041  0.2743E+02  0.1928E+02
      1.093  0.3324E+02  0.2101E+02
      1.145  0.3321E+02  0.2273E+02
      1.197  0.2907E+02  0.2423E+02
      1.249  0.2311E+02  0.2543E+02
      1.300  0.1956E+02  0.2645E+02
      1.352  0.2147E+02  0.2756E+02
      1.404  0.2688E+02  0.2895E+02
      1.456  0.3028E+02  0.3052E+02
      1.508  0.2991E+02  0.3207E+02
      1.560  0.2935E+02  0.3359E+02
      1.612  0.3036E+02  0.3517E+02
      1.663  0.3108E+02  0.3678E+02
      1.715  0.3192E+02  0.3843E+02
      1.767  0.3482E+02  0.4024E+02
      1.819  0.3881E+02  0.4225E+02
      1.871  0.4491E+02  0.4458E+02
      1.923  0.5403E+02  0.4738E+02
      1.974  0.5934E+02  0.5045E+02
      2.026  0.5528E+02  0.5332E+02
      2.078  0.5045E+02  0.5593E+02
      2.130  0.6015E+02  0.5905E+02
      2.182  0.8490E+02  0.6345E+02
      2.234  0.1075E+03  0.6903E+02
      2.285  0.1191E+03  0.7520E+02
      2.337  0.1253E+03  0.8170E+02
      2.389  0.1310E+03  0.8848E+02
      2.441  0.1369E+03  0.9558E+02
      2.493  0.1461E+03  0.1032E+03
      2.545  0.1627E+03  0.1116E+03
      2.596  0.1815E+03  0.1210E+03
      2.648  0.1940E+03  0.1310E+03
      2.700  0.2053E+03  0.1417E+03
      2.752  0.2221E+03  0.1532E+03
      2.804  0.2309E+03  0.1652E+03
      2.856  0.2254E+03  0.1768E+03
      2.907  0.2269E+03  0.1886E+03
      2.959  0.2437E+03  0.2012E+03
      3.011  0.2575E+03  0.2146E+03
      3.063  0.2602E+03  0.2281E+03
      3.115  0.2605E+03  0.2416E+03
      3.167  0.2635E+03  0.2552E+03
      3.218  0.2719E+03  0.2693E+03
      3.270  0.2867E+03  0.2842E+03
      3.322  0.3060E+03  0.3001E+03
      3.374  0.3236E+03  0.3168E+03
      3.426  0.3310E+03  0.3340E+03
      3.478  0.3286E+03  0.3510E+03
      3.529  0.3222E+03  0.3677E+03
      3.581  0.3185E+03  0.3842E+03
      3.633  0.3170E+03  0.4007E+03
      3.685  0.3117E+03  0.4168E+03
      3.737  0.3056E+03  0.4327E+03
      3.789  0.3014E+03  0.4483E+03
      3.840  0.2972E+03  0.4637E+03
      3.892  0.2936E+03  0.4789E+03
      3.944  0.2894E+03  0.4939E+03
      3.996  0.2776E+03  0.5083E+03
      4.048  0.2666E+03  0.5221E+03
      4.100  0.2736E+03  0.5363E+03
      4.151  0.2923E+03  0.5514E+03
      4.203  0.3026E+03  0.5671E+03
      4.255  0.3051E+03  0.5830E+03
      4.307  0.3115E+03  0.5991E+03
      4.359  0.3184E+03  0.6156E+03
      4.411  0.3211E+03  0.6322E+03
      4.462  0.3235E+03  0.6490E+03
      4.514  0.3219E+03  0.6657E+03
      4.566  0.3112E+03  0.6818E+03
      4.618  0.2983E+03  0.6973E+03
      4.670  0.2934E+03  0.7125E+03
      4.722  0.2974E+03  0.7279E+03
      4.773  0.3049E+03  0.7437E+03
      4.825  0.3162E+03  0.7601E+03
      4.877  0.3300E+03  0.7772E+03
      4.929  0.3371E+03  0.7947E+03
      4.981  0.3438E+03  0.8125E+03
      5.033  0.3569E+03  0.8310E+03
      5.084  0.3654E+03  0.8499E+03
      5.136  0.3649E+03  0.8689E+03
      5.188  0.3567E+03  0.8873E+03
      5.240  0.3378E+03  0.9049E+03
      5.292  0.3070E+03  0.9208E+03
      5.344  0.2669E+03  0.9346E+03
      5.395  0.2233E+03  0.9462E+03
      5.447  0.1875E+03  0.9559E+03
      5.499  0.1724E+03  0.9648E+03
      5.551  0.1855E+03  0.9744E+03
      5.603  0.2217E+03  0.9859E+03
      5.655  0.2693E+03  0.9999E+03
      5.706  0.3195E+03  0.1016E+04
      5.758  0.3628E+03  0.1035E+04
      5.810  0.3921E+03  0.1056E+04
      5.862  0.4087E+03  0.1077E+04
      5.914  0.4182E+03  0.1098E+04
      5.966  0.4248E+03  0.1120E+04
      6.017  0.4281E+03  0.1143E+04
      6.069  0.4189E+03  0.1164E+04
      6.121  0.3955E+03  0.1185E+04
      6.173  0.3742E+03  0.1204E+04
      6.225  0.3624E+03  0.1223E+04
      6.277  0.3559E+03  0.1242E+04
      6.328  0.3555E+03  0.1260E+04
      6.380  0.3669E+03  0.1279E+04
      6.432  0.3809E+03  0.1299E+04
      6.484  0.3842E+03  0.1319E+04
      6.536  0.3895E+03  0.1339E+04
      6.588  0.4070E+03  0.1360E+04
      6.639  0.4228E+03  0.1382E+04
      6.691  0.4284E+03  0.1404E+04
      6.743  0.4265E+03  0.1426E+04
      6.795  0.4159E+03  0.1448E+04
      6.847  0.3955E+03  0.1468E+04
      6.899  0.3755E+03  0.1488E+04
      6.950  0.3670E+03  0.1507E+04
      7.002  0.3640E+03  0.1526E+04
      7.054  0.3660E+03  0.1545E+04
      7.106  0.3864E+03  0.1565E+04
      7.158  0.4120E+03  0.1586E+04
      7.210  0.4219E+03  0.1608E+04
      7.261  0.4228E+03  0.1630E+04
      7.313  0.4161E+03  0.1651E+04
      7.365  0.3931E+03  0.1672E+04
      7.417  0.3633E+03  0.1690E+04
      7.469  0.3425E+03  0.1708E+04
      7.521  0.3333E+03  0.1725E+04
      7.572  0.3295E+03  0.1743E+04
      7.624  0.3198E+03  0.1759E+04
      7.676  0.2997E+03  0.1775E+04
      7.728  0.2801E+03  0.1789E+04
      7.780  0.2699E+03  0.1803E+04
      7.832  0.2646E+03  0.1817E+04
      7.883  0.2589E+03  0.1830E+04
      7.935  0.2501E+03  0.1843E+04
      7.987  0.2432E+03  0.1856E+04
      8.039  0.2432E+03  0.1868E+04
      8.091  0.2406E+03  0.1881E+04
      8.143  0.2327E+03  0.1893E+04
      8.194  0.2287E+03  0.1905E+04
      8.246  0.2322E+03  0.1917E+04
      8.298  0.2371E+03  0.1929E+04
      8.350  0.2391E+03  0.1942E+04
      8.402  0.2378E+03  0.1954E+04
      8.454  0.2307E+03  0.1966E+04
      8.506  0.2202E+03  0.1977E+04
      8.557  0.2129E+03  0.1988E+04
      8.609  0.2083E+03  0.1999E+04
      8.661  0.2014E+03  0.2010E+04
      8.713  0.1932E+03  0.2020E+04
      8.765  0.1847E+03  0.2029E+04
      8.817  0.1795E+03  0.2038E+04
      8.868  0.1850E+03  0.2048E+04
      8.920  0.2073E+03  0.2059E+04
      8.972  0.2324E+03  0.2071E+04
      9.024  0.2378E+03  0.2083E+04
      9.076  0.2266E+03  0.2095E+04
      9.128  0.2102E+03  0.2106E+04
      9.179  0.1909E+03  0.2116E+04
      9.231  0.1786E+03  0.2125E+04
      9.283  0.1914E+03  0.2135E+04
      9.335  0.2224E+03  0.2146E+04
      9.387  0.2418E+03  0.2159E+04
      9.439  0.2430E+03  0.2172E+04
      9.490  0.2443E+03  0.2184E+04
      9.542  0.2450E+03  0.2197E+04
      9.594  0.2443E+03  0.2210E+04
      9.646  0.2657E+03  0.2223E+04
      9.698  0.3091E+03  0.2239E+04
      9.750  0.3347E+03  0.2257E+04
      9.801  0.3293E+03  0.2274E+04
      9.853  0.3180E+03  0.2290E+04
      9.905  0.3149E+03  0.2307E+04
      9.957  0.3192E+03  0.2323E+04
     10.009  0.3365E+03  0.2341E+04
     10.061  0.3711E+03  0.2360E+04
     10.112  0.4069E+03  0.2381E+04
     10.164  0.4261E+03  0.2403E+04
     10.216  0.4341E+03  0.2425E+04
     10.268  0.4450E+03  0.2449E+04
     10.320  0.4622E+03  0.2473E+04
     10.372  0.4809E+03  0.2497E+04
     10.423  0.4931E+03  0.2523E+04
     10.475  0.4902E+03  0.2548E+04
     10.527  0.4605E+03  0.2572E+04
     10.579  0.4056E+03  0.2593E+04
     10.631  0.3408E+03  0.2611E+04
     10.683  0.2642E+03  0.2625E+04
     10.734  0.1678E+03  0.2633E+04
     10.786  0.7215E+02  0.2637E+04
     10.838  0.1238E+02  0.2638E+04
     10.890 -0.5225E+01  0.2637E+04
     10.942 -0.3745E+01  0.2637E+04
     10.994 -0.1009E+01  0.2637E+04
     11.045 -0.1528E+00  0.2637E+04
     11.097 -0.1474E-01  0.2637E+04
     11.149 -0.9617E-03  0.2637E+04
     11.201 -0.4235E-04  0.2637E+04
     11.253 -0.1201E-05  0.2637E+04
     11.305 -0.2091E-07  0.2637E+04
     11.356 -0.2168E-09  0.2637E+04
     11.408 -0.5617E-11  0.2637E+04
     11.460 -0.6582E-09  0.2637E+04
     11.512 -0.5784E-07  0.2637E+04
     11.564 -0.2900E-05  0.2637E+04
     11.616 -0.8205E-04  0.2637E+04
     11.667 -0.1285E-02  0.2637E+04
     11.719 -0.1070E-01  0.2637E+04
     11.771 -0.4239E-01  0.2637E+04
     11.823 -0.4036E-01  0.2637E+04
     11.875  0.2330E+00  0.2637E+04
     11.927  0.8615E+00  0.2637E+04
     11.978  0.1348E+01  0.2637E+04
     12.030  0.1268E+01  0.2637E+04
     12.082  0.9435E+00  0.2637E+04
     12.134  0.7744E+00  0.2637E+04
     12.186  0.8694E+00  0.2638E+04
     12.238  0.1912E+01  0.2638E+04
     12.289  0.3390E+01  0.2638E+04
     12.341  0.3476E+01  0.2638E+04
     12.393  0.2810E+01  0.2638E+04
     12.445  0.2436E+01  0.2638E+04
     12.497  0.1816E+01  0.2638E+04
     12.549  0.1518E+01  0.2638E+04
     12.600  0.2228E+01  0.2639E+04
     12.652  0.3368E+01  0.2639E+04
     12.704  0.4293E+01  0.2639E+04
     12.756  0.4035E+01  0.2639E+04
     12.808  0.2787E+01  0.2639E+04
     12.860  0.2286E+01  0.2639E+04
     12.911  0.2311E+01  0.2640E+04
     12.963  0.1742E+01  0.2640E+04
     13.015  0.1100E+01  0.2640E+04
     13.067  0.8628E+00  0.2640E+04
     13.119  0.6918E+00  0.2640E+04
     13.171  0.8310E+00  0.2640E+04
     13.222  0.1326E+01  0.2640E+04
     13.274  0.1373E+01  0.2640E+04
     13.326  0.7537E+00  0.2640E+04
     13.378  0.1384E+00  0.2640E+04
     13.430 -0.5718E-01  0.2640E+04
     13.482 -0.3491E-01  0.2640E+04
     13.533 -0.7275E-02  0.2640E+04
     13.585 -0.7533E-03  0.2640E+04
     13.637 -0.4210E-04  0.2640E+04
     13.689 -0.1311E-05  0.2640E+04
     13.741 -0.2314E-07  0.2640E+04
     13.793 -0.2334E-09  0.2640E+04
     13.844 -0.1354E-11  0.2640E+04
     13.896 -0.4760E-14  0.2640E+04
     13.948  0.0000E+00  0.2640E+04
     14.000  0.0000E+00  0.2640E+04
     14.052  0.0000E+00  0.2640E+04
     14.104  0.0000E+00  0.2640E+04
     14.155  0.0000E+00  0.2640E+04
     14.207  0.0000E+00  0.2640E+04
     14.259  0.0000E+00  0.2640E+04
