 256 256   0   0
  0.1418917E+02  0.1588033E-08  0.1692661E-08  0.1693229E-08  0.5000000E-15
  1.000000000000000E-004
  CAR 
 Ir_Ru                                   
     14.27406655     -1.29208677  301      9.45694937      1.00000000
     -1.292  0.0000E+00  0.0000E+00
     -1.240  0.0000E+00  0.0000E+00
     -1.188  0.0000E+00  0.0000E+00
     -1.136 -0.2789E-30 -0.1447E-31
     -1.085 -0.1277E-26 -0.6627E-28
     -1.033 -0.3399E-23 -0.1764E-24
     -0.981 -0.5253E-20 -0.2727E-21
     -0.929 -0.4712E-17 -0.2448E-18
     -0.877 -0.2391E-14 -0.1243E-15
     -0.825 -0.7123E-12 -0.3708E-13
     -0.773 -0.1230E-09 -0.6420E-11
     -0.721 -0.1222E-07 -0.6406E-09
     -0.669 -0.6958E-06 -0.3675E-07
     -0.618 -0.2257E-04 -0.1208E-05
     -0.566 -0.4142E-03 -0.2270E-04
     -0.514 -0.4257E-02 -0.2436E-03
     -0.462 -0.2426E-01 -0.1502E-02
     -0.410 -0.7511E-01 -0.5399E-02
     -0.358 -0.1021E+00 -0.1069E-01
     -0.306  0.2049E+00 -0.6368E-04
     -0.254  0.1637E+01  0.8486E-01
     -0.202  0.4395E+01  0.3129E+00
     -0.151  0.6353E+01  0.6426E+00
     -0.099  0.6423E+01  0.9758E+00
     -0.047  0.6961E+01  0.1337E+01
      0.005  0.8858E+01  0.1797E+01
      0.057  0.1118E+02  0.2377E+01
      0.109  0.1361E+02  0.3083E+01
      0.161  0.1434E+02  0.3827E+01
      0.213  0.1171E+02  0.4434E+01
      0.265  0.1007E+02  0.4957E+01
      0.316  0.1426E+02  0.5696E+01
      0.368  0.2033E+02  0.6751E+01
      0.420  0.2252E+02  0.7920E+01
      0.472  0.2272E+02  0.9098E+01
      0.524  0.2351E+02  0.1032E+02
      0.576  0.2251E+02  0.1149E+02
      0.628  0.2045E+02  0.1255E+02
      0.680  0.2102E+02  0.1364E+02
      0.732  0.2040E+02  0.1470E+02
      0.783  0.1461E+02  0.1545E+02
      0.835  0.8902E+01  0.1592E+02
      0.887  0.8073E+01  0.1634E+02
      0.939  0.1175E+02  0.1694E+02
      0.991  0.1895E+02  0.1793E+02
      1.043  0.2786E+02  0.1937E+02
      1.095  0.3330E+02  0.2110E+02
      1.147  0.3302E+02  0.2281E+02
      1.198  0.2881E+02  0.2431E+02
      1.250  0.2284E+02  0.2549E+02
      1.302  0.1948E+02  0.2651E+02
      1.354  0.2165E+02  0.2763E+02
      1.406  0.2712E+02  0.2904E+02
      1.458  0.3034E+02  0.3061E+02
      1.510  0.2985E+02  0.3216E+02
      1.562  0.2931E+02  0.3368E+02
      1.614  0.3037E+02  0.3526E+02
      1.665  0.3114E+02  0.3687E+02
      1.717  0.3208E+02  0.3854E+02
      1.769  0.3498E+02  0.4035E+02
      1.821  0.3896E+02  0.4237E+02
      1.873  0.4533E+02  0.4473E+02
      1.925  0.5457E+02  0.4756E+02
      1.977  0.5939E+02  0.5064E+02
      2.029  0.5489E+02  0.5349E+02
      2.081  0.5053E+02  0.5611E+02
      2.132  0.6135E+02  0.5929E+02
      2.184  0.8655E+02  0.6378E+02
      2.236  0.1085E+03  0.6941E+02
      2.288  0.1196E+03  0.7562E+02
      2.340  0.1256E+03  0.8214E+02
      2.392  0.1314E+03  0.8895E+02
      2.444  0.1374E+03  0.9608E+02
      2.496  0.1470E+03  0.1037E+03
      2.548  0.1642E+03  0.1122E+03
      2.599  0.1828E+03  0.1217E+03
      2.651  0.1948E+03  0.1318E+03
      2.703  0.2065E+03  0.1425E+03
      2.755  0.2235E+03  0.1541E+03
      2.807  0.2307E+03  0.1661E+03
      2.859  0.2245E+03  0.1778E+03
      2.911  0.2273E+03  0.1896E+03
      2.963  0.2449E+03  0.2023E+03
      3.015  0.2579E+03  0.2156E+03
      3.066  0.2600E+03  0.2291E+03
      3.118  0.2605E+03  0.2427E+03
      3.170  0.2641E+03  0.2564E+03
      3.222  0.2729E+03  0.2705E+03
      3.274  0.2878E+03  0.2854E+03
      3.326  0.3069E+03  0.3014E+03
      3.378  0.3240E+03  0.3182E+03
      3.430  0.3307E+03  0.3353E+03
      3.482  0.3279E+03  0.3524E+03
      3.533  0.3214E+03  0.3690E+03
      3.585  0.3182E+03  0.3855E+03
      3.637  0.3166E+03  0.4020E+03
      3.689  0.3110E+03  0.4181E+03
      3.741  0.3051E+03  0.4339E+03
      3.793  0.3012E+03  0.4496E+03
      3.845  0.2969E+03  0.4650E+03
      3.897  0.2933E+03  0.4802E+03
      3.949  0.2888E+03  0.4952E+03
      4.000  0.2766E+03  0.5095E+03
      4.052  0.2667E+03  0.5234E+03
      4.104  0.2754E+03  0.5377E+03
      4.156  0.2938E+03  0.5529E+03
      4.208  0.3025E+03  0.5686E+03
      4.260  0.3049E+03  0.5844E+03
      4.312  0.3119E+03  0.6006E+03
      4.364  0.3187E+03  0.6171E+03
      4.416  0.3212E+03  0.6338E+03
      4.467  0.3236E+03  0.6506E+03
      4.519  0.3212E+03  0.6673E+03
      4.571  0.3099E+03  0.6833E+03
      4.623  0.2973E+03  0.6988E+03
      4.675  0.2932E+03  0.7140E+03
      4.727  0.2978E+03  0.7294E+03
      4.779  0.3055E+03  0.7453E+03
      4.831  0.3174E+03  0.7618E+03
      4.882  0.3311E+03  0.7789E+03
      4.934  0.3376E+03  0.7965E+03
      4.986  0.3449E+03  0.8144E+03
      5.038  0.3581E+03  0.8329E+03
      5.090  0.3657E+03  0.8519E+03
      5.142  0.3645E+03  0.8708E+03
      5.194  0.3554E+03  0.8893E+03
      5.246  0.3351E+03  0.9067E+03
      5.298  0.3030E+03  0.9224E+03
      5.349  0.2621E+03  0.9360E+03
      5.401  0.2189E+03  0.9473E+03
      5.453  0.1847E+03  0.9569E+03
      5.505  0.1725E+03  0.9659E+03
      5.557  0.1888E+03  0.9757E+03
      5.609  0.2268E+03  0.9874E+03
      5.661  0.2752E+03  0.1002E+04
      5.713  0.3253E+03  0.1019E+04
      5.765  0.3673E+03  0.1038E+04
      5.816  0.3947E+03  0.1058E+04
      5.868  0.4100E+03  0.1079E+04
      5.920  0.4191E+03  0.1101E+04
      5.972  0.4258E+03  0.1123E+04
      6.024  0.4282E+03  0.1145E+04
      6.076  0.4166E+03  0.1167E+04
      6.128  0.3924E+03  0.1187E+04
      6.180  0.3721E+03  0.1207E+04
      6.232  0.3613E+03  0.1225E+04
      6.283  0.3555E+03  0.1244E+04
      6.335  0.3565E+03  0.1262E+04
      6.387  0.3689E+03  0.1282E+04
      6.439  0.3817E+03  0.1301E+04
      6.491  0.3842E+03  0.1321E+04
      6.543  0.3914E+03  0.1342E+04
      6.595  0.4096E+03  0.1363E+04
      6.647  0.4237E+03  0.1385E+04
      6.699  0.4279E+03  0.1407E+04
      6.750  0.4253E+03  0.1429E+04
      6.802  0.4137E+03  0.1451E+04
      6.854  0.3926E+03  0.1471E+04
      6.906  0.3737E+03  0.1490E+04
      6.958  0.3665E+03  0.1509E+04
      7.010  0.3636E+03  0.1528E+04
      7.062  0.3677E+03  0.1547E+04
      7.114  0.3907E+03  0.1568E+04
      7.166  0.4146E+03  0.1589E+04
      7.217  0.4223E+03  0.1611E+04
      7.269  0.4224E+03  0.1633E+04
      7.321  0.4137E+03  0.1654E+04
      7.373  0.3885E+03  0.1675E+04
      7.425  0.3593E+03  0.1693E+04
      7.477  0.3405E+03  0.1711E+04
      7.529  0.3328E+03  0.1728E+04
      7.581  0.3289E+03  0.1745E+04
      7.633  0.3174E+03  0.1762E+04
      7.684  0.2961E+03  0.1777E+04
      7.736  0.2778E+03  0.1791E+04
      7.788  0.2688E+03  0.1805E+04
      7.840  0.2637E+03  0.1819E+04
      7.892  0.2577E+03  0.1832E+04
      7.944  0.2486E+03  0.1845E+04
      7.996  0.2429E+03  0.1858E+04
      8.048  0.2432E+03  0.1871E+04
      8.099  0.2393E+03  0.1883E+04
      8.151  0.2315E+03  0.1895E+04
      8.203  0.2291E+03  0.1907E+04
      8.255  0.2333E+03  0.1919E+04
      8.307  0.2376E+03  0.1931E+04
      8.359  0.2391E+03  0.1944E+04
      8.411  0.2371E+03  0.1956E+04
      8.463  0.2290E+03  0.1968E+04
      8.515  0.2185E+03  0.1979E+04
      8.566  0.2121E+03  0.1990E+04
      8.618  0.2072E+03  0.2001E+04
      8.670  0.2001E+03  0.2011E+04
      8.722  0.1917E+03  0.2021E+04
      8.774  0.1834E+03  0.2031E+04
      8.826  0.1795E+03  0.2040E+04
      8.878  0.1877E+03  0.2050E+04
      8.930  0.2123E+03  0.2061E+04
      8.982  0.2351E+03  0.2073E+04
      9.033  0.2366E+03  0.2085E+04
      9.085  0.2240E+03  0.2097E+04
      9.137  0.2069E+03  0.2108E+04
      9.189  0.1874E+03  0.2117E+04
      9.241  0.1787E+03  0.2127E+04
      9.293  0.1967E+03  0.2137E+04
      9.345  0.2278E+03  0.2149E+04
      9.397  0.2429E+03  0.2161E+04
      9.449  0.2428E+03  0.2174E+04
      9.500  0.2448E+03  0.2187E+04
      9.552  0.2445E+03  0.2199E+04
      9.604  0.2462E+03  0.2212E+04
      9.656  0.2736E+03  0.2226E+04
      9.708  0.3167E+03  0.2243E+04
      9.760  0.3355E+03  0.2260E+04
      9.812  0.3266E+03  0.2277E+04
      9.864  0.3167E+03  0.2294E+04
      9.916  0.3153E+03  0.2310E+04
      9.967  0.3215E+03  0.2327E+04
     10.019  0.3424E+03  0.2344E+04
     10.071  0.3790E+03  0.2364E+04
     10.123  0.4125E+03  0.2385E+04
     10.175  0.4284E+03  0.2408E+04
     10.227  0.4360E+03  0.2430E+04
     10.279  0.4483E+03  0.2454E+04
     10.331  0.4664E+03  0.2478E+04
     10.383  0.4843E+03  0.2503E+04
     10.434  0.4942E+03  0.2528E+04
     10.486  0.4865E+03  0.2554E+04
     10.538  0.4504E+03  0.2577E+04
     10.590  0.3920E+03  0.2597E+04
     10.642  0.3251E+03  0.2614E+04
     10.694  0.2438E+03  0.2627E+04
     10.746  0.1441E+03  0.2634E+04
     10.798  0.5368E+02  0.2637E+04
     10.850  0.4899E+01  0.2637E+04
     10.901 -0.5587E+01  0.2637E+04
     10.953 -0.2855E+01  0.2637E+04
     11.005 -0.6630E+00  0.2637E+04
     11.057 -0.9456E-01  0.2637E+04
     11.109 -0.9559E-02  0.2637E+04
     11.161 -0.7465E-03  0.2637E+04
     11.213 -0.7953E-03  0.2637E+04
     11.265 -0.7137E-02  0.2637E+04
     11.316 -0.3181E-01  0.2637E+04
     11.368 -0.3550E-01  0.2637E+04
     11.420  0.1912E+00  0.2637E+04
     11.472  0.6985E+00  0.2637E+04
     11.524  0.8870E+00  0.2637E+04
     11.576  0.4624E+00  0.2637E+04
     11.628  0.4447E-01  0.2637E+04
     11.680 -0.4657E-01  0.2637E+04
     11.732 -0.2603E-01  0.2637E+04
     11.783 -0.4488E-01  0.2637E+04
     11.835 -0.9140E-01  0.2637E+04
     11.887  0.9641E-01  0.2637E+04
     11.939  0.9457E+00  0.2637E+04
     11.991  0.2096E+01  0.2637E+04
     12.043  0.2293E+01  0.2637E+04
     12.095  0.1501E+01  0.2637E+04
     12.147  0.9251E+00  0.2638E+04
     12.199  0.8200E+00  0.2638E+04
     12.250  0.1181E+01  0.2638E+04
     12.302  0.2197E+01  0.2638E+04
     12.354  0.3269E+01  0.2638E+04
     12.406  0.3462E+01  0.2638E+04
     12.458  0.2834E+01  0.2638E+04
     12.510  0.2301E+01  0.2638E+04
     12.562  0.2387E+01  0.2638E+04
     12.614  0.2725E+01  0.2639E+04
     12.666  0.2941E+01  0.2639E+04
     12.717  0.3448E+01  0.2639E+04
     12.769  0.3719E+01  0.2639E+04
     12.821  0.3085E+01  0.2639E+04
     12.873  0.2556E+01  0.2639E+04
     12.925  0.2346E+01  0.2640E+04
     12.977  0.1805E+01  0.2640E+04
     13.029  0.1272E+01  0.2640E+04
     13.081  0.9258E+00  0.2640E+04
     13.133  0.7181E+00  0.2640E+04
     13.184  0.9024E+00  0.2640E+04
     13.236  0.1186E+01  0.2640E+04
     13.288  0.1138E+01  0.2640E+04
     13.340  0.6771E+00  0.2640E+04
     13.392  0.1547E+00  0.2640E+04
     13.444 -0.4519E-01  0.2640E+04
     13.496 -0.3310E-01  0.2640E+04
     13.548 -0.7251E-02  0.2640E+04
     13.600 -0.7690E-03  0.2640E+04
     13.651 -0.4354E-04  0.2640E+04
     13.703 -0.1366E-05  0.2640E+04
     13.755 -0.2421E-07  0.2640E+04
     13.807 -0.2448E-09  0.2640E+04
     13.859 -0.1421E-11  0.2640E+04
     13.911 -0.4755E-14  0.2640E+04
     13.963  0.0000E+00  0.2640E+04
     14.015  0.0000E+00  0.2640E+04
     14.067  0.0000E+00  0.2640E+04
     14.118  0.0000E+00  0.2640E+04
     14.170  0.0000E+00  0.2640E+04
     14.222  0.0000E+00  0.2640E+04
     14.274  0.0000E+00  0.2640E+04
