       N       E                     dE             d eps       ncg     rms          rms(c)
DAV:   1     0.112830101323E+05    0.11283E+05   -0.55466E+05 95400   0.810E+02
DAV:   2    -0.143941172736E+04   -0.12722E+05   -0.12145E+05 95820   0.337E+02
DAV:   3    -0.241101359137E+04   -0.97160E+03   -0.89373E+03135200   0.780E+01
DAV:   4    -0.248224972295E+04   -0.71236E+02   -0.68801E+02131900   0.209E+01
DAV:   5    -0.248511688581E+04   -0.28672E+01   -0.28105E+01139940   0.332E+00    0.779E+01
RMM:   6    -0.241641772689E+04    0.68699E+02   -0.68054E+02105869   0.245E+01    0.623E+01
RMM:   7    -0.236999981630E+04    0.46418E+02   -0.35217E+02 97752   0.172E+01    0.455E+01
RMM:   8    -0.233985863102E+04    0.30141E+02   -0.15706E+02 97699   0.114E+01    0.321E+01
RMM:   9    -0.231562379344E+04    0.24235E+02   -0.34506E+01 98731   0.532E+00    0.617E+00
RMM:  10    -0.231541499648E+04    0.20880E+00   -0.73876E+00136471   0.153E+00    0.346E+00
RMM:  11    -0.231526005527E+04    0.15494E+00   -0.13282E+00119870   0.821E-01    0.381E+00
RMM:  12    -0.231490046630E+04    0.35959E+00   -0.48835E-01117284   0.534E-01    0.212E+00
RMM:  13    -0.231477821460E+04    0.12225E+00   -0.25454E-01112042   0.435E-01    0.132E+00
RMM:  14    -0.231476042817E+04    0.17786E-01   -0.15596E-01112599   0.322E-01    0.149E+00
RMM:  15    -0.231473006254E+04    0.30366E-01   -0.51216E-02120027   0.143E-01    0.987E-01
RMM:  16    -0.231471490616E+04    0.15156E-01   -0.20996E-02111502   0.118E-01    0.474E-01
RMM:  17    -0.231471185075E+04    0.30554E-02   -0.15626E-02120550   0.888E-02    0.204E-01
RMM:  18    -0.231471277735E+04   -0.92660E-03   -0.99616E-03131382   0.633E-02    0.233E-01
RMM:  19    -0.231471255590E+04    0.22144E-03   -0.15947E-03135814   0.205E-02    0.212E-01
RMM:  20    -0.231471196881E+04    0.58709E-03   -0.45591E-04115873   0.156E-02    0.141E-01
RMM:  21    -0.231471155130E+04    0.41751E-03   -0.95891E-04119007   0.225E-02    0.433E-02
RMM:  22    -0.231471151407E+04    0.37233E-04   -0.32073E-04137046   0.106E-02
   1 F= -.23147115E+04 E0= -.23147192E+04  d E =0.229821E-01
