 256 256   0   0
  0.1418917E+02  0.1588033E-08  0.1692661E-08  0.1693229E-08  0.5000000E-15
  1.000000000000000E-004
  CAR 
 Ir_Ru                                   
     14.25783325     -1.29193069  301      9.45702732      1.00000000
     -1.292  0.0000E+00  0.0000E+00
     -1.240  0.0000E+00  0.0000E+00
     -1.188  0.0000E+00  0.0000E+00
     -1.136 -0.2716E-30 -0.1408E-31
     -1.085 -0.1235E-26 -0.6403E-28
     -1.033 -0.3269E-23 -0.1695E-24
     -0.981 -0.5029E-20 -0.2608E-21
     -0.929 -0.4495E-17 -0.2333E-18
     -0.877 -0.2273E-14 -0.1180E-15
     -0.825 -0.6773E-12 -0.3522E-13
     -0.774 -0.1170E-09 -0.6098E-11
     -0.722 -0.1164E-07 -0.6093E-09
     -0.670 -0.6642E-06 -0.3503E-07
     -0.618 -0.2163E-04 -0.1156E-05
     -0.566 -0.3988E-03 -0.2183E-04
     -0.514 -0.4125E-02 -0.2357E-03
     -0.463 -0.2369E-01 -0.1463E-02
     -0.411 -0.7405E-01 -0.5302E-02
     -0.359 -0.1029E+00 -0.1064E-01
     -0.307  0.1912E+00 -0.7266E-03
     -0.255  0.1591E+01  0.8171E-01
     -0.203  0.4333E+01  0.3063E+00
     -0.152  0.6334E+01  0.6346E+00
     -0.100  0.6426E+01  0.9677E+00
     -0.048  0.6927E+01  0.1327E+01
      0.004  0.8799E+01  0.1783E+01
      0.056  0.1111E+02  0.2359E+01
      0.108  0.1355E+02  0.3061E+01
      0.159  0.1437E+02  0.3806E+01
      0.211  0.1181E+02  0.4418E+01
      0.263  0.1003E+02  0.4938E+01
      0.315  0.1405E+02  0.5666E+01
      0.367  0.2018E+02  0.6712E+01
      0.419  0.2250E+02  0.7878E+01
      0.470  0.2267E+02  0.9054E+01
      0.522  0.2349E+02  0.1027E+02
      0.574  0.2261E+02  0.1144E+02
      0.626  0.2048E+02  0.1250E+02
      0.678  0.2094E+02  0.1359E+02
      0.730  0.2052E+02  0.1465E+02
      0.781  0.1492E+02  0.1543E+02
      0.833  0.9048E+01  0.1590E+02
      0.885  0.7960E+01  0.1631E+02
      0.937  0.1145E+02  0.1690E+02
      0.989  0.1847E+02  0.1786E+02
      1.041  0.2743E+02  0.1928E+02
      1.092  0.3324E+02  0.2100E+02
      1.144  0.3322E+02  0.2273E+02
      1.196  0.2912E+02  0.2424E+02
      1.248  0.2315E+02  0.2544E+02
      1.300  0.1954E+02  0.2645E+02
      1.352  0.2141E+02  0.2756E+02
      1.403  0.2685E+02  0.2895E+02
      1.455  0.3029E+02  0.3052E+02
      1.507  0.2992E+02  0.3207E+02
      1.559  0.2931E+02  0.3359E+02
      1.611  0.3032E+02  0.3516E+02
      1.663  0.3108E+02  0.3677E+02
      1.714  0.3187E+02  0.3842E+02
      1.766  0.3472E+02  0.4022E+02
      1.818  0.3874E+02  0.4223E+02
      1.870  0.4491E+02  0.4456E+02
      1.922  0.5403E+02  0.4736E+02
      1.974  0.5933E+02  0.5043E+02
      2.025  0.5529E+02  0.5330E+02
      2.077  0.5043E+02  0.5591E+02
      2.129  0.6002E+02  0.5903E+02
      2.181  0.8475E+02  0.6342E+02
      2.233  0.1074E+03  0.6899E+02
      2.285  0.1191E+03  0.7516E+02
      2.336  0.1253E+03  0.8165E+02
      2.388  0.1310E+03  0.8845E+02
      2.440  0.1369E+03  0.9554E+02
      2.492  0.1460E+03  0.1031E+03
      2.544  0.1626E+03  0.1115E+03
      2.596  0.1814E+03  0.1209E+03
      2.647  0.1939E+03  0.1310E+03
      2.699  0.2053E+03  0.1416E+03
      2.751  0.2222E+03  0.1531E+03
      2.803  0.2309E+03  0.1651E+03
      2.855  0.2252E+03  0.1768E+03
      2.907  0.2266E+03  0.1885E+03
      2.958  0.2435E+03  0.2012E+03
      3.010  0.2574E+03  0.2145E+03
      3.062  0.2601E+03  0.2280E+03
      3.114  0.2604E+03  0.2415E+03
      3.166  0.2634E+03  0.2551E+03
      3.218  0.2717E+03  0.2692E+03
      3.269  0.2862E+03  0.2840E+03
      3.321  0.3053E+03  0.2999E+03
      3.373  0.3230E+03  0.3166E+03
      3.425  0.3306E+03  0.3337E+03
      3.477  0.3284E+03  0.3508E+03
      3.528  0.3220E+03  0.3675E+03
      3.580  0.3183E+03  0.3839E+03
      3.632  0.3168E+03  0.4004E+03
      3.684  0.3116E+03  0.4165E+03
      3.736  0.3055E+03  0.4324E+03
      3.788  0.3015E+03  0.4480E+03
      3.839  0.2973E+03  0.4634E+03
      3.891  0.2935E+03  0.4786E+03
      3.943  0.2894E+03  0.4936E+03
      3.995  0.2779E+03  0.5080E+03
      4.047  0.2668E+03  0.5218E+03
      4.099  0.2736E+03  0.5360E+03
      4.150  0.2923E+03  0.5512E+03
      4.202  0.3025E+03  0.5668E+03
      4.254  0.3047E+03  0.5826E+03
      4.306  0.3110E+03  0.5988E+03
      4.358  0.3181E+03  0.6152E+03
      4.410  0.3210E+03  0.6319E+03
      4.461  0.3234E+03  0.6486E+03
      4.513  0.3218E+03  0.6653E+03
      4.565  0.3113E+03  0.6815E+03
      4.617  0.2985E+03  0.6969E+03
      4.669  0.2935E+03  0.7122E+03
      4.721  0.2974E+03  0.7276E+03
      4.772  0.3046E+03  0.7434E+03
      4.824  0.3158E+03  0.7597E+03
      4.876  0.3299E+03  0.7768E+03
      4.928  0.3372E+03  0.7943E+03
      4.980  0.3436E+03  0.8121E+03
      5.032  0.3563E+03  0.8306E+03
      5.083  0.3650E+03  0.8495E+03
      5.135  0.3647E+03  0.8684E+03
      5.187  0.3570E+03  0.8869E+03
      5.239  0.3384E+03  0.9044E+03
      5.291  0.3076E+03  0.9204E+03
      5.343  0.2677E+03  0.9343E+03
      5.394  0.2244E+03  0.9459E+03
      5.446  0.1885E+03  0.9557E+03
      5.498  0.1727E+03  0.9646E+03
      5.550  0.1851E+03  0.9742E+03
      5.602  0.2207E+03  0.9857E+03
      5.654  0.2680E+03  0.9995E+03
      5.705  0.3183E+03  0.1016E+04
      5.757  0.3623E+03  0.1035E+04
      5.809  0.3922E+03  0.1055E+04
      5.861  0.4088E+03  0.1076E+04
      5.913  0.4180E+03  0.1098E+04
      5.965  0.4247E+03  0.1120E+04
      6.016  0.4284E+03  0.1142E+04
      6.068  0.4193E+03  0.1164E+04
      6.120  0.3959E+03  0.1184E+04
      6.172  0.3743E+03  0.1204E+04
      6.224  0.3625E+03  0.1223E+04
      6.276  0.3561E+03  0.1241E+04
      6.327  0.3555E+03  0.1260E+04
      6.379  0.3667E+03  0.1279E+04
      6.431  0.3806E+03  0.1298E+04
      6.483  0.3839E+03  0.1318E+04
      6.535  0.3890E+03  0.1338E+04
      6.587  0.4064E+03  0.1359E+04
      6.638  0.4224E+03  0.1381E+04
      6.690  0.4281E+03  0.1404E+04
      6.742  0.4263E+03  0.1426E+04
      6.794  0.4161E+03  0.1447E+04
      6.846  0.3961E+03  0.1468E+04
      6.898  0.3759E+03  0.1487E+04
      6.949  0.3671E+03  0.1506E+04
      7.001  0.3641E+03  0.1525E+04
      7.053  0.3660E+03  0.1544E+04
      7.105  0.3860E+03  0.1564E+04
      7.157  0.4115E+03  0.1585E+04
      7.209  0.4218E+03  0.1607E+04
      7.260  0.4227E+03  0.1629E+04
      7.312  0.4163E+03  0.1651E+04
      7.364  0.3937E+03  0.1671E+04
      7.416  0.3639E+03  0.1690E+04
      7.468  0.3427E+03  0.1708E+04
      7.520  0.3332E+03  0.1725E+04
      7.571  0.3295E+03  0.1742E+04
      7.623  0.3203E+03  0.1759E+04
      7.675  0.3004E+03  0.1774E+04
      7.727  0.2805E+03  0.1789E+04
      7.779  0.2701E+03  0.1803E+04
      7.831  0.2648E+03  0.1817E+04
      7.882  0.2592E+03  0.1830E+04
      7.934  0.2503E+03  0.1843E+04
      7.986  0.2432E+03  0.1856E+04
      8.038  0.2431E+03  0.1868E+04
      8.090  0.2408E+03  0.1881E+04
      8.142  0.2329E+03  0.1893E+04
      8.193  0.2289E+03  0.1905E+04
      8.245  0.2322E+03  0.1917E+04
      8.297  0.2369E+03  0.1929E+04
      8.349  0.2389E+03  0.1941E+04
      8.401  0.2378E+03  0.1954E+04
      8.453  0.2310E+03  0.1966E+04
      8.504  0.2205E+03  0.1977E+04
      8.556  0.2131E+03  0.1988E+04
      8.608  0.2084E+03  0.1999E+04
      8.660  0.2016E+03  0.2009E+04
      8.712  0.1933E+03  0.2019E+04
      8.764  0.1848E+03  0.2029E+04
      8.815  0.1795E+03  0.2038E+04
      8.867  0.1847E+03  0.2048E+04
      8.919  0.2066E+03  0.2059E+04
      8.971  0.2320E+03  0.2071E+04
      9.023  0.2380E+03  0.2083E+04
      9.075  0.2270E+03  0.2095E+04
      9.126  0.2107E+03  0.2106E+04
      9.178  0.1914E+03  0.2115E+04
      9.230  0.1787E+03  0.2125E+04
      9.282  0.1908E+03  0.2135E+04
      9.334  0.2216E+03  0.2146E+04
      9.386  0.2415E+03  0.2159E+04
      9.437  0.2431E+03  0.2171E+04
      9.489  0.2443E+03  0.2184E+04
      9.541  0.2451E+03  0.2197E+04
      9.593  0.2441E+03  0.2209E+04
      9.645  0.2648E+03  0.2223E+04
      9.697  0.3080E+03  0.2239E+04
      9.748  0.3344E+03  0.2256E+04
      9.800  0.3295E+03  0.2273E+04
      9.852  0.3181E+03  0.2290E+04
      9.904  0.3150E+03  0.2306E+04
      9.956  0.3192E+03  0.2323E+04
     10.008  0.3360E+03  0.2340E+04
     10.059  0.3701E+03  0.2359E+04
     10.111  0.4063E+03  0.2380E+04
     10.163  0.4259E+03  0.2402E+04
     10.215  0.4339E+03  0.2425E+04
     10.267  0.4448E+03  0.2448E+04
     10.319  0.4624E+03  0.2472E+04
     10.370  0.4820E+03  0.2497E+04
     10.422  0.4957E+03  0.2523E+04
     10.474  0.4944E+03  0.2548E+04
     10.526  0.4649E+03  0.2572E+04
     10.578  0.4084E+03  0.2594E+04
     10.630  0.3411E+03  0.2611E+04
     10.681  0.2626E+03  0.2625E+04
     10.733  0.1657E+03  0.2633E+04
     10.785  0.7113E+02  0.2637E+04
     10.837  0.1246E+02  0.2638E+04
     10.889 -0.5002E+01  0.2637E+04
     10.941 -0.3693E+01  0.2637E+04
     10.992 -0.1014E+01  0.2637E+04
     11.044 -0.1564E+00  0.2637E+04
     11.096 -0.1525E-01  0.2637E+04
     11.148 -0.9966E-03  0.2637E+04
     11.200 -0.4359E-04  0.2637E+04
     11.252 -0.1225E-05  0.2637E+04
     11.303 -0.2118E-07  0.2637E+04
     11.355 -0.2184E-09  0.2637E+04
     11.407 -0.1324E-11  0.2637E+04
     11.459 -0.6240E-12  0.2637E+04
     11.511 -0.1280E-09  0.2637E+04
     11.563 -0.1524E-07  0.2637E+04
     11.614 -0.1040E-05  0.2637E+04
     11.666 -0.4033E-04  0.2637E+04
     11.718 -0.8753E-03  0.2637E+04
     11.770 -0.1031E-01  0.2637E+04
     11.822 -0.6125E-01  0.2637E+04
     11.874 -0.1380E+00  0.2637E+04
     11.925  0.1939E+00  0.2637E+04
     11.977  0.1494E+01  0.2637E+04
     12.029  0.2638E+01  0.2637E+04
     12.081  0.2037E+01  0.2638E+04
     12.133  0.9510E+00  0.2638E+04
     12.185  0.8057E+00  0.2638E+04
     12.236  0.1174E+01  0.2638E+04
     12.288  0.1734E+01  0.2638E+04
     12.340  0.2365E+01  0.2638E+04
     12.392  0.3150E+01  0.2638E+04
     12.444  0.3438E+01  0.2638E+04
     12.496  0.2408E+01  0.2638E+04
     12.547  0.1660E+01  0.2638E+04
     12.599  0.2169E+01  0.2639E+04
     12.651  0.2875E+01  0.2639E+04
     12.703  0.3737E+01  0.2639E+04
     12.755  0.4003E+01  0.2639E+04
     12.807  0.3007E+01  0.2639E+04
     12.858  0.2507E+01  0.2639E+04
     12.910  0.2567E+01  0.2640E+04
     12.962  0.1873E+01  0.2640E+04
     13.014  0.1127E+01  0.2640E+04
     13.066  0.8817E+00  0.2640E+04
     13.118  0.6600E+00  0.2640E+04
     13.169  0.7722E+00  0.2640E+04
     13.221  0.1330E+01  0.2640E+04
     13.273  0.1428E+01  0.2640E+04
     13.325  0.7833E+00  0.2640E+04
     13.377  0.1390E+00  0.2640E+04
     13.429 -0.6022E-01  0.2640E+04
     13.480 -0.3572E-01  0.2640E+04
     13.532 -0.7363E-02  0.2640E+04
     13.584 -0.7578E-03  0.2640E+04
     13.636 -0.4220E-04  0.2640E+04
     13.688 -0.1312E-05  0.2640E+04
     13.740 -0.2312E-07  0.2640E+04
     13.791 -0.2332E-09  0.2640E+04
     13.843 -0.1352E-11  0.2640E+04
     13.895 -0.4760E-14  0.2640E+04
     13.947  0.0000E+00  0.2640E+04
     13.999  0.0000E+00  0.2640E+04
     14.051  0.0000E+00  0.2640E+04
     14.102  0.0000E+00  0.2640E+04
     14.154  0.0000E+00  0.2640E+04
     14.206  0.0000E+00  0.2640E+04
     14.258  0.0000E+00  0.2640E+04
