  64  64   0   0
  0.1401117E+02  0.1082405E-08  0.1082405E-08  0.1082405E-08  0.5000000E-15
  1.000000000000000E-004
  CAR 
 Ir_Ru                                   
     14.67612920     -0.73936965  301      8.88027281      1.00000000
     -0.739  0.0000E+00  0.0000E+00
     -0.688  0.0000E+00  0.0000E+00
     -0.637  0.0000E+00  0.0000E+00
     -0.585 -0.6298E-31 -0.3236E-32
     -0.534 -0.2707E-27 -0.1391E-28
     -0.482 -0.6831E-24 -0.3512E-25
     -0.431 -0.1012E-20 -0.5203E-22
     -0.380 -0.8788E-18 -0.4521E-19
     -0.328 -0.4298E-15 -0.2213E-16
     -0.277 -0.1285E-12 -0.6625E-14
     -0.226 -0.2215E-10 -0.1145E-11
     -0.174 -0.2217E-08 -0.1150E-09
     -0.123 -0.1281E-06 -0.6695E-08
     -0.071 -0.4235E-05 -0.2243E-06
     -0.020 -0.7912E-04 -0.4290E-05
      0.031 -0.8174E-03 -0.4629E-04
      0.083 -0.4532E-02 -0.2792E-03
      0.134 -0.1312E-01 -0.9533E-03
      0.186 -0.1990E-01 -0.1976E-02
      0.237  0.5239E-02 -0.1706E-02
      0.288  0.2397E+00  0.1061E-01
      0.340  0.9483E+00  0.5934E-01
      0.391  0.1619E+01  0.1426E+00
      0.442  0.1397E+01  0.2143E+00
      0.494  0.1019E+01  0.2667E+00
      0.545  0.1568E+01  0.3473E+00
      0.597  0.2933E+01  0.4980E+00
      0.648  0.4140E+01  0.7107E+00
      0.699  0.3394E+01  0.8851E+00
      0.751  0.1306E+01  0.9522E+00
      0.802  0.6496E+00  0.9856E+00
      0.854  0.2468E+01  0.1112E+01
      0.905  0.5225E+01  0.1381E+01
      0.956  0.5649E+01  0.1671E+01
      1.008  0.4001E+01  0.1877E+01
      1.059  0.3662E+01  0.2065E+01
      1.110  0.4615E+01  0.2302E+01
      1.162  0.4573E+01  0.2537E+01
      1.213  0.2624E+01  0.2672E+01
      1.265  0.1195E+01  0.2733E+01
      1.316  0.3469E+01  0.2912E+01
      1.367  0.8406E+01  0.3344E+01
      1.419  0.9846E+01  0.3849E+01
      1.470  0.6301E+01  0.4173E+01
      1.522  0.4689E+01  0.4414E+01
      1.573  0.6464E+01  0.4746E+01
      1.624  0.6809E+01  0.5096E+01
      1.676  0.4253E+01  0.5315E+01
      1.727  0.1979E+01  0.5416E+01
      1.778  0.3943E+01  0.5619E+01
      1.830  0.8983E+01  0.6081E+01
      1.881  0.1245E+02  0.6720E+01
      1.933  0.1263E+02  0.7369E+01
      1.984  0.1074E+02  0.7921E+01
      2.035  0.9118E+01  0.8389E+01
      2.087  0.8912E+01  0.8847E+01
      2.138  0.9549E+01  0.9338E+01
      2.190  0.8969E+01  0.9799E+01
      2.241  0.7996E+01  0.1021E+02
      2.292  0.1310E+02  0.1088E+02
      2.344  0.2563E+02  0.1220E+02
      2.395  0.3534E+02  0.1402E+02
      2.447  0.3739E+02  0.1594E+02
      2.498  0.3866E+02  0.1792E+02
      2.549  0.3834E+02  0.1989E+02
      2.601  0.3563E+02  0.2172E+02
      2.652  0.3623E+02  0.2359E+02
      2.703  0.3807E+02  0.2554E+02
      2.755  0.4214E+02  0.2771E+02
      2.806  0.5237E+02  0.3040E+02
      2.858  0.5911E+02  0.3344E+02
      2.909  0.5583E+02  0.3630E+02
      2.960  0.5207E+02  0.3898E+02
      3.012  0.5432E+02  0.4177E+02
      3.063  0.6059E+02  0.4489E+02
      3.115  0.6775E+02  0.4837E+02
      3.166  0.6912E+02  0.5192E+02
      3.217  0.6693E+02  0.5536E+02
      3.269  0.7077E+02  0.5899E+02
      3.320  0.8109E+02  0.6316E+02
      3.371  0.9775E+02  0.6818E+02
      3.423  0.1147E+03  0.7408E+02
      3.474  0.1185E+03  0.8017E+02
      3.526  0.1172E+03  0.8619E+02
      3.577  0.1196E+03  0.9233E+02
      3.628  0.1096E+03  0.9797E+02
      3.680  0.9160E+02  0.1027E+03
      3.731  0.9491E+02  0.1076E+03
      3.783  0.1125E+03  0.1133E+03
      3.834  0.1115E+03  0.1191E+03
      3.885  0.9184E+02  0.1238E+03
      3.937  0.7421E+02  0.1276E+03
      3.988  0.7054E+02  0.1312E+03
      4.039  0.8221E+02  0.1354E+03
      4.091  0.9190E+02  0.1402E+03
      4.142  0.8519E+02  0.1445E+03
      4.194  0.7458E+02  0.1484E+03
      4.245  0.7019E+02  0.1520E+03
      4.296  0.6660E+02  0.1554E+03
      4.348  0.6170E+02  0.1586E+03
      4.399  0.6592E+02  0.1620E+03
      4.451  0.7323E+02  0.1657E+03
      4.502  0.6265E+02  0.1689E+03
      4.553  0.4770E+02  0.1714E+03
      4.605  0.5471E+02  0.1742E+03
      4.656  0.7739E+02  0.1782E+03
      4.707  0.8972E+02  0.1828E+03
      4.759  0.7846E+02  0.1868E+03
      4.810  0.6107E+02  0.1900E+03
      4.862  0.6234E+02  0.1932E+03
      4.913  0.7734E+02  0.1971E+03
      4.964  0.8222E+02  0.2014E+03
      5.016  0.7405E+02  0.2052E+03
      5.067  0.6494E+02  0.2085E+03
      5.119  0.6049E+02  0.2116E+03
      5.170  0.6207E+02  0.2148E+03
      5.221  0.6780E+02  0.2183E+03
      5.273  0.7772E+02  0.2223E+03
      5.324  0.9234E+02  0.2270E+03
      5.375  0.9662E+02  0.2320E+03
      5.427  0.7914E+02  0.2361E+03
      5.478  0.6068E+02  0.2392E+03
      5.530  0.6459E+02  0.2425E+03
      5.581  0.7931E+02  0.2466E+03
      5.632  0.8536E+02  0.2510E+03
      5.684  0.8759E+02  0.2555E+03
      5.735  0.9430E+02  0.2603E+03
      5.787  0.8882E+02  0.2649E+03
      5.838  0.6928E+02  0.2684E+03
      5.889  0.6092E+02  0.2716E+03
      5.941  0.6335E+02  0.2748E+03
      5.992  0.6636E+02  0.2782E+03
      6.043  0.7660E+02  0.2822E+03
      6.095  0.9285E+02  0.2869E+03
      6.146  0.1020E+03  0.2922E+03
      6.198  0.9898E+02  0.2973E+03
      6.249  0.1007E+03  0.3024E+03
      6.300  0.1138E+03  0.3083E+03
      6.352  0.1213E+03  0.3145E+03
      6.403  0.1290E+03  0.3211E+03
      6.455  0.1486E+03  0.3288E+03
      6.506  0.1579E+03  0.3369E+03
      6.557  0.1465E+03  0.3444E+03
      6.609  0.1299E+03  0.3511E+03
      6.660  0.1178E+03  0.3571E+03
      6.711  0.1093E+03  0.3628E+03
      6.763  0.9742E+02  0.3678E+03
      6.814  0.8108E+02  0.3719E+03
      6.866  0.7009E+02  0.3755E+03
      6.917  0.6899E+02  0.3791E+03
      6.968  0.7759E+02  0.3831E+03
      7.020  0.8762E+02  0.3876E+03
      7.071  0.9063E+02  0.3922E+03
      7.123  0.8990E+02  0.3968E+03
      7.174  0.8317E+02  0.4011E+03
      7.225  0.6929E+02  0.4047E+03
      7.277  0.6024E+02  0.4078E+03
      7.328  0.6319E+02  0.4110E+03
      7.379  0.6915E+02  0.4146E+03
      7.431  0.6446E+02  0.4179E+03
      7.482  0.5715E+02  0.4208E+03
      7.534  0.5958E+02  0.4239E+03
      7.585  0.6614E+02  0.4273E+03
      7.636  0.7392E+02  0.4311E+03
      7.688  0.7940E+02  0.4352E+03
      7.739  0.7475E+02  0.4390E+03
      7.791  0.6597E+02  0.4424E+03
      7.842  0.6397E+02  0.4457E+03
      7.893  0.7226E+02  0.4494E+03
      7.945  0.8787E+02  0.4539E+03
      7.996  0.9678E+02  0.4589E+03
      8.047  0.9257E+02  0.4636E+03
      8.099  0.8373E+02  0.4679E+03
      8.150  0.7373E+02  0.4717E+03
      8.202  0.6872E+02  0.4753E+03
      8.253  0.7168E+02  0.4789E+03
      8.304  0.7955E+02  0.4830E+03
      8.356  0.9030E+02  0.4877E+03
      8.407  0.8915E+02  0.4923E+03
      8.459  0.6566E+02  0.4956E+03
      8.510  0.4167E+02  0.4978E+03
      8.561  0.5027E+02  0.5004E+03
      8.613  0.7859E+02  0.5044E+03
      8.664  0.8901E+02  0.5090E+03
      8.715  0.8620E+02  0.5134E+03
      8.767  0.8949E+02  0.5180E+03
      8.818  0.9320E+02  0.5228E+03
      8.870  0.8571E+02  0.5272E+03
      8.921  0.6904E+02  0.5307E+03
      8.972  0.5368E+02  0.5335E+03
      9.024  0.4237E+02  0.5357E+03
      9.075  0.3746E+02  0.5376E+03
      9.127  0.4758E+02  0.5400E+03
      9.178  0.6269E+02  0.5433E+03
      9.229  0.6300E+02  0.5465E+03
      9.281  0.5295E+02  0.5492E+03
      9.332  0.5101E+02  0.5518E+03
      9.383  0.6822E+02  0.5553E+03
      9.435  0.9088E+02  0.5600E+03
      9.486  0.9371E+02  0.5648E+03
      9.538  0.7605E+02  0.5687E+03
      9.589  0.6261E+02  0.5720E+03
      9.640  0.6423E+02  0.5753E+03
      9.692  0.6149E+02  0.5784E+03
      9.743  0.5350E+02  0.5812E+03
      9.795  0.5603E+02  0.5840E+03
      9.846  0.6336E+02  0.5873E+03
      9.897  0.7090E+02  0.5909E+03
      9.949  0.8240E+02  0.5952E+03
     10.000  0.8984E+02  0.5998E+03
     10.051  0.8779E+02  0.6043E+03
     10.103  0.8826E+02  0.6088E+03
     10.154  0.9522E+02  0.6137E+03
     10.206  0.9533E+02  0.6186E+03
     10.257  0.8551E+02  0.6230E+03
     10.308  0.7667E+02  0.6270E+03
     10.360  0.6910E+02  0.6305E+03
     10.411  0.5865E+02  0.6335E+03
     10.463  0.4592E+02  0.6359E+03
     10.514  0.3091E+02  0.6375E+03
     10.565  0.1791E+02  0.6384E+03
     10.617  0.1059E+02  0.6389E+03
     10.668  0.5754E+01  0.6392E+03
     10.719  0.1571E+01  0.6393E+03
     10.771 -0.3204E+00  0.6393E+03
     10.822 -0.3515E+00  0.6393E+03
     10.874 -0.9836E-01  0.6393E+03
     10.925 -0.1337E-01  0.6393E+03
     10.976 -0.9851E-03  0.6393E+03
     11.028 -0.4087E-04  0.6393E+03
     11.079 -0.9726E-06  0.6393E+03
     11.131 -0.2660E-07  0.6393E+03
     11.182 -0.7621E-06  0.6393E+03
     11.233 -0.2516E-04  0.6393E+03
     11.285 -0.4664E-03  0.6393E+03
     11.336 -0.4687E-02  0.6393E+03
     11.387 -0.2327E-01  0.6393E+03
     11.439 -0.3732E-01  0.6393E+03
     11.490  0.1094E+00  0.6393E+03
     11.542  0.5257E+00  0.6393E+03
     11.593  0.7829E+00  0.6393E+03
     11.644  0.4923E+00  0.6394E+03
     11.696  0.8834E-01  0.6394E+03
     11.747 -0.3889E-01  0.6394E+03
     11.799 -0.2133E-01  0.6394E+03
     11.850 -0.4656E-02  0.6394E+03
     11.901 -0.4600E-02  0.6394E+03
     11.953 -0.1256E-01  0.6394E+03
     12.004  0.3210E-02  0.6394E+03
     12.055  0.1067E+00  0.6394E+03
     12.107  0.2384E+00  0.6394E+03
     12.158  0.2040E+00  0.6394E+03
     12.210  0.6155E-01  0.6394E+03
     12.261  0.1148E+00  0.6394E+03
     12.312  0.3927E+00  0.6394E+03
     12.364  0.5805E+00  0.6395E+03
     12.415  0.6062E+00  0.6395E+03
     12.467  0.5347E+00  0.6395E+03
     12.518  0.2661E+00  0.6395E+03
     12.569 -0.3683E-01  0.6395E+03
     12.621 -0.6732E-01  0.6395E+03
     12.672  0.5256E+00  0.6396E+03
     12.723  0.1607E+01  0.6396E+03
     12.775  0.1903E+01  0.6397E+03
     12.826  0.1000E+01  0.6398E+03
     12.878  0.3923E+00  0.6398E+03
     12.929  0.7468E+00  0.6398E+03
     12.980  0.9564E+00  0.6399E+03
     13.032  0.4683E+00  0.6399E+03
     13.083  0.5172E-01  0.6399E+03
     13.135  0.1778E+00  0.6399E+03
     13.186  0.4755E+00  0.6400E+03
     13.237  0.4347E+00  0.6400E+03
     13.289  0.1463E+00  0.6400E+03
     13.340 -0.1308E-01  0.6400E+03
     13.392 -0.2144E-01  0.6400E+03
     13.443 -0.6315E-02  0.6400E+03
     13.494 -0.4229E-02  0.6400E+03
     13.546 -0.6536E-02  0.6400E+03
     13.597  0.1460E-01  0.6400E+03
     13.648  0.8187E-01  0.6400E+03
     13.700  0.1305E+00  0.6400E+03
     13.751  0.8781E-01  0.6400E+03
     13.803  0.1834E-01  0.6400E+03
     13.854 -0.6212E-02  0.6400E+03
     13.905 -0.3889E-02  0.6400E+03
     13.957 -0.7844E-03  0.6400E+03
     14.008 -0.7816E-04  0.6400E+03
     14.060 -0.4219E-05  0.6400E+03
     14.111 -0.1279E-06  0.6400E+03
     14.162 -0.2216E-08  0.6400E+03
     14.214 -0.2215E-10  0.6400E+03
     14.265 -0.1285E-12  0.6400E+03
     14.316 -0.4148E-15  0.6400E+03
     14.368  0.0000E+00  0.6400E+03
     14.419  0.0000E+00  0.6400E+03
     14.471  0.0000E+00  0.6400E+03
     14.522  0.0000E+00  0.6400E+03
     14.573  0.0000E+00  0.6400E+03
     14.625  0.0000E+00  0.6400E+03
     14.676  0.0000E+00  0.6400E+03
