<?xml version="1.0" encoding="ISO-8859-1"?>
<modeling>
 <generator>
  <i name="program" type="string">vasp </i>
  <i name="version" type="string">5.4.1  </i>
  <i name="subversion" type="string">24Jun15 (build Feb 03 2017 16:24:58) complex                          parallel </i>
  <i name="platform" type="string">IFC91_ompi </i>
  <i name="date" type="string">2018 06 25 </i>
  <i name="time" type="string">12:29:15 </i>
 </generator>
 <incar>
  <i type="string" name="SYSTEM"> Ir_Ru</i>
  <i type="int" name="ISTART">     0</i>
  <i type="string" name="PREC">accurate</i>
  <i type="string" name="ALGO"> Very_Fast</i>
  <i type="int" name="ICHARG">     2</i>
  <i type="int" name="NELMIN">     5</i>
  <i type="int" name="IBRION">    -1</i>
  <i name="EDIFFG">      0.00001000</i>
  <i type="int" name="ISIF">     2</i>
  <i type="string" name="LREAL"> AUTO</i>
  <i type="int" name="ISMEAR">     1</i>
  <i name="SIGMA">      0.10000000</i>
  <v type="int" name="KPOINT_BSE">    -1     0     0     0</v>
 </incar>
 <kpoints>
  <generation param="Gamma">
   <v type="int" name="divisions">       5        5        5 </v>
   <v name="usershift">      0.00000000       0.00000000       0.00000000 </v>
   <v name="genvec1">      0.20000000       0.00000000       0.00000000 </v>
   <v name="genvec2">      0.00000000       0.20000000       0.00000000 </v>
   <v name="genvec3">      0.00000000       0.00000000       0.20000000 </v>
   <v name="shift">      0.00000000       0.00000000       0.00000000 </v>
  </generation>
  <varray name="kpointlist" >
   <v>       0.00000000       0.00000000       0.00000000 </v>
   <v>       0.20000000       0.00000000       0.00000000 </v>
   <v>       0.40000000       0.00000000       0.00000000 </v>
   <v>       0.20000000       0.20000000       0.00000000 </v>
   <v>       0.40000000       0.20000000       0.00000000 </v>
   <v>      -0.40000000       0.20000000       0.00000000 </v>
   <v>      -0.20000000       0.20000000       0.00000000 </v>
   <v>       0.40000000       0.40000000       0.00000000 </v>
   <v>      -0.40000000       0.40000000       0.00000000 </v>
   <v>       0.20000000       0.00000000       0.20000000 </v>
   <v>       0.40000000       0.00000000       0.20000000 </v>
   <v>      -0.40000000       0.00000000       0.20000000 </v>
   <v>      -0.20000000       0.00000000       0.20000000 </v>
   <v>      -0.40000000       0.40000000       0.20000000 </v>
   <v>      -0.20000000       0.40000000       0.20000000 </v>
   <v>       0.40000000       0.00000000       0.40000000 </v>
   <v>      -0.40000000       0.00000000       0.40000000 </v>
   <v>      -0.40000000       0.20000000       0.40000000 </v>
  </varray>
  <varray name="weights" >
   <v>       0.00800000 </v>
   <v>       0.06400000 </v>
   <v>       0.06400000 </v>
   <v>       0.01600000 </v>
   <v>       0.06400000 </v>
   <v>       0.06400000 </v>
   <v>       0.03200000 </v>
   <v>       0.01600000 </v>
   <v>       0.03200000 </v>
   <v>       0.03200000 </v>
   <v>       0.12800000 </v>
   <v>       0.12800000 </v>
   <v>       0.06400000 </v>
   <v>       0.06400000 </v>
   <v>       0.06400000 </v>
   <v>       0.03200000 </v>
   <v>       0.06400000 </v>
   <v>       0.06400000 </v>
  </varray>
 </kpoints>
 <parameters>
  <separator name="general" >
   <i type="string" name="SYSTEM">Ir_Ru</i>
   <i type="logical" name="LCOMPAT"> F  </i>
  </separator>
  <separator name="electronic" >
   <i type="string" name="PREC">accura</i>
   <i name="ENMAX">    213.27600000</i>
   <i name="ENAUG">    333.49400000</i>
   <i name="EDIFF">      0.00010000</i>
   <i type="int" name="IALGO">    48</i>
   <i type="int" name="IWAVPR">    10</i>
   <i type="int" name="NBANDS">   320</i>
   <i name="NELECT">    528.00000000</i>
   <i type="int" name="TURBO">     0</i>
   <i type="int" name="IRESTART">     0</i>
   <i type="int" name="NREBOOT">     0</i>
   <i type="int" name="NMIN">     0</i>
   <i name="EREF">      0.00000000</i>
   <separator name="electronic smearing" >
    <i type="int" name="ISMEAR">     1</i>
    <i name="SIGMA">      0.10000000</i>
    <i name="KSPACING">      0.50000000</i>
    <i type="logical" name="KGAMMA"> T  </i>
   </separator>
   <separator name="electronic projectors" >
    <i type="logical" name="LREAL"> T  </i>
    <v name="ROPT">     -0.00025000     -0.00025000</v>
    <i type="int" name="LMAXPAW">  -100</i>
    <i type="int" name="LMAXMIX">     2</i>
    <i type="logical" name="NLSPLINE"> F  </i>
   </separator>
   <separator name="electronic startup" >
    <i type="int" name="ISTART">     0</i>
    <i type="int" name="ICHARG">     2</i>
    <i type="int" name="INIWAV">     1</i>
   </separator>
   <separator name="electronic spin" >
    <i type="int" name="ISPIN">     1</i>
    <i type="logical" name="LNONCOLLINEAR"> F  </i>
    <v name="MAGMOM">      1.00000000      1.00000000      1.00000000      1.00000000      1.00000000      1.00000000      1.00000000      1.00000000      1.00000000      1.00000000      1.00000000      1.00000000      1.00000000      1.00000000      1.00000000      1.00000000      1.00000000      1.00000000      1.00000000      1.00000000
      1.00000000      1.00000000      1.00000000      1.00000000      1.00000000      1.00000000      1.00000000      1.00000000      1.00000000      1.00000000      1.00000000      1.00000000      1.00000000      1.00000000      1.00000000      1.00000000      1.00000000      1.00000000      1.00000000      1.00000000
      1.00000000      1.00000000      1.00000000      1.00000000      1.00000000      1.00000000      1.00000000      1.00000000      1.00000000      1.00000000      1.00000000      1.00000000      1.00000000      1.00000000      1.00000000      1.00000000      1.00000000      1.00000000      1.00000000      1.00000000
      1.00000000      1.00000000      1.00000000      1.00000000</v>
    <i name="NUPDOWN">     -1.00000000</i>
    <i type="logical" name="LSORBIT"> F  </i>
    <v name="SAXIS">      0.00000000      0.00000000      1.00000000</v>
    <i type="logical" name="LSPIRAL"> F  </i>
    <v name="QSPIRAL">      0.00000000      0.00000000      0.00000000</v>
    <i type="logical" name="LZEROZ"> F  </i>
   </separator>
   <separator name="electronic exchange-correlation" >
    <i type="logical" name="LASPH"> F  </i>
    <i type="logical" name="LMETAGGA"> F  </i>
   </separator>
   <separator name="electronic convergence" >
    <i type="int" name="NELM">    60</i>
    <i type="int" name="NELMDL">   -12</i>
    <i type="int" name="NELMIN">     5</i>
    <i name="ENINI">    213.27600000</i>
    <separator name="electronic convergence detail" >
     <i type="logical" name="LDIAG"> T  </i>
     <i type="logical" name="LSUBROT"> F  </i>
     <i name="WEIMIN">      0.00000000</i>
     <i name="EBREAK">      0.00000000</i>
     <i name="DEPER">      0.30000000</i>
     <i type="int" name="NRMM">     4</i>
     <i name="TIME">      0.40000000</i>
    </separator>
   </separator>
   <separator name="electronic mixer" >
    <i name="AMIX">      0.40000000</i>
    <i name="BMIX">      1.00000000</i>
    <i name="AMIN">      0.10000000</i>
    <i name="AMIX_MAG">      1.60000000</i>
    <i name="BMIX_MAG">      1.00000000</i>
    <separator name="electronic mixer details" >
     <i type="int" name="IMIX">     4</i>
     <i type="logical" name="MIXFIRST"> F  </i>
     <i type="int" name="MAXMIX">   -45</i>
     <i name="WC">    100.00000000</i>
     <i type="int" name="INIMIX">     1</i>
     <i type="int" name="MIXPRE">     1</i>
     <i type="int" name="MREMOVE">     5</i>
    </separator>
   </separator>
   <separator name="electronic dipolcorrection" >
    <i type="logical" name="LDIPOL"> F  </i>
    <i type="logical" name="LMONO"> F  </i>
    <i type="int" name="IDIPOL">     0</i>
    <i name="EPSILON">      1.00000000</i>
    <v name="DIPOL">   -100.00000000   -100.00000000   -100.00000000</v>
    <i name="EFIELD">      0.00000000</i>
   </separator>
  </separator>
  <separator name="grids" >
   <i type="int" name="NGX">    54</i>
   <i type="int" name="NGY">    54</i>
   <i type="int" name="NGZ">    54</i>
   <i type="int" name="NGXF">   108</i>
   <i type="int" name="NGYF">   108</i>
   <i type="int" name="NGZF">   108</i>
   <i type="logical" name="ADDGRID"> F  </i>
  </separator>
  <separator name="ionic" >
   <i type="int" name="NSW">     0</i>
   <i type="int" name="IBRION">    -1</i>
   <i type="int" name="ISIF">     2</i>
   <i name="PSTRESS">      0.00000000</i>
   <i name="EDIFFG">      0.00001000</i>
   <i type="int" name="NFREE">     0</i>
   <i name="POTIM">      0.50000000</i>
   <i name="SMASS">     -3.00000000</i>
   <i name="SCALEE">      1.00000000</i>
  </separator>
  <separator name="ionic md" >
   <i name="TEBEG">      0.00010000</i>
   <i name="TEEND">      0.00010000</i>
   <i type="int" name="NBLOCK">     1</i>
   <i type="int" name="KBLOCK">     1</i>
   <i type="int" name="NPACO">   256</i>
   <i name="APACO">     16.00000000</i>
  </separator>
  <separator name="symmetry" >
   <i type="int" name="ISYM">     2</i>
   <i name="SYMPREC">      0.00001000</i>
  </separator>
  <separator name="dos" >
   <i type="logical" name="LORBIT"> F  </i>
   <v name="RWIGS">     -1.00000000     -1.00000000</v>
   <i type="int" name="NEDOS">   301</i>
   <i name="EMIN">     10.00000000</i>
   <i name="EMAX">    -10.00000000</i>
   <i name="EFERMI">      0.00000000</i>
  </separator>
  <separator name="writing" >
   <i type="int" name="NWRITE">     2</i>
   <i type="logical" name="LWAVE"> T  </i>
   <i type="logical" name="LCHARG"> T  </i>
   <i type="logical" name="LPARD"> F  </i>
   <i type="logical" name="LVTOT"> F  </i>
   <i type="logical" name="LVHAR"> F  </i>
   <i type="logical" name="LELF"> F  </i>
   <i type="logical" name="LOPTICS"> F  </i>
   <v name="STM">      0.00000000      0.00000000      0.00000000      0.00000000      0.00000000      0.00000000      0.00000000</v>
  </separator>
  <separator name="performance" >
   <i type="int" name="NPAR">    20</i>
   <i type="int" name="NSIM">     4</i>
   <i type="int" name="NBLK">    -1</i>
   <i type="logical" name="LPLANE"> T  </i>
   <i type="logical" name="LSCALAPACK"> T  </i>
   <i type="logical" name="LSCAAWARE"> F  </i>
   <i type="logical" name="LSCALU"> F  </i>
   <i type="logical" name="LASYNC"> F  </i>
   <i type="logical" name="LORBITALREAL"> F  </i>
  </separator>
  <separator name="miscellaneous" >
   <i type="int" name="IDIOT">     3</i>
   <i type="logical" name="LMUSIC"> F  </i>
   <v name="POMASS">    192.22000000    101.07000000</v>
   <v name="DARWINR">      0.00000000      0.00000000</v>
   <v name="DARWINV">      1.00000000      1.00000000</v>
   <i type="logical" name="LCORR"> T  </i>
  </separator>
  <i type="logical" name="GGA_COMPAT"> T  </i>
  <i type="logical" name="LBERRY"> F  </i>
  <i type="int" name="ICORELEVEL">     0</i>
  <i type="logical" name="LDAU"> F  </i>
  <i type="int" name="I_CONSTRAINED_M">     0</i>
  <separator name="electronic exchange-correlation" >
   <i type="string" name="GGA">--</i>
   <i type="int" name="VOSKOWN">     0</i>
   <i type="logical" name="LHFCALC"> F  </i>
   <i type="string" name="PRECFOCK"></i>
   <i type="logical" name="LSYMGRAD"> F  </i>
   <i type="logical" name="LHFONE"> F  </i>
   <i type="logical" name="LRHFCALC"> F  </i>
   <i type="logical" name="LTHOMAS"> F  </i>
   <i type="logical" name="LMODELHF"> F  </i>
   <i name="ENCUT4O">     -1.00000000</i>
   <i type="int" name="EXXOEP">     0</i>
   <i type="int" name="FOURORBIT">     0</i>
   <i name="AEXX">      0.00000000</i>
   <i name="HFALPHA">      0.00000000</i>
   <i name="MCALPHA">      0.00000000</i>
   <i name="ALDAX">      1.00000000</i>
   <i name="AGGAX">      1.00000000</i>
   <i name="ALDAC">      1.00000000</i>
   <i name="AGGAC">      1.00000000</i>
   <i type="int" name="NKREDX">     1</i>
   <i type="int" name="NKREDY">     1</i>
   <i type="int" name="NKREDZ">     1</i>
   <i type="logical" name="SHIFTRED"> F  </i>
   <i type="logical" name="ODDONLY"> F  </i>
   <i type="logical" name="EVENONLY"> F  </i>
   <i type="int" name="LMAXFOCK">     0</i>
   <i type="int" name="NMAXFOCKAE">     0</i>
   <i type="logical" name="LFOCKAEDFT"> F  </i>
   <i name="HFSCREEN">      0.00000000</i>
   <i name="HFSCREENC">      0.00000000</i>
   <i type="int" name="NBANDSGWLOW">     0</i>
  </separator>
  <separator name="vdW DFT" >
   <i type="logical" name="LUSE_VDW"> F  </i>
   <i name="Zab_VDW">     -0.84910000</i>
   <i name="PARAM1">      0.12340000</i>
   <i name="PARAM2">      1.00000000</i>
   <i name="PARAM3">      0.00000000</i>
  </separator>
  <separator name="model GW" >
   <i type="int" name="MODEL_GW">     0</i>
   <i name="MODEL_EPS0">      8.40670469</i>
   <i name="MODEL_ALPHA">      1.00000000</i>
  </separator>
  <separator name="linear response parameters" >
   <i type="logical" name="LEPSILON"> F  </i>
   <i type="logical" name="LRPA"> F  </i>
   <i type="logical" name="LNABLA"> F  </i>
   <i type="logical" name="LVEL"> F  </i>
   <i type="int" name="KINTER">     0</i>
   <i name="CSHIFT">      0.10000000</i>
   <i name="OMEGAMAX">     -1.00000000</i>
   <i name="DEG_THRESHOLD">      0.00200000</i>
  </separator>
  <separator name="orbital magnetization" >
   <i type="logical" name="NUCIND"> F  </i>
   <v name="MAGPOS">      0.00000000      0.00000000      0.00000000</v>
   <i type="logical" name="LNICSALL"> T  </i>
   <i type="logical" name="ORBITALMAG"> F  </i>
   <i type="logical" name="LMAGBLOCH"> F  </i>
   <i type="logical" name="LCHIMAG"> F  </i>
   <i type="logical" name="LGAUGE"> T  </i>
   <i type="int" name="MAGATOM">     0</i>
   <v name="MAGDIPOL">      0.00000000      0.00000000      0.00000000</v>
   <v name="AVECCONST">      0.00000000      0.00000000      0.00000000</v>
  </separator>
  <separator name="response functions" >
   <i type="logical" name="LADDER"> F  </i>
   <i type="logical" name="LFXC"> F  </i>
   <i type="logical" name="LHARTREE"> T  </i>
   <i type="int" name="IBSE">     0</i>
   <v type="int" name="KPOINT">    -1     0     0     0</v>
   <i type="logical" name="LTCTE"> F  </i>
   <i type="logical" name="LTETE"> F  </i>
   <i type="logical" name="LTRIPLET"> F  </i>
   <i type="logical" name="LFXCEPS"> F  </i>
   <i type="logical" name="LFXHEG"> F  </i>
   <i type="int" name="NATURALO">     0</i>
   <i type="logical" name="L2ORDER"> F  </i>
   <i type="logical" name="LUSEW"> F  </i>
   <i name="ENCUTGW">     -2.00000000</i>
   <i name="ENCUTGWSOFT">     -2.00000000</i>
   <i name="ENCUTLF">     -1.00000000</i>
   <i type="int" name="LMAXMP2">    -1</i>
   <i name="SCISSOR">      0.00000000</i>
   <i type="int" name="NOMEGA">     0</i>
   <i type="int" name="NOMEGAR">     0</i>
   <i type="int" name="NBANDSGW">    -1</i>
   <i type="int" name="NBANDSO">    -1</i>
   <i type="int" name="NBANDSV">    -1</i>
   <i type="int" name="NELM">     1</i>
   <i type="int" name="NELMHF">     1</i>
   <i type="int" name="DIM">     3</i>
   <i type="int" name="ANTIRES">     0</i>
   <i name="OMEGAMAX">    -30.00000000</i>
   <i name="OMEGAMIN">    -30.00000000</i>
   <i name="OMEGATL">   -200.00000000</i>
   <i type="int" name="OMEGAGRID">     0</i>
   <i name="CSHIFT">     -0.10000000</i>
   <i type="logical" name="SELFENERGY"> F  </i>
   <i type="logical" name="LSPECTRAL"> F  </i>
   <i type="logical" name="LSPECTRALGW"> F  </i>
   <i type="logical" name="LSINGLES"> F  </i>
   <i type="logical" name="LFERMIGW"> F  </i>
   <i type="logical" name="ODDONLYGW"> F  </i>
   <i type="logical" name="EVENONLYGW"> F  </i>
   <i type="int" name="NKREDLFX">     1</i>
   <i type="int" name="NKREDLFY">     1</i>
   <i type="int" name="NKREDLFZ">     1</i>
   <i type="int" name="MAXMEM">  1800</i>
   <i type="int" name="TELESCOPE">     0</i>
   <i type="int" name="TAUPAR">     1</i>
   <i type="int" name="OMEGAPAR">    -1</i>
   <i name="LAMBDA">      1.00000000</i>
  </separator>
  <separator name="External order field" >
   <i name="OFIELD_KAPPA">      0.00000000</i>
   <v name="OFIELD_K">      0.00000000      0.00000000      0.00000000</v>
   <i name="OFIELD_Q6_NEAR">      0.00000000</i>
   <i name="OFIELD_Q6_FAR">      0.00000000</i>
   <i name="OFIELD_A">      0.00000000</i>
  </separator>
 </parameters>
 <atominfo>
  <atoms>      64 </atoms>
  <types>       2 </types>
  <array name="atoms" >
   <dimension dim="1">ion</dimension>
   <field type="string">element</field>
   <field type="int">atomtype</field>
   <set>
    <rc><c>Ir</c><c>   1</c></rc>
    <rc><c>Ir</c><c>   1</c></rc>
    <rc><c>Ir</c><c>   1</c></rc>
    <rc><c>Ir</c><c>   1</c></rc>
    <rc><c>Ir</c><c>   1</c></rc>
    <rc><c>Ir</c><c>   1</c></rc>
    <rc><c>Ir</c><c>   1</c></rc>
    <rc><c>Ir</c><c>   1</c></rc>
    <rc><c>Ir</c><c>   1</c></rc>
    <rc><c>Ir</c><c>   1</c></rc>
    <rc><c>Ir</c><c>   1</c></rc>
    <rc><c>Ir</c><c>   1</c></rc>
    <rc><c>Ir</c><c>   1</c></rc>
    <rc><c>Ir</c><c>   1</c></rc>
    <rc><c>Ir</c><c>   1</c></rc>
    <rc><c>Ir</c><c>   1</c></rc>
    <rc><c>Ru</c><c>   2</c></rc>
    <rc><c>Ru</c><c>   2</c></rc>
    <rc><c>Ru</c><c>   2</c></rc>
    <rc><c>Ru</c><c>   2</c></rc>
    <rc><c>Ru</c><c>   2</c></rc>
    <rc><c>Ru</c><c>   2</c></rc>
    <rc><c>Ru</c><c>   2</c></rc>
    <rc><c>Ru</c><c>   2</c></rc>
    <rc><c>Ru</c><c>   2</c></rc>
    <rc><c>Ru</c><c>   2</c></rc>
    <rc><c>Ru</c><c>   2</c></rc>
    <rc><c>Ru</c><c>   2</c></rc>
    <rc><c>Ru</c><c>   2</c></rc>
    <rc><c>Ru</c><c>   2</c></rc>
    <rc><c>Ru</c><c>   2</c></rc>
    <rc><c>Ru</c><c>   2</c></rc>
    <rc><c>Ru</c><c>   2</c></rc>
    <rc><c>Ru</c><c>   2</c></rc>
    <rc><c>Ru</c><c>   2</c></rc>
    <rc><c>Ru</c><c>   2</c></rc>
    <rc><c>Ru</c><c>   2</c></rc>
    <rc><c>Ru</c><c>   2</c></rc>
    <rc><c>Ru</c><c>   2</c></rc>
    <rc><c>Ru</c><c>   2</c></rc>
    <rc><c>Ru</c><c>   2</c></rc>
    <rc><c>Ru</c><c>   2</c></rc>
    <rc><c>Ru</c><c>   2</c></rc>
    <rc><c>Ru</c><c>   2</c></rc>
    <rc><c>Ru</c><c>   2</c></rc>
    <rc><c>Ru</c><c>   2</c></rc>
    <rc><c>Ru</c><c>   2</c></rc>
    <rc><c>Ru</c><c>   2</c></rc>
    <rc><c>Ru</c><c>   2</c></rc>
    <rc><c>Ru</c><c>   2</c></rc>
    <rc><c>Ru</c><c>   2</c></rc>
    <rc><c>Ru</c><c>   2</c></rc>
    <rc><c>Ru</c><c>   2</c></rc>
    <rc><c>Ru</c><c>   2</c></rc>
    <rc><c>Ru</c><c>   2</c></rc>
    <rc><c>Ru</c><c>   2</c></rc>
    <rc><c>Ru</c><c>   2</c></rc>
    <rc><c>Ru</c><c>   2</c></rc>
    <rc><c>Ru</c><c>   2</c></rc>
    <rc><c>Ru</c><c>   2</c></rc>
    <rc><c>Ru</c><c>   2</c></rc>
    <rc><c>Ru</c><c>   2</c></rc>
    <rc><c>Ru</c><c>   2</c></rc>
    <rc><c>Ru</c><c>   2</c></rc>
   </set>
  </array>
  <array name="atomtypes" >
   <dimension dim="1">type</dimension>
   <field type="int">atomspertype</field>
   <field type="string">element</field>
   <field>mass</field>
   <field>valence</field>
   <field type="string">pseudopotential</field>
   <set>
    <rc><c>  16</c><c>Ir</c><c>    192.22000000</c><c>      9.00000000</c><c> PAW_PBE Ir 06Sep2000                   </c></rc>
    <rc><c>  48</c><c>Ru</c><c>    101.07000000</c><c>      8.00000000</c><c> PAW_PBE Ru 06Sep2000                   </c></rc>
   </set>
  </array>
 </atominfo>
 <structure name="initialpos" >
  <crystal>
   <varray name="basis" >
    <v>       7.65376000       0.00000000       7.65376000 </v>
    <v>       7.65376000       7.65376000       0.00000000 </v>
    <v>       0.00000000       7.65376000       7.65376000 </v>
   </varray>
   <i name="volume">    896.71516662 </i>
   <varray name="rec_basis" >
    <v>       0.06532737      -0.06532737       0.06532737 </v>
    <v>       0.06532737       0.06532737      -0.06532737 </v>
    <v>      -0.06532737       0.06532737       0.06532737 </v>
   </varray>
  </crystal>
  <varray name="positions" >
   <v>       0.25261250       0.25261250       0.24738750 </v>
   <v>       0.25000000       0.75000000       0.25000000 </v>
   <v>       0.75000000       0.25000000       0.25000000 </v>
   <v>       0.25000000       0.25000000       0.75000000 </v>
   <v>       0.50000000       0.50000000       0.50000000 </v>
   <v>       0.75000000       0.75000000       0.25000000 </v>
   <v>       0.25000000       0.75000000       0.75000000 </v>
   <v>       0.50000000       0.00000000       0.50000000 </v>
   <v>       0.75000000       0.25000000       0.75000000 </v>
   <v>       0.00000000       0.50000000       0.50000000 </v>
   <v>       0.50000000       0.50000000       0.00000000 </v>
   <v>       0.75000000       0.75000000       0.75000000 </v>
   <v>       0.00000000       0.00000000       0.50000000 </v>
   <v>       0.50000000       0.00000000       0.00000000 </v>
   <v>       0.00000000       0.50000000       0.00000000 </v>
   <v>       0.00000000       0.00000000       0.00000000 </v>
   <v>       0.25000000       0.25000000       0.00000000 </v>
   <v>       0.00000000       0.25000000       0.25000000 </v>
   <v>       0.25000000       0.00000000       0.25000000 </v>
   <v>       0.25000000       0.75000000       0.00000000 </v>
   <v>       0.00000000       0.75000000       0.25000000 </v>
   <v>       0.25000000       0.50000000       0.25000000 </v>
   <v>       0.75000000       0.25000000       0.00000000 </v>
   <v>       0.50000000       0.25000000       0.25000000 </v>
   <v>       0.75000000       0.00000000       0.25000000 </v>
   <v>       0.25000000       0.25000000       0.50000000 </v>
   <v>       0.00000000       0.25000000       0.75000000 </v>
   <v>       0.25000000       0.00000000       0.75000000 </v>
   <v>       0.50000000       0.50000000       0.25000000 </v>
   <v>       0.25000000       0.50000000       0.50000000 </v>
   <v>       0.50000000       0.25000000       0.50000000 </v>
   <v>       0.75000000       0.75000000       0.00000000 </v>
   <v>       0.50000000       0.75000000       0.25000000 </v>
   <v>       0.75000000       0.50000000       0.25000000 </v>
   <v>       0.25000000       0.75000000       0.50000000 </v>
   <v>       0.00000000       0.75000000       0.75000000 </v>
   <v>       0.25000000       0.50000000       0.75000000 </v>
   <v>       0.50000000       0.00000000       0.25000000 </v>
   <v>       0.25000000       0.00000000       0.50000000 </v>
   <v>       0.50000000       0.75000000       0.50000000 </v>
   <v>       0.75000000       0.25000000       0.50000000 </v>
   <v>       0.50000000       0.25000000       0.75000000 </v>
   <v>       0.75000000       0.00000000       0.75000000 </v>
   <v>       0.00000000       0.50000000       0.25000000 </v>
   <v>       0.75000000       0.50000000       0.50000000 </v>
   <v>       0.00000000       0.25000000       0.50000000 </v>
   <v>       0.50000000       0.50000000       0.75000000 </v>
   <v>       0.25000000       0.50000000       0.00000000 </v>
   <v>       0.50000000       0.25000000       0.00000000 </v>
   <v>       0.75000000       0.75000000       0.50000000 </v>
   <v>       0.50000000       0.75000000       0.75000000 </v>
   <v>       0.75000000       0.50000000       0.75000000 </v>
   <v>       0.00000000       0.00000000       0.25000000 </v>
   <v>       0.75000000       0.00000000       0.50000000 </v>
   <v>       0.00000000       0.75000000       0.50000000 </v>
   <v>       0.50000000       0.00000000       0.75000000 </v>
   <v>       0.25000000       0.00000000       0.00000000 </v>
   <v>       0.50000000       0.75000000       0.00000000 </v>
   <v>       0.00000000       0.50000000       0.75000000 </v>
   <v>       0.75000000       0.50000000       0.00000000 </v>
   <v>       0.00000000       0.25000000       0.00000000 </v>
   <v>       0.00000000       0.00000000       0.75000000 </v>
   <v>       0.75000000       0.00000000       0.00000000 </v>
   <v>       0.00000000       0.75000000       0.00000000 </v>
  </varray>
 </structure>
 <calculation>
  <scstep>
   <time name="diag">    3.27    3.31</time>
   <time name="diis">    9.88    9.93</time>
   <time name="orth">    0.50    0.50</time>
   <time name="total">   13.74   13.84</time>
   <energy>
    <i name="alphaZ">   4182.71079630 </i>
    <i name="ewald"> -37625.34860314 </i>
    <i name="hartreedc">  -2545.64417757 </i>
    <i name="XCdc">  -1816.05505077 </i>
    <i name="pawpsdc">  25636.92248551 </i>
    <i name="pawaedc"> -22621.23159104 </i>
    <i name="eentropy">      0.00343191 </i>
    <i name="bandstr">   7232.26540019 </i>
    <i name="atom">  30800.35227945 </i>
    <i name="e_fr_energy">   3243.97497086 </i>
    <i name="e_wo_entrp">   3243.97153895 </i>
    <i name="e_0_energy">   3243.97382689 </i>
   </energy>
  </scstep>
  <scstep>
   <time name="diag">    3.26    3.27</time>
   <time name="diis">    9.81   10.06</time>
   <time name="orth">    0.50    0.50</time>
   <time name="total">   13.57   13.84</time>
   <energy>
    <i name="e_fr_energy">    271.40293103 </i>
    <i name="e_wo_entrp">    271.40834332 </i>
    <i name="e_0_energy">    271.40473513 </i>
   </energy>
  </scstep>
  <scstep>
   <time name="diag">    3.25    3.26</time>
   <time name="diis">    9.85    9.89</time>
   <time name="orth">    0.50    0.50</time>
   <time name="total">   13.60   13.65</time>
   <energy>
    <i name="e_fr_energy">   -275.97905234 </i>
    <i name="e_wo_entrp">   -275.97692384 </i>
    <i name="e_0_energy">   -275.97834284 </i>
   </energy>
  </scstep>
  <scstep>
   <time name="diag">    3.27    3.27</time>
   <time name="diis">   10.00   10.27</time>
   <time name="orth">    0.50    0.50</time>
   <time name="total">   13.77   14.04</time>
   <energy>
    <i name="e_fr_energy">   -463.53100323 </i>
    <i name="e_wo_entrp">   -463.52963277 </i>
    <i name="e_0_energy">   -463.53054641 </i>
   </energy>
  </scstep>
  <scstep>
   <time name="diag">    3.26    3.27</time>
   <time name="diis">    9.34    9.40</time>
   <time name="orth">    0.50    0.50</time>
   <time name="total">   13.10   13.71</time>
   <energy>
    <i name="e_fr_energy">   -530.95923403 </i>
    <i name="e_wo_entrp">   -530.95437611 </i>
    <i name="e_0_energy">   -530.95761472 </i>
   </energy>
  </scstep>
  <scstep>
   <time name="diag">    3.45    3.47</time>
   <time name="diis">    8.55    8.61</time>
   <time name="orth">    0.69    0.70</time>
   <time name="total">   12.69   15.64</time>
   <energy>
    <i name="e_fr_energy">   -566.31690751 </i>
    <i name="e_wo_entrp">   -566.31874620 </i>
    <i name="e_0_energy">   -566.31752041 </i>
   </energy>
  </scstep>
  <scstep>
   <time name="diag">    3.24    3.26</time>
   <time name="diis">    9.78    9.84</time>
   <time name="orth">    0.50    0.50</time>
   <time name="total">   13.52   13.61</time>
   <energy>
    <i name="e_fr_energy">   -585.81713752 </i>
    <i name="e_wo_entrp">   -585.81099867 </i>
    <i name="e_0_energy">   -585.81509124 </i>
   </energy>
  </scstep>
  <scstep>
   <time name="diag">    3.46    3.48</time>
   <time name="diis">    9.63    9.68</time>
   <time name="orth">    0.82    1.03</time>
   <time name="total">   13.91   14.19</time>
   <energy>
    <i name="e_fr_energy">   -598.08966162 </i>
    <i name="e_wo_entrp">   -598.08851294 </i>
    <i name="e_0_energy">   -598.08927873 </i>
   </energy>
  </scstep>
  <scstep>
   <time name="diag">    3.58    3.66</time>
   <time name="diis">   26.41   26.86</time>
   <time name="orth">    0.50    0.50</time>
   <time name="total">   30.49   31.02</time>
   <energy>
    <i name="e_fr_energy">   -619.25922414 </i>
    <i name="e_wo_entrp">   -619.28191488 </i>
    <i name="e_0_energy">   -619.26678772 </i>
   </energy>
  </scstep>
  <scstep>
   <time name="diag">    3.45    3.47</time>
   <time name="diis">   27.94   28.46</time>
   <time name="orth">    0.50    0.50</time>
   <time name="total">   31.89   32.43</time>
   <energy>
    <i name="e_fr_energy">   -621.71583731 </i>
    <i name="e_wo_entrp">   -621.70305904 </i>
    <i name="e_0_energy">   -621.71157788 </i>
   </energy>
  </scstep>
  <scstep>
   <time name="diag">    3.25    3.26</time>
   <time name="diis">   26.97   27.68</time>
   <time name="orth">    0.50    0.50</time>
   <time name="total">   30.72   31.45</time>
   <energy>
    <i name="e_fr_energy">   -622.27568699 </i>
    <i name="e_wo_entrp">   -622.26007034 </i>
    <i name="e_0_energy">   -622.27048144 </i>
   </energy>
  </scstep>
  <scstep>
   <time name="diag">    3.26    3.28</time>
   <time name="diis">   27.64   28.30</time>
   <time name="orth">    0.50    0.50</time>
   <time name="total">   32.32   33.00</time>
   <energy>
    <i name="e_fr_energy">   -622.34840372 </i>
    <i name="e_wo_entrp">   -622.33320685 </i>
    <i name="e_0_energy">   -622.34333810 </i>
   </energy>
  </scstep>
  <scstep>
   <time name="diag">    3.25    3.27</time>
   <time name="diis">   19.07   19.64</time>
   <time name="orth">    0.50    0.50</time>
   <time name="total">   23.77   24.47</time>
   <energy>
    <i name="e_fr_energy">   -587.68589908 </i>
    <i name="e_wo_entrp">   -587.66261915 </i>
    <i name="e_0_energy">   -587.67813910 </i>
   </energy>
  </scstep>
  <scstep>
   <time name="diag">    3.25    3.27</time>
   <time name="diis">   19.47   19.75</time>
   <time name="orth">    0.50    0.50</time>
   <time name="total">   24.20   25.06</time>
   <energy>
    <i name="e_fr_energy">   -585.77719780 </i>
    <i name="e_wo_entrp">   -585.77337002 </i>
    <i name="e_0_energy">   -585.77592187 </i>
   </energy>
  </scstep>
  <scstep>
   <time name="diag">    3.65    3.95</time>
   <time name="diis">   21.04   21.42</time>
   <time name="orth">    0.50    0.50</time>
   <time name="total">   26.17   27.01</time>
   <energy>
    <i name="e_fr_energy">   -582.22884833 </i>
    <i name="e_wo_entrp">   -582.21884875 </i>
    <i name="e_0_energy">   -582.22551514 </i>
   </energy>
  </scstep>
  <scstep>
   <time name="diag">    3.26    3.28</time>
   <time name="diis">   20.99   21.67</time>
   <time name="orth">    0.50    0.50</time>
   <time name="total">   25.73   28.01</time>
   <energy>
    <i name="e_fr_energy">   -581.99478767 </i>
    <i name="e_wo_entrp">   -581.98480156 </i>
    <i name="e_0_energy">   -581.99145897 </i>
   </energy>
  </scstep>
  <scstep>
   <time name="diag">    3.26    3.27</time>
   <time name="diis">   21.15   21.82</time>
   <time name="orth">    0.50    0.50</time>
   <time name="total">   25.88   29.36</time>
   <energy>
    <i name="e_fr_energy">   -581.95497575 </i>
    <i name="e_wo_entrp">   -581.94527116 </i>
    <i name="e_0_energy">   -581.95174089 </i>
   </energy>
  </scstep>
  <scstep>
   <time name="diag">    3.25    3.27</time>
   <time name="diis">   22.25   22.90</time>
   <time name="orth">    0.50    0.50</time>
   <time name="total">   26.99   29.52</time>
   <energy>
    <i name="e_fr_energy">   -581.92508745 </i>
    <i name="e_wo_entrp">   -581.91657337 </i>
    <i name="e_0_energy">   -581.92224942 </i>
   </energy>
  </scstep>
  <scstep>
   <time name="diag">    3.25    3.26</time>
   <time name="diis">   24.93   25.59</time>
   <time name="orth">    0.50    0.50</time>
   <time name="total">   29.67   30.35</time>
   <energy>
    <i name="e_fr_energy">   -581.92528338 </i>
    <i name="e_wo_entrp">   -581.91692788 </i>
    <i name="e_0_energy">   -581.92249821 </i>
   </energy>
  </scstep>
  <scstep>
   <time name="diag">    3.26    3.27</time>
   <time name="diis">   23.01   23.76</time>
   <time name="orth">    0.50    0.50</time>
   <time name="total">   27.76   29.79</time>
   <energy>
    <i name="e_fr_energy">   -581.92586698 </i>
    <i name="e_wo_entrp">   -581.91773336 </i>
    <i name="e_0_energy">   -581.92315578 </i>
   </energy>
  </scstep>
  <scstep>
   <time name="diag">    3.26    3.27</time>
   <time name="diis">   24.29   24.94</time>
   <time name="orth">    0.50    0.50</time>
   <time name="total">   29.04   30.83</time>
   <energy>
    <i name="e_fr_energy">   -581.92586848 </i>
    <i name="e_wo_entrp">   -581.91776544 </i>
    <i name="e_0_energy">   -581.92316746 </i>
   </energy>
  </scstep>
  <scstep>
   <time name="diag">    3.25    3.27</time>
   <time name="diis">   20.74   21.13</time>
   <time name="orth">    0.50    0.50</time>
   <time name="total">   25.48   29.72</time>
   <energy>
    <i name="e_fr_energy">   -581.92572449 </i>
    <i name="e_wo_entrp">   -581.91762259 </i>
    <i name="e_0_energy">   -581.92302386 </i>
   </energy>
  </scstep>
  <scstep>
   <time name="diag">    3.25    3.27</time>
   <time name="diis">   19.85   20.71</time>
   <time name="orth">    0.61    0.62</time>
   <time name="total">   24.71   26.57</time>
   <energy>
    <i name="e_fr_energy">   -581.92541645 </i>
    <i name="e_wo_entrp">   -581.91729058 </i>
    <i name="e_0_energy">   -581.92270783 </i>
   </energy>
  </scstep>
  <scstep>
   <time name="diag">    3.26    3.27</time>
   <time name="diis">   22.15   22.73</time>
   <time name="orth">    0.51    0.67</time>
   <time name="total">   25.99   27.47</time>
   <energy>
    <i name="alphaZ">   4182.71079630 </i>
    <i name="ewald"> -37625.34860314 </i>
    <i name="hartreedc">  -1953.65989904 </i>
    <i name="XCdc">  -1820.01329336 </i>
    <i name="pawpsdc">  29237.03777625 </i>
    <i name="pawaedc"> -26382.01135255 </i>
    <i name="eentropy">     -0.00814379 </i>
    <i name="bandstr">   2979.01505129 </i>
    <i name="atom">  30800.35227945 </i>
    <i name="e_fr_energy">   -581.92538858 </i>
    <i name="e_wo_entrp">   -581.91724479 </i>
    <i name="e_0_energy">   -581.92267398 </i>
   </energy>
  </scstep>
  <structure>
   <crystal>
    <varray name="basis" >
     <v>       7.65376000       0.00000000       7.65376000 </v>
     <v>       7.65376000       7.65376000       0.00000000 </v>
     <v>       0.00000000       7.65376000       7.65376000 </v>
    </varray>
    <i name="volume">    896.71516662 </i>
    <varray name="rec_basis" >
     <v>       0.06532737      -0.06532737       0.06532737 </v>
     <v>       0.06532737       0.06532737      -0.06532737 </v>
     <v>      -0.06532737       0.06532737       0.06532737 </v>
    </varray>
   </crystal>
   <varray name="positions" >
    <v>       0.25261250       0.25261250       0.24738750 </v>
    <v>       0.25000000       0.75000000       0.25000000 </v>
    <v>       0.75000000       0.25000000       0.25000000 </v>
    <v>       0.25000000       0.25000000       0.75000000 </v>
    <v>       0.50000000       0.50000000       0.50000000 </v>
    <v>       0.75000000       0.75000000       0.25000000 </v>
    <v>       0.25000000       0.75000000       0.75000000 </v>
    <v>       0.50000000       0.00000000       0.50000000 </v>
    <v>       0.75000000       0.25000000       0.75000000 </v>
    <v>       0.00000000       0.50000000       0.50000000 </v>
    <v>       0.50000000       0.50000000       0.00000000 </v>
    <v>       0.75000000       0.75000000       0.75000000 </v>
    <v>       0.00000000       0.00000000       0.50000000 </v>
    <v>       0.50000000       0.00000000       0.00000000 </v>
    <v>       0.00000000       0.50000000       0.00000000 </v>
    <v>       0.00000000       0.00000000       0.00000000 </v>
    <v>       0.25000000       0.25000000       0.00000000 </v>
    <v>       0.00000000       0.25000000       0.25000000 </v>
    <v>       0.25000000       0.00000000       0.25000000 </v>
    <v>       0.25000000       0.75000000       0.00000000 </v>
    <v>       0.00000000       0.75000000       0.25000000 </v>
    <v>       0.25000000       0.50000000       0.25000000 </v>
    <v>       0.75000000       0.25000000       0.00000000 </v>
    <v>       0.50000000       0.25000000       0.25000000 </v>
    <v>       0.75000000       0.00000000       0.25000000 </v>
    <v>       0.25000000       0.25000000       0.50000000 </v>
    <v>       0.00000000       0.25000000       0.75000000 </v>
    <v>       0.25000000       0.00000000       0.75000000 </v>
    <v>       0.50000000       0.50000000       0.25000000 </v>
    <v>       0.25000000       0.50000000       0.50000000 </v>
    <v>       0.50000000       0.25000000       0.50000000 </v>
    <v>       0.75000000       0.75000000       0.00000000 </v>
    <v>       0.50000000       0.75000000       0.25000000 </v>
    <v>       0.75000000       0.50000000       0.25000000 </v>
    <v>       0.25000000       0.75000000       0.50000000 </v>
    <v>       0.00000000       0.75000000       0.75000000 </v>
    <v>       0.25000000       0.50000000       0.75000000 </v>
    <v>       0.50000000       0.00000000       0.25000000 </v>
    <v>       0.25000000       0.00000000       0.50000000 </v>
    <v>       0.50000000       0.75000000       0.50000000 </v>
    <v>       0.75000000       0.25000000       0.50000000 </v>
    <v>       0.50000000       0.25000000       0.75000000 </v>
    <v>       0.75000000       0.00000000       0.75000000 </v>
    <v>       0.00000000       0.50000000       0.25000000 </v>
    <v>       0.75000000       0.50000000       0.50000000 </v>
    <v>       0.00000000       0.25000000       0.50000000 </v>
    <v>       0.50000000       0.50000000       0.75000000 </v>
    <v>       0.25000000       0.50000000       0.00000000 </v>
    <v>       0.50000000       0.25000000       0.00000000 </v>
    <v>       0.75000000       0.75000000       0.50000000 </v>
    <v>       0.50000000       0.75000000       0.75000000 </v>
    <v>       0.75000000       0.50000000       0.75000000 </v>
    <v>       0.00000000       0.00000000       0.25000000 </v>
    <v>       0.75000000       0.00000000       0.50000000 </v>
    <v>       0.00000000       0.75000000       0.50000000 </v>
    <v>       0.50000000       0.00000000       0.75000000 </v>
    <v>       0.25000000       0.00000000       0.00000000 </v>
    <v>       0.50000000       0.75000000       0.00000000 </v>
    <v>       0.00000000       0.50000000       0.75000000 </v>
    <v>       0.75000000       0.50000000       0.00000000 </v>
    <v>       0.00000000       0.25000000       0.00000000 </v>
    <v>       0.00000000       0.00000000       0.75000000 </v>
    <v>       0.75000000       0.00000000       0.00000000 </v>
    <v>       0.00000000       0.75000000       0.00000000 </v>
   </varray>
  </structure>
  <varray name="forces" >
   <v>      -0.52077111       0.00000000       0.00000000 </v>
   <v>       0.04232719       0.03662031       0.00000000 </v>
   <v>       0.04232719       0.00000000       0.03662031 </v>
   <v>       0.00761565       0.00000000       0.00000000 </v>
   <v>      -0.00071915       0.00000000       0.00000000 </v>
   <v>       0.00761565       0.00000000      -0.00000000 </v>
   <v>       0.04232719       0.00000000      -0.03662031 </v>
   <v>      -0.00083865       0.00000000       0.00042305 </v>
   <v>       0.04232719      -0.03662031       0.00000000 </v>
   <v>      -0.00083865       0.00042305       0.00000000 </v>
   <v>       0.03187947       0.00000000       0.00000000 </v>
   <v>      -0.00305831       0.00000000       0.00000000 </v>
   <v>       0.02892779       0.00000000       0.00000000 </v>
   <v>      -0.00083865      -0.00042305       0.00000000 </v>
   <v>      -0.00083865       0.00000000      -0.00042305 </v>
   <v>      -0.00071915       0.00000000       0.00000000 </v>
   <v>      -0.00089355       0.00156526       0.00156526 </v>
   <v>       0.02744346       0.00000000       0.03212098 </v>
   <v>       0.02744346       0.03212098       0.00000000 </v>
   <v>       0.00606912       0.00329719      -0.00329719 </v>
   <v>       0.00072901       0.00322388       0.00127815 </v>
   <v>       0.03456453       0.04255880       0.00000000 </v>
   <v>       0.00606912      -0.00329719       0.00329719 </v>
   <v>       0.03456453       0.00000000       0.04255880 </v>
   <v>       0.00072901       0.00127815       0.00322388 </v>
   <v>      -0.00089355      -0.00156526      -0.00156526 </v>
   <v>       0.00017763      -0.00332534       0.00105845 </v>
   <v>       0.00017763       0.00105845      -0.00332534 </v>
   <v>       0.00606912       0.00329719       0.00329719 </v>
   <v>       0.00072901       0.00322388      -0.00127815 </v>
   <v>       0.00072901      -0.00127815       0.00322388 </v>
   <v>       0.00000910       0.00008475       0.00008475 </v>
   <v>       0.00017763       0.00332534       0.00105845 </v>
   <v>       0.00017763       0.00105845       0.00332534 </v>
   <v>       0.00450278       0.00253764      -0.00253764 </v>
   <v>      -0.00111378       0.00000000       0.00207270 </v>
   <v>       0.00072901       0.00127815      -0.00322388 </v>
   <v>      -0.00089355       0.00156526      -0.00156526 </v>
   <v>       0.02744346       0.00000000      -0.03212098 </v>
   <v>       0.00017763      -0.00105845      -0.00332534 </v>
   <v>       0.00450278      -0.00253764       0.00253764 </v>
   <v>       0.00072901      -0.00322388       0.00127815 </v>
   <v>      -0.00111378       0.00207270       0.00000000 </v>
   <v>      -0.00089355      -0.00156526       0.00156526 </v>
   <v>       0.00017763      -0.00332534      -0.00105845 </v>
   <v>       0.02744346      -0.03212098       0.00000000 </v>
   <v>       0.00606912      -0.00329719      -0.00329719 </v>
   <v>       0.03456453       0.00000000      -0.04255880 </v>
   <v>       0.03456453      -0.04255880       0.00000000 </v>
   <v>       0.00000910      -0.00008475      -0.00008475 </v>
   <v>      -0.00157620       0.00000000       0.00248678 </v>
   <v>      -0.00157620       0.00248678       0.00000000 </v>
   <v>       0.00450278       0.00253764       0.00253764 </v>
   <v>      -0.00111378       0.00000000      -0.00207270 </v>
   <v>      -0.00111378      -0.00207270       0.00000000 </v>
   <v>       0.00000910       0.00008475      -0.00008475 </v>
   <v>       0.00017763       0.00332534      -0.00105845 </v>
   <v>      -0.00157620      -0.00248678       0.00000000 </v>
   <v>       0.00000910      -0.00008475       0.00008475 </v>
   <v>      -0.00157620       0.00000000      -0.00248678 </v>
   <v>       0.00017763      -0.00105845       0.00332534 </v>
   <v>       0.00450278      -0.00253764      -0.00253764 </v>
   <v>       0.00072901      -0.00322388      -0.00127815 </v>
   <v>       0.00072901      -0.00127815      -0.00322388 </v>
  </varray>
  <varray name="stress" >
   <v>     -24.11189250       0.00000000       0.00000000 </v>
   <v>       0.00000000     -24.18751511       0.00000000 </v>
   <v>       0.00000000       0.00000000     -24.18751511 </v>
  </varray>
  <energy>
   <i name="e_fr_energy">   -581.92538858 </i>
   <i name="e_wo_entrp">   -581.92267398 </i>
   <i name="e_0_energy">     -0.00814379 </i>
  </energy>
  <time name="totalsc">  598.64  630.72</time>
  <eigenvalues>
   <array>
    <dimension dim="1">band</dimension>
    <dimension dim="2">kpoint</dimension>
    <dimension dim="3">spin</dimension>
    <field>eigene</field>
    <field>occ</field>
    <set>
     <set comment="spin 1">
      <set comment="kpoint 1">
       <r>    0.2606    1.0000 </r>
       <r>    2.0836    1.0000 </r>
       <r>    2.1278    1.0000 </r>
       <r>    2.1340    1.0000 </r>
       <r>    2.1344    1.0000 </r>
       <r>    2.1344    1.0000 </r>
       <r>    2.1351    1.0000 </r>
       <r>    2.1351    1.0000 </r>
       <r>    2.1357    1.0000 </r>
       <r>    2.1412    1.0000 </r>
       <r>    2.2777    1.0000 </r>
       <r>    2.2779    1.0000 </r>
       <r>    2.4174    1.0000 </r>
       <r>    2.4174    1.0000 </r>
       <r>    2.4176    1.0000 </r>
       <r>    2.5885    1.0000 </r>
       <r>    2.6372    1.0000 </r>
       <r>    2.6373    1.0000 </r>
       <r>    2.6373    1.0000 </r>
       <r>    2.8171    1.0000 </r>
       <r>    2.8173    1.0000 </r>
       <r>    2.8173    1.0000 </r>
       <r>    3.3520    1.0000 </r>
       <r>    3.3532    1.0000 </r>
       <r>    3.3532    1.0000 </r>
       <r>    3.3913    1.0000 </r>
       <r>    3.3953    1.0000 </r>
       <r>    3.3953    1.0000 </r>
       <r>    3.3975    1.0000 </r>
       <r>    3.3989    1.0000 </r>
       <r>    3.4004    1.0000 </r>
       <r>    3.4006    1.0000 </r>
       <r>    3.4006    1.0000 </r>
       <r>    3.4007    1.0000 </r>
       <r>    3.4007    1.0000 </r>
       <r>    3.4007    1.0000 </r>
       <r>    3.4009    1.0000 </r>
       <r>    3.4029    1.0000 </r>
       <r>    3.4051    1.0000 </r>
       <r>    3.4051    1.0000 </r>
       <r>    3.4096    1.0000 </r>
       <r>    3.6042    1.0000 </r>
       <r>    3.6073    1.0000 </r>
       <r>    3.6082    1.0000 </r>
       <r>    3.6082    1.0000 </r>
       <r>    3.6089    1.0000 </r>
       <r>    3.6090    1.0000 </r>
       <r>    3.6090    1.0000 </r>
       <r>    3.6100    1.0000 </r>
       <r>    3.6139    1.0000 </r>
       <r>    3.6140    1.0000 </r>
       <r>    3.6174    1.0000 </r>
       <r>    3.7557    1.0000 </r>
       <r>    3.7557    1.0000 </r>
       <r>    3.7559    1.0000 </r>
       <r>    3.9737    1.0000 </r>
       <r>    3.9737    1.0000 </r>
       <r>    3.9739    1.0000 </r>
       <r>    4.0604    1.0000 </r>
       <r>    4.0605    1.0000 </r>
       <r>    4.0605    1.0000 </r>
       <r>    4.1776    1.0000 </r>
       <r>    4.1777    1.0000 </r>
       <r>    4.1777    1.0000 </r>
       <r>    4.3971    1.0000 </r>
       <r>    4.4089    1.0000 </r>
       <r>    4.4089    1.0000 </r>
       <r>    4.4106    1.0000 </r>
       <r>    4.4124    1.0000 </r>
       <r>    4.4147    1.0000 </r>
       <r>    4.4147    1.0000 </r>
       <r>    4.4147    1.0000 </r>
       <r>    4.4148    1.0000 </r>
       <r>    4.4148    1.0000 </r>
       <r>    4.4148    1.0000 </r>
       <r>    4.4149    1.0000 </r>
       <r>    4.4185    1.0000 </r>
       <r>    4.4202    1.0000 </r>
       <r>    4.4202    1.0000 </r>
       <r>    4.4311    1.0000 </r>
       <r>    4.5326    1.0000 </r>
       <r>    4.5327    1.0000 </r>
       <r>    4.5333    1.0000 </r>
       <r>    4.7065    1.0000 </r>
       <r>    4.7076    1.0000 </r>
       <r>    4.7089    1.0000 </r>
       <r>    4.7089    1.0000 </r>
       <r>    4.7092    1.0000 </r>
       <r>    4.7092    1.0000 </r>
       <r>    4.7107    1.0000 </r>
       <r>    4.7117    1.0000 </r>
       <r>    4.7189    1.0000 </r>
       <r>    4.7189    1.0000 </r>
       <r>    4.7190    1.0000 </r>
       <r>    4.7190    1.0000 </r>
       <r>    4.7191    1.0000 </r>
       <r>    4.7191    1.0000 </r>
       <r>    4.9347    1.0000 </r>
       <r>    4.9347    1.0000 </r>
       <r>    4.9347    1.0000 </r>
       <r>    4.9350    1.0000 </r>
       <r>    4.9351    1.0000 </r>
       <r>    4.9351    1.0000 </r>
       <r>    5.0398    1.0000 </r>
       <r>    5.0404    1.0000 </r>
       <r>    5.0405    1.0000 </r>
       <r>    5.0405    1.0000 </r>
       <r>    5.0405    1.0000 </r>
       <r>    5.0407    1.0000 </r>
       <r>    5.0407    1.0000 </r>
       <r>    5.0407    1.0000 </r>
       <r>    5.0411    1.0000 </r>
       <r>    5.2202    1.0000 </r>
       <r>    5.2203    1.0000 </r>
       <r>    5.2203    1.0000 </r>
       <r>    5.3873    1.0000 </r>
       <r>    5.3874    1.0000 </r>
       <r>    5.3874    1.0000 </r>
       <r>    5.3874    1.0000 </r>
       <r>    5.3876    1.0000 </r>
       <r>    5.3876    1.0000 </r>
       <r>    5.3985    1.0000 </r>
       <r>    5.3985    1.0000 </r>
       <r>    5.3987    1.0000 </r>
       <r>    5.6016    1.0000 </r>
       <r>    5.6064    1.0000 </r>
       <r>    5.6064    1.0000 </r>
       <r>    5.6091    1.0000 </r>
       <r>    5.6115    1.0000 </r>
       <r>    5.6128    1.0000 </r>
       <r>    5.6128    1.0000 </r>
       <r>    5.6206    1.0000 </r>
       <r>    5.6565    1.0000 </r>
       <r>    5.6606    1.0000 </r>
       <r>    5.6708    1.0000 </r>
       <r>    5.6708    1.0000 </r>
       <r>    5.6708    1.0000 </r>
       <r>    5.6722    1.0000 </r>
       <r>    5.6722    1.0000 </r>
       <r>    5.6768    1.0000 </r>
       <r>    5.7978    1.0000 </r>
       <r>    5.7978    1.0000 </r>
       <r>    5.7979    1.0000 </r>
       <r>    6.0063    1.0000 </r>
       <r>    6.0063    1.0000 </r>
       <r>    6.0068    1.0000 </r>
       <r>    6.1239    1.0000 </r>
       <r>    6.1239    1.0000 </r>
       <r>    6.1244    1.0000 </r>
       <r>    6.2180    1.0000 </r>
       <r>    6.2180    1.0000 </r>
       <r>    6.2182    1.0000 </r>
       <r>    6.3742    1.0000 </r>
       <r>    6.3825    1.0000 </r>
       <r>    6.3840    1.0000 </r>
       <r>    6.3840    1.0000 </r>
       <r>    6.3846    1.0000 </r>
       <r>    6.3846    1.0000 </r>
       <r>    6.3863    1.0000 </r>
       <r>    6.3949    1.0000 </r>
       <r>    6.5276    1.0000 </r>
       <r>    6.5276    1.0000 </r>
       <r>    6.5291    1.0000 </r>
       <r>    6.5310    1.0000 </r>
       <r>    6.5338    1.0000 </r>
       <r>    6.5340    1.0000 </r>
       <r>    6.5340    1.0000 </r>
       <r>    6.5340    1.0000 </r>
       <r>    6.5354    1.0000 </r>
       <r>    6.5354    1.0000 </r>
       <r>    6.5356    1.0000 </r>
       <r>    6.5365    1.0000 </r>
       <r>    6.5382    1.0000 </r>
       <r>    6.5385    1.0000 </r>
       <r>    6.5405    1.0000 </r>
       <r>    6.5405    1.0000 </r>
       <r>    6.7250    1.0000 </r>
       <r>    6.7279    1.0000 </r>
       <r>    6.7307    1.0000 </r>
       <r>    6.7307    1.0000 </r>
       <r>    6.7328    1.0000 </r>
       <r>    6.7328    1.0000 </r>
       <r>    6.7329    1.0000 </r>
       <r>    6.7330    1.0000 </r>
       <r>    6.7332    1.0000 </r>
       <r>    6.7333    1.0000 </r>
       <r>    6.7335    1.0000 </r>
       <r>    6.7335    1.0000 </r>
       <r>    6.7354    1.0000 </r>
       <r>    6.7361    1.0000 </r>
       <r>    6.7362    1.0000 </r>
       <r>    6.7362    1.0000 </r>
       <r>    6.7799    1.0000 </r>
       <r>    6.7808    1.0000 </r>
       <r>    6.7844    1.0000 </r>
       <r>    6.9359    1.0000 </r>
       <r>    6.9364    1.0000 </r>
       <r>    6.9380    1.0000 </r>
       <r>    7.3818    1.0000 </r>
       <r>    7.3818    1.0000 </r>
       <r>    7.3819    1.0000 </r>
       <r>    7.6019    1.0000 </r>
       <r>    7.6019    1.0000 </r>
       <r>    7.6028    1.0000 </r>
       <r>    7.6029    1.0000 </r>
       <r>    7.6032    1.0000 </r>
       <r>    7.6032    1.0000 </r>
       <r>    7.6098    1.0000 </r>
       <r>    7.6103    1.0000 </r>
       <r>    7.6103    1.0000 </r>
       <r>    7.7789    1.0000 </r>
       <r>    7.7833    1.0000 </r>
       <r>    7.7833    1.0000 </r>
       <r>    7.7882    1.0000 </r>
       <r>    7.7933    1.0000 </r>
       <r>    7.7934    1.0000 </r>
       <r>    7.7934    1.0000 </r>
       <r>    7.7937    1.0000 </r>
       <r>    7.7940    1.0000 </r>
       <r>    7.7940    1.0000 </r>
       <r>    7.7941    1.0000 </r>
       <r>    7.7941    1.0000 </r>
       <r>    7.8013    1.0000 </r>
       <r>    7.8027    1.0000 </r>
       <r>    7.8027    1.0000 </r>
       <r>    7.8070    1.0000 </r>
       <r>    7.8915    1.0000 </r>
       <r>    7.8915    1.0000 </r>
       <r>    7.8917    1.0000 </r>
       <r>    7.8917    1.0000 </r>
       <r>    7.8917    1.0000 </r>
       <r>    7.8921    1.0000 </r>
       <r>    8.0317    1.0000 </r>
       <r>    8.0317    1.0000 </r>
       <r>    8.0318    1.0000 </r>
       <r>    8.0334    1.0000 </r>
       <r>    8.0336    1.0000 </r>
       <r>    8.0353    1.0000 </r>
       <r>    8.0355    1.0000 </r>
       <r>    8.0355    1.0000 </r>
       <r>    8.0967    1.0000 </r>
       <r>    8.0967    1.0000 </r>
       <r>    8.0968    1.0000 </r>
       <r>    8.0973    1.0000 </r>
       <r>    8.0973    1.0000 </r>
       <r>    8.0973    1.0000 </r>
       <r>    8.1750    1.0000 </r>
       <r>    8.1750    1.0000 </r>
       <r>    8.1752    1.0000 </r>
       <r>    8.3273    1.0000 </r>
       <r>    8.3273    1.0000 </r>
       <r>    8.3309    1.0000 </r>
       <r>    8.3310    1.0000 </r>
       <r>    8.3310    1.0000 </r>
       <r>    8.3313    1.0000 </r>
       <r>    8.3484    1.0000 </r>
       <r>    8.3516    1.0000 </r>
       <r>    8.3516    1.0000 </r>
       <r>    8.4977    1.0000 </r>
       <r>    8.4997    1.0000 </r>
       <r>    8.4997    1.0000 </r>
       <r>    8.5444    1.0000 </r>
       <r>    8.5449    1.0000 </r>
       <r>    8.5703    1.0001 </r>
       <r>    8.5703    1.0001 </r>
       <r>    8.5704    1.0001 </r>
       <r>    8.7438    1.0330 </r>
       <r>    8.7485    1.0343 </r>
       <r>    8.7494    1.0345 </r>
       <r>    8.7494    1.0345 </r>
       <r>    8.7532    1.0352 </r>
       <r>    8.7532    1.0352 </r>
       <r>    8.7538    1.0352 </r>
       <r>    8.7542    1.0353 </r>
       <r>    8.7545    1.0353 </r>
       <r>    8.7551    1.0353 </r>
       <r>    8.7555    1.0354 </r>
       <r>    8.7555    1.0354 </r>
       <r>    8.7601    1.0354 </r>
       <r>    8.7601    1.0354 </r>
       <r>    8.7607    1.0353 </r>
       <r>    8.7658    1.0343 </r>
       <r>    9.3206   -0.0000 </r>
       <r>    9.3208   -0.0000 </r>
       <r>    9.3210   -0.0000 </r>
       <r>    9.4559   -0.0000 </r>
       <r>    9.4559   -0.0000 </r>
       <r>    9.4559   -0.0000 </r>
       <r>    9.4922   -0.0000 </r>
       <r>    9.4922   -0.0000 </r>
       <r>    9.4922   -0.0000 </r>
       <r>    9.8563   -0.0000 </r>
       <r>   10.3606   -0.0000 </r>
       <r>   10.3618   -0.0000 </r>
       <r>   10.3647   -0.0000 </r>
       <r>   10.3667   -0.0000 </r>
       <r>   10.3853   -0.0000 </r>
       <r>   10.3857   -0.0000 </r>
       <r>   10.3915   -0.0000 </r>
       <r>   10.4322   -0.0000 </r>
       <r>   10.4573   -0.0000 </r>
       <r>   10.4600   -0.0000 </r>
       <r>   10.4729   -0.0000 </r>
       <r>   10.5283   -0.0000 </r>
       <r>   10.5290   -0.0000 </r>
       <r>   10.5297   -0.0000 </r>
       <r>   10.5301   -0.0000 </r>
       <r>   10.5304   -0.0000 </r>
       <r>   10.5317   -0.0000 </r>
       <r>   10.5358   -0.0000 </r>
       <r>   10.5372   -0.0000 </r>
       <r>   10.5494   -0.0000 </r>
       <r>   10.5551   -0.0000 </r>
       <r>   10.5650   -0.0000 </r>
       <r>   10.5807   -0.0000 </r>
       <r>   10.5824   -0.0000 </r>
       <r>   10.5923   -0.0000 </r>
       <r>   12.1003    0.0000 </r>
       <r>   12.1037    0.0000 </r>
       <r>   13.6761    0.0000 </r>
      </set>
      <set comment="kpoint 2">
       <r>    0.3649    1.0000 </r>
       <r>    1.6651    1.0000 </r>
       <r>    2.0750    1.0000 </r>
       <r>    2.0781    1.0000 </r>
       <r>    2.0811    1.0000 </r>
       <r>    2.1511    1.0000 </r>
       <r>    2.3333    1.0000 </r>
       <r>    2.3358    1.0000 </r>
       <r>    2.3376    1.0000 </r>
       <r>    2.3496    1.0000 </r>
       <r>    2.3496    1.0000 </r>
       <r>    2.3717    1.0000 </r>
       <r>    2.3733    1.0000 </r>
       <r>    2.3753    1.0000 </r>
       <r>    2.3920    1.0000 </r>
       <r>    2.6595    1.0000 </r>
       <r>    2.6879    1.0000 </r>
       <r>    2.7165    1.0000 </r>
       <r>    2.7165    1.0000 </r>
       <r>    2.8786    1.0000 </r>
       <r>    2.8788    1.0000 </r>
       <r>    2.8848    1.0000 </r>
       <r>    3.1582    1.0000 </r>
       <r>    3.1587    1.0000 </r>
       <r>    3.3690    1.0000 </r>
       <r>    3.3728    1.0000 </r>
       <r>    3.3738    1.0000 </r>
       <r>    3.3771    1.0000 </r>
       <r>    3.3777    1.0000 </r>
       <r>    3.3797    1.0000 </r>
       <r>    3.3923    1.0000 </r>
       <r>    3.4176    1.0000 </r>
       <r>    3.4179    1.0000 </r>
       <r>    3.4187    1.0000 </r>
       <r>    3.4347    1.0000 </r>
       <r>    3.4351    1.0000 </r>
       <r>    3.5049    1.0000 </r>
       <r>    3.5061    1.0000 </r>
       <r>    3.5068    1.0000 </r>
       <r>    3.5095    1.0000 </r>
       <r>    3.5114    1.0000 </r>
       <r>    3.5130    1.0000 </r>
       <r>    3.5341    1.0000 </r>
       <r>    3.5765    1.0000 </r>
       <r>    3.5766    1.0000 </r>
       <r>    3.5767    1.0000 </r>
       <r>    3.6119    1.0000 </r>
       <r>    3.6122    1.0000 </r>
       <r>    3.6131    1.0000 </r>
       <r>    3.6333    1.0000 </r>
       <r>    3.6335    1.0000 </r>
       <r>    3.6343    1.0000 </r>
       <r>    3.6979    1.0000 </r>
       <r>    3.6992    1.0000 </r>
       <r>    3.7006    1.0000 </r>
       <r>    3.8727    1.0000 </r>
       <r>    3.8732    1.0000 </r>
       <r>    3.9183    1.0000 </r>
       <r>    3.9202    1.0000 </r>
       <r>    3.9223    1.0000 </r>
       <r>    4.0398    1.0000 </r>
       <r>    4.0401    1.0000 </r>
       <r>    4.0402    1.0000 </r>
       <r>    4.0704    1.0000 </r>
       <r>    4.1009    1.0000 </r>
       <r>    4.1020    1.0000 </r>
       <r>    4.1032    1.0000 </r>
       <r>    4.2247    1.0000 </r>
       <r>    4.2266    1.0000 </r>
       <r>    4.2277    1.0000 </r>
       <r>    4.2607    1.0000 </r>
       <r>    4.2621    1.0000 </r>
       <r>    4.2639    1.0000 </r>
       <r>    4.4003    1.0000 </r>
       <r>    4.4029    1.0000 </r>
       <r>    4.4055    1.0000 </r>
       <r>    4.4351    1.0000 </r>
       <r>    4.4364    1.0000 </r>
       <r>    4.4380    1.0000 </r>
       <r>    4.5263    1.0000 </r>
       <r>    4.5273    1.0000 </r>
       <r>    4.5280    1.0000 </r>
       <r>    4.5645    1.0000 </r>
       <r>    4.5677    1.0000 </r>
       <r>    4.5697    1.0000 </r>
       <r>    4.6366    1.0000 </r>
       <r>    4.6374    1.0000 </r>
       <r>    4.6398    1.0000 </r>
       <r>    4.6469    1.0000 </r>
       <r>    4.6498    1.0000 </r>
       <r>    4.6531    1.0000 </r>
       <r>    4.7211    1.0000 </r>
       <r>    4.7221    1.0000 </r>
       <r>    4.7229    1.0000 </r>
       <r>    4.7721    1.0000 </r>
       <r>    4.7722    1.0000 </r>
       <r>    4.7726    1.0000 </r>
       <r>    4.9024    1.0000 </r>
       <r>    4.9031    1.0000 </r>
       <r>    4.9196    1.0000 </r>
       <r>    4.9197    1.0000 </r>
       <r>    4.9199    1.0000 </r>
       <r>    4.9474    1.0000 </r>
       <r>    4.9492    1.0000 </r>
       <r>    4.9524    1.0000 </r>
       <r>    5.1148    1.0000 </r>
       <r>    5.1162    1.0000 </r>
       <r>    5.1178    1.0000 </r>
       <r>    5.1716    1.0000 </r>
       <r>    5.2057    1.0000 </r>
       <r>    5.2076    1.0000 </r>
       <r>    5.2103    1.0000 </r>
       <r>    5.3782    1.0000 </r>
       <r>    5.3792    1.0000 </r>
       <r>    5.3799    1.0000 </r>
       <r>    5.4292    1.0000 </r>
       <r>    5.4307    1.0000 </r>
       <r>    5.4322    1.0000 </r>
       <r>    5.4975    1.0000 </r>
       <r>    5.5004    1.0000 </r>
       <r>    5.5058    1.0000 </r>
       <r>    5.5220    1.0000 </r>
       <r>    5.5222    1.0000 </r>
       <r>    5.5229    1.0000 </r>
       <r>    5.5445    1.0000 </r>
       <r>    5.5483    1.0000 </r>
       <r>    5.5513    1.0000 </r>
       <r>    5.6251    1.0000 </r>
       <r>    5.6528    1.0000 </r>
       <r>    5.6546    1.0000 </r>
       <r>    5.6586    1.0000 </r>
       <r>    5.6595    1.0000 </r>
       <r>    5.6622    1.0000 </r>
       <r>    5.7193    1.0000 </r>
       <r>    5.7197    1.0000 </r>
       <r>    5.7209    1.0000 </r>
       <r>    5.7211    1.0000 </r>
       <r>    5.7238    1.0000 </r>
       <r>    5.7242    1.0000 </r>
       <r>    5.9274    1.0000 </r>
       <r>    5.9293    1.0000 </r>
       <r>    5.9352    1.0000 </r>
       <r>    5.9364    1.0000 </r>
       <r>    5.9386    1.0000 </r>
       <r>    6.0663    1.0000 </r>
       <r>    6.0666    1.0000 </r>
       <r>    6.0695    1.0000 </r>
       <r>    6.1692    1.0000 </r>
       <r>    6.1693    1.0000 </r>
       <r>    6.1779    1.0000 </r>
       <r>    6.1813    1.0000 </r>
       <r>    6.1853    1.0000 </r>
       <r>    6.1973    1.0000 </r>
       <r>    6.1973    1.0000 </r>
       <r>    6.2994    1.0000 </r>
       <r>    6.3267    1.0000 </r>
       <r>    6.3305    1.0000 </r>
       <r>    6.3347    1.0000 </r>
       <r>    6.4147    1.0000 </r>
       <r>    6.4154    1.0000 </r>
       <r>    6.4566    1.0000 </r>
       <r>    6.4570    1.0000 </r>
       <r>    6.4575    1.0000 </r>
       <r>    6.5050    1.0000 </r>
       <r>    6.5075    1.0000 </r>
       <r>    6.5104    1.0000 </r>
       <r>    6.5497    1.0000 </r>
       <r>    6.5501    1.0000 </r>
       <r>    6.5744    1.0000 </r>
       <r>    6.5758    1.0000 </r>
       <r>    6.5787    1.0000 </r>
       <r>    6.5795    1.0000 </r>
       <r>    6.5806    1.0000 </r>
       <r>    6.5818    1.0000 </r>
       <r>    6.5898    1.0000 </r>
       <r>    6.5902    1.0000 </r>
       <r>    6.5919    1.0000 </r>
       <r>    6.6228    1.0000 </r>
       <r>    6.6241    1.0000 </r>
       <r>    6.6255    1.0000 </r>
       <r>    6.6364    1.0000 </r>
       <r>    6.6529    1.0000 </r>
       <r>    6.6532    1.0000 </r>
       <r>    6.7144    1.0000 </r>
       <r>    6.7157    1.0000 </r>
       <r>    6.7182    1.0000 </r>
       <r>    6.7588    1.0000 </r>
       <r>    6.7589    1.0000 </r>
       <r>    6.7596    1.0000 </r>
       <r>    6.8304    1.0000 </r>
       <r>    6.8310    1.0000 </r>
       <r>    6.8320    1.0000 </r>
       <r>    6.9529    1.0000 </r>
       <r>    7.0035    1.0000 </r>
       <r>    7.0050    1.0000 </r>
       <r>    7.0052    1.0000 </r>
       <r>    7.1643    1.0000 </r>
       <r>    7.1681    1.0000 </r>
       <r>    7.1696    1.0000 </r>
       <r>    7.1718    1.0000 </r>
       <r>    7.1766    1.0000 </r>
       <r>    7.3497    1.0000 </r>
       <r>    7.3498    1.0000 </r>
       <r>    7.4238    1.0000 </r>
       <r>    7.4758    1.0000 </r>
       <r>    7.4771    1.0000 </r>
       <r>    7.4784    1.0000 </r>
       <r>    7.5796    1.0000 </r>
       <r>    7.5875    1.0000 </r>
       <r>    7.5895    1.0000 </r>
       <r>    7.5914    1.0000 </r>
       <r>    7.5924    1.0000 </r>
       <r>    7.5982    1.0000 </r>
       <r>    7.6181    1.0000 </r>
       <r>    7.6200    1.0000 </r>
       <r>    7.6206    1.0000 </r>
       <r>    7.6688    1.0000 </r>
       <r>    7.6702    1.0000 </r>
       <r>    7.6716    1.0000 </r>
       <r>    7.6963    1.0000 </r>
       <r>    7.6971    1.0000 </r>
       <r>    7.6986    1.0000 </r>
       <r>    7.8844    1.0000 </r>
       <r>    7.8846    1.0000 </r>
       <r>    7.8862    1.0000 </r>
       <r>    7.8934    1.0000 </r>
       <r>    7.8975    1.0000 </r>
       <r>    7.9021    1.0000 </r>
       <r>    8.0190    1.0000 </r>
       <r>    8.0241    1.0000 </r>
       <r>    8.0292    1.0000 </r>
       <r>    8.0478    1.0000 </r>
       <r>    8.0485    1.0000 </r>
       <r>    8.0504    1.0000 </r>
       <r>    8.1929    1.0000 </r>
       <r>    8.1973    1.0000 </r>
       <r>    8.2015    1.0000 </r>
       <r>    8.2139    1.0000 </r>
       <r>    8.2149    1.0000 </r>
       <r>    8.2160    1.0000 </r>
       <r>    8.2519    1.0000 </r>
       <r>    8.2561    1.0000 </r>
       <r>    8.2606    1.0000 </r>
       <r>    8.3324    1.0000 </r>
       <r>    8.3327    1.0000 </r>
       <r>    8.3328    1.0000 </r>
       <r>    8.3658    1.0000 </r>
       <r>    8.3671    1.0000 </r>
       <r>    8.4147    1.0000 </r>
       <r>    8.4148    1.0000 </r>
       <r>    8.4157    1.0000 </r>
       <r>    8.4538    1.0000 </r>
       <r>    8.4562    1.0000 </r>
       <r>    8.4584    1.0000 </r>
       <r>    8.5149    1.0000 </r>
       <r>    8.5155    1.0000 </r>
       <r>    8.5508    1.0000 </r>
       <r>    8.5546    1.0000 </r>
       <r>    8.5588    1.0000 </r>
       <r>    8.5704    1.0001 </r>
       <r>    8.5730    1.0001 </r>
       <r>    8.5749    1.0001 </r>
       <r>    8.6408    1.0018 </r>
       <r>    8.6411    1.0019 </r>
       <r>    8.6514    1.0028 </r>
       <r>    8.6538    1.0031 </r>
       <r>    8.6560    1.0034 </r>
       <r>    8.6964    1.0130 </r>
       <r>    8.6980    1.0136 </r>
       <r>    8.6983    1.0137 </r>
       <r>    8.7051    1.0164 </r>
       <r>    8.8340    0.8487 </r>
       <r>    8.8342    0.8477 </r>
       <r>    8.8768    0.5294 </r>
       <r>    8.9221    0.1778 </r>
       <r>    8.9235    0.1692 </r>
       <r>    8.9250    0.1605 </r>
       <r>    8.9396    0.0832 </r>
       <r>    8.9433    0.0668 </r>
       <r>    8.9468    0.0527 </r>
       <r>    9.1409   -0.0007 </r>
       <r>    9.1409   -0.0007 </r>
       <r>    9.2678   -0.0000 </r>
       <r>    9.2711   -0.0000 </r>
       <r>    9.2712   -0.0000 </r>
       <r>    9.2757   -0.0000 </r>
       <r>    9.2871   -0.0000 </r>
       <r>    9.2893   -0.0000 </r>
       <r>    9.2920   -0.0000 </r>
       <r>    9.6352   -0.0000 </r>
       <r>    9.6361   -0.0000 </r>
       <r>    9.6368   -0.0000 </r>
       <r>   10.2045   -0.0000 </r>
       <r>   10.2347   -0.0000 </r>
       <r>   10.2355   -0.0000 </r>
       <r>   10.3060   -0.0000 </r>
       <r>   10.3076   -0.0000 </r>
       <r>   10.3136   -0.0000 </r>
       <r>   10.3148   -0.0000 </r>
       <r>   10.3165   -0.0000 </r>
       <r>   10.3256   -0.0000 </r>
       <r>   10.3284   -0.0000 </r>
       <r>   10.3302   -0.0000 </r>
       <r>   10.3903   -0.0000 </r>
       <r>   10.3924   -0.0000 </r>
       <r>   10.3971   -0.0000 </r>
       <r>   10.4024   -0.0000 </r>
       <r>   10.4145   -0.0000 </r>
       <r>   10.4262   -0.0000 </r>
       <r>   10.4342   -0.0000 </r>
       <r>   10.4402   -0.0000 </r>
       <r>   10.4432   -0.0000 </r>
       <r>   10.4504   -0.0000 </r>
       <r>   10.4605   -0.0000 </r>
       <r>   10.4762   -0.0000 </r>
       <r>   10.4807   -0.0000 </r>
       <r>   10.5084   -0.0000 </r>
       <r>   10.5473   -0.0000 </r>
       <r>   12.7186    0.0000 </r>
       <r>   12.9400    0.0000 </r>
      </set>
      <set comment="kpoint 3">
       <r>    0.6667    1.0000 </r>
       <r>    1.1277    1.0000 </r>
       <r>    2.1350    1.0000 </r>
       <r>    2.1384    1.0000 </r>
       <r>    2.1414    1.0000 </r>
       <r>    2.2580    1.0000 </r>
       <r>    2.2608    1.0000 </r>
       <r>    2.2637    1.0000 </r>
       <r>    2.3055    1.0000 </r>
       <r>    2.4224    1.0000 </r>
       <r>    2.5526    1.0000 </r>
       <r>    2.5531    1.0000 </r>
       <r>    2.6796    1.0000 </r>
       <r>    2.6811    1.0000 </r>
       <r>    2.6827    1.0000 </r>
       <r>    2.8451    1.0000 </r>
       <r>    2.8456    1.0000 </r>
       <r>    2.8490    1.0000 </r>
       <r>    2.8605    1.0000 </r>
       <r>    2.9350    1.0000 </r>
       <r>    2.9351    1.0000 </r>
       <r>    3.0725    1.0000 </r>
       <r>    3.0727    1.0000 </r>
       <r>    3.1058    1.0000 </r>
       <r>    3.1111    1.0000 </r>
       <r>    3.1342    1.0000 </r>
       <r>    3.1350    1.0000 </r>
       <r>    3.1358    1.0000 </r>
       <r>    3.1850    1.0000 </r>
       <r>    3.2249    1.0000 </r>
       <r>    3.2251    1.0000 </r>
       <r>    3.3940    1.0000 </r>
       <r>    3.3971    1.0000 </r>
       <r>    3.3992    1.0000 </r>
       <r>    3.4063    1.0000 </r>
       <r>    3.4063    1.0000 </r>
       <r>    3.4125    1.0000 </r>
       <r>    3.4144    1.0000 </r>
       <r>    3.4168    1.0000 </r>
       <r>    3.5126    1.0000 </r>
       <r>    3.5135    1.0000 </r>
       <r>    3.5146    1.0000 </r>
       <r>    3.5153    1.0000 </r>
       <r>    3.5913    1.0000 </r>
       <r>    3.5919    1.0000 </r>
       <r>    3.5926    1.0000 </r>
       <r>    3.7032    1.0000 </r>
       <r>    3.7052    1.0000 </r>
       <r>    3.7067    1.0000 </r>
       <r>    3.7371    1.0000 </r>
       <r>    3.7376    1.0000 </r>
       <r>    3.7383    1.0000 </r>
       <r>    3.7697    1.0000 </r>
       <r>    3.7699    1.0000 </r>
       <r>    3.7700    1.0000 </r>
       <r>    3.8746    1.0000 </r>
       <r>    3.8760    1.0000 </r>
       <r>    3.8774    1.0000 </r>
       <r>    3.8873    1.0000 </r>
       <r>    3.8897    1.0000 </r>
       <r>    3.8918    1.0000 </r>
       <r>    3.9352    1.0000 </r>
       <r>    3.9363    1.0000 </r>
       <r>    3.9367    1.0000 </r>
       <r>    3.9467    1.0000 </r>
       <r>    3.9474    1.0000 </r>
       <r>    3.9487    1.0000 </r>
       <r>    4.0146    1.0000 </r>
       <r>    4.0158    1.0000 </r>
       <r>    4.0172    1.0000 </r>
       <r>    4.0652    1.0000 </r>
       <r>    4.0660    1.0000 </r>
       <r>    4.0671    1.0000 </r>
       <r>    4.1043    1.0000 </r>
       <r>    4.1061    1.0000 </r>
       <r>    4.1082    1.0000 </r>
       <r>    4.2236    1.0000 </r>
       <r>    4.2244    1.0000 </r>
       <r>    4.2262    1.0000 </r>
       <r>    4.3790    1.0000 </r>
       <r>    4.3792    1.0000 </r>
       <r>    4.3809    1.0000 </r>
       <r>    4.4392    1.0000 </r>
       <r>    4.4402    1.0000 </r>
       <r>    4.4411    1.0000 </r>
       <r>    4.4980    1.0000 </r>
       <r>    4.4983    1.0000 </r>
       <r>    4.4987    1.0000 </r>
       <r>    4.6990    1.0000 </r>
       <r>    4.7024    1.0000 </r>
       <r>    4.7052    1.0000 </r>
       <r>    4.8244    1.0000 </r>
       <r>    4.8280    1.0000 </r>
       <r>    4.8311    1.0000 </r>
       <r>    4.9089    1.0000 </r>
       <r>    4.9103    1.0000 </r>
       <r>    4.9116    1.0000 </r>
       <r>    4.9250    1.0000 </r>
       <r>    4.9286    1.0000 </r>
       <r>    4.9323    1.0000 </r>
       <r>    5.1079    1.0000 </r>
       <r>    5.1083    1.0000 </r>
       <r>    5.1087    1.0000 </r>
       <r>    5.1703    1.0000 </r>
       <r>    5.1704    1.0000 </r>
       <r>    5.1709    1.0000 </r>
       <r>    5.2127    1.0000 </r>
       <r>    5.2136    1.0000 </r>
       <r>    5.2150    1.0000 </r>
       <r>    5.2365    1.0000 </r>
       <r>    5.2409    1.0000 </r>
       <r>    5.2450    1.0000 </r>
       <r>    5.2759    1.0000 </r>
       <r>    5.2767    1.0000 </r>
       <r>    5.3188    1.0000 </r>
       <r>    5.3209    1.0000 </r>
       <r>    5.3230    1.0000 </r>
       <r>    5.3757    1.0000 </r>
       <r>    5.3779    1.0000 </r>
       <r>    5.3809    1.0000 </r>
       <r>    5.4381    1.0000 </r>
       <r>    5.5436    1.0000 </r>
       <r>    5.5440    1.0000 </r>
       <r>    5.6014    1.0000 </r>
       <r>    5.6030    1.0000 </r>
       <r>    5.6051    1.0000 </r>
       <r>    5.6206    1.0000 </r>
       <r>    5.6211    1.0000 </r>
       <r>    5.6220    1.0000 </r>
       <r>    5.7154    1.0000 </r>
       <r>    5.7501    1.0000 </r>
       <r>    5.8721    1.0000 </r>
       <r>    5.8747    1.0000 </r>
       <r>    5.8771    1.0000 </r>
       <r>    5.9260    1.0000 </r>
       <r>    5.9709    1.0000 </r>
       <r>    5.9723    1.0000 </r>
       <r>    5.9744    1.0000 </r>
       <r>    6.0335    1.0000 </r>
       <r>    6.0351    1.0000 </r>
       <r>    6.0363    1.0000 </r>
       <r>    6.0697    1.0000 </r>
       <r>    6.0714    1.0000 </r>
       <r>    6.0731    1.0000 </r>
       <r>    6.1348    1.0000 </r>
       <r>    6.1363    1.0000 </r>
       <r>    6.1392    1.0000 </r>
       <r>    6.1852    1.0000 </r>
       <r>    6.1898    1.0000 </r>
       <r>    6.1903    1.0000 </r>
       <r>    6.1923    1.0000 </r>
       <r>    6.1926    1.0000 </r>
       <r>    6.1939    1.0000 </r>
       <r>    6.1943    1.0000 </r>
       <r>    6.1999    1.0000 </r>
       <r>    6.2793    1.0000 </r>
       <r>    6.2794    1.0000 </r>
       <r>    6.2863    1.0000 </r>
       <r>    6.2870    1.0000 </r>
       <r>    6.2927    1.0000 </r>
       <r>    6.2931    1.0000 </r>
       <r>    6.3559    1.0000 </r>
       <r>    6.3562    1.0000 </r>
       <r>    6.3568    1.0000 </r>
       <r>    6.4365    1.0000 </r>
       <r>    6.4376    1.0000 </r>
       <r>    6.4388    1.0000 </r>
       <r>    6.4448    1.0000 </r>
       <r>    6.4458    1.0000 </r>
       <r>    6.4717    1.0000 </r>
       <r>    6.4740    1.0000 </r>
       <r>    6.4762    1.0000 </r>
       <r>    6.5337    1.0000 </r>
       <r>    6.6147    1.0000 </r>
       <r>    6.6160    1.0000 </r>
       <r>    6.6191    1.0000 </r>
       <r>    6.6508    1.0000 </r>
       <r>    6.6509    1.0000 </r>
       <r>    6.6841    1.0000 </r>
       <r>    6.6845    1.0000 </r>
       <r>    6.6868    1.0000 </r>
       <r>    6.7190    1.0000 </r>
       <r>    6.7202    1.0000 </r>
       <r>    6.7211    1.0000 </r>
       <r>    6.8071    1.0000 </r>
       <r>    6.8678    1.0000 </r>
       <r>    6.8695    1.0000 </r>
       <r>    6.8714    1.0000 </r>
       <r>    6.8757    1.0000 </r>
       <r>    6.8777    1.0000 </r>
       <r>    6.8800    1.0000 </r>
       <r>    6.9154    1.0000 </r>
       <r>    6.9322    1.0000 </r>
       <r>    6.9325    1.0000 </r>
       <r>    6.9336    1.0000 </r>
       <r>    6.9706    1.0000 </r>
       <r>    6.9730    1.0000 </r>
       <r>    6.9772    1.0000 </r>
       <r>    7.1399    1.0000 </r>
       <r>    7.1400    1.0000 </r>
       <r>    7.2019    1.0000 </r>
       <r>    7.2046    1.0000 </r>
       <r>    7.2066    1.0000 </r>
       <r>    7.3975    1.0000 </r>
       <r>    7.4024    1.0000 </r>
       <r>    7.4063    1.0000 </r>
       <r>    7.4170    1.0000 </r>
       <r>    7.4660    1.0000 </r>
       <r>    7.4716    1.0000 </r>
       <r>    7.4770    1.0000 </r>
       <r>    7.6493    1.0000 </r>
       <r>    7.6516    1.0000 </r>
       <r>    7.6523    1.0000 </r>
       <r>    7.6768    1.0000 </r>
       <r>    7.6775    1.0000 </r>
       <r>    7.6794    1.0000 </r>
       <r>    7.7362    1.0000 </r>
       <r>    7.7372    1.0000 </r>
       <r>    7.7382    1.0000 </r>
       <r>    7.8057    1.0000 </r>
       <r>    7.8065    1.0000 </r>
       <r>    7.8074    1.0000 </r>
       <r>    7.8461    1.0000 </r>
       <r>    7.9379    1.0000 </r>
       <r>    7.9382    1.0000 </r>
       <r>    7.9496    1.0000 </r>
       <r>    7.9853    1.0000 </r>
       <r>    7.9890    1.0000 </r>
       <r>    7.9937    1.0000 </r>
       <r>    8.1106    1.0000 </r>
       <r>    8.1132    1.0000 </r>
       <r>    8.1168    1.0000 </r>
       <r>    8.1851    1.0000 </r>
       <r>    8.1910    1.0000 </r>
       <r>    8.1953    1.0000 </r>
       <r>    8.2252    1.0000 </r>
       <r>    8.2293    1.0000 </r>
       <r>    8.2340    1.0000 </r>
       <r>    8.2511    1.0000 </r>
       <r>    8.2517    1.0000 </r>
       <r>    8.2850    1.0000 </r>
       <r>    8.2899    1.0000 </r>
       <r>    8.2949    1.0000 </r>
       <r>    8.3653    1.0000 </r>
       <r>    8.3685    1.0000 </r>
       <r>    8.3738    1.0000 </r>
       <r>    8.3844    1.0000 </r>
       <r>    8.3856    1.0000 </r>
       <r>    8.3860    1.0000 </r>
       <r>    8.3877    1.0000 </r>
       <r>    8.4020    1.0000 </r>
       <r>    8.4034    1.0000 </r>
       <r>    8.4392    1.0000 </r>
       <r>    8.4401    1.0000 </r>
       <r>    8.4416    1.0000 </r>
       <r>    8.4499    1.0000 </r>
       <r>    8.4499    1.0000 </r>
       <r>    8.5577    1.0000 </r>
       <r>    8.5578    1.0000 </r>
       <r>    8.5582    1.0000 </r>
       <r>    8.5832    1.0001 </r>
       <r>    8.5834    1.0001 </r>
       <r>    8.5840    1.0001 </r>
       <r>    9.0874   -0.0063 </r>
       <r>    9.0986   -0.0042 </r>
       <r>    9.1022   -0.0037 </r>
       <r>    9.1055   -0.0033 </r>
       <r>    9.1626   -0.0002 </r>
       <r>    9.1663   -0.0002 </r>
       <r>    9.1687   -0.0002 </r>
       <r>    9.1986   -0.0000 </r>
       <r>    9.2009   -0.0000 </r>
       <r>    9.2018   -0.0000 </r>
       <r>    9.2141   -0.0000 </r>
       <r>    9.2163   -0.0000 </r>
       <r>    9.2203   -0.0000 </r>
       <r>    9.2507   -0.0000 </r>
       <r>    9.2507   -0.0000 </r>
       <r>    9.2876   -0.0000 </r>
       <r>    9.2879   -0.0000 </r>
       <r>    9.3766   -0.0000 </r>
       <r>    9.4619   -0.0000 </r>
       <r>    9.4628   -0.0000 </r>
       <r>    9.4639   -0.0000 </r>
       <r>    9.5936   -0.0000 </r>
       <r>    9.5936   -0.0000 </r>
       <r>    9.6331   -0.0000 </r>
       <r>    9.6357   -0.0000 </r>
       <r>    9.6386   -0.0000 </r>
       <r>    9.8463   -0.0000 </r>
       <r>    9.8475   -0.0000 </r>
       <r>    9.8501   -0.0000 </r>
       <r>    9.8576   -0.0000 </r>
       <r>    9.8591   -0.0000 </r>
       <r>    9.8644   -0.0000 </r>
       <r>    9.8657   -0.0000 </r>
       <r>    9.8702   -0.0000 </r>
       <r>    9.9537   -0.0000 </r>
       <r>    9.9653   -0.0000 </r>
       <r>    9.9658   -0.0000 </r>
       <r>    9.9665   -0.0000 </r>
       <r>    9.9903   -0.0000 </r>
       <r>    9.9904   -0.0000 </r>
       <r>    9.9914   -0.0000 </r>
       <r>    9.9915   -0.0000 </r>
       <r>    9.9941   -0.0000 </r>
       <r>    9.9968   -0.0000 </r>
       <r>   10.0114   -0.0000 </r>
       <r>   10.0119   -0.0000 </r>
       <r>   10.3141   -0.0000 </r>
       <r>   10.3188   -0.0000 </r>
       <r>   10.3306   -0.0000 </r>
       <r>   10.3489   -0.0000 </r>
       <r>   10.3834   -0.0000 </r>
       <r>   10.4299   -0.0000 </r>
       <r>   10.4570   -0.0000 </r>
       <r>   10.4738   -0.0000 </r>
       <r>   10.5049   -0.0000 </r>
       <r>   10.6023   -0.0000 </r>
       <r>   12.7521    0.0000 </r>
      </set>
      <set comment="kpoint 4">
       <r>    0.3997    1.0000 </r>
       <r>    1.9227    1.0000 </r>
       <r>    1.9231    1.0000 </r>
       <r>    1.9231    1.0000 </r>
       <r>    1.9232    1.0000 </r>
       <r>    2.0748    1.0000 </r>
       <r>    2.1780    1.0000 </r>
       <r>    2.3701    1.0000 </r>
       <r>    2.3765    1.0000 </r>
       <r>    2.4139    1.0000 </r>
       <r>    2.4140    1.0000 </r>
       <r>    2.4140    1.0000 </r>
       <r>    2.4140    1.0000 </r>
       <r>    2.5252    1.0000 </r>
       <r>    2.5252    1.0000 </r>
       <r>    2.6856    1.0000 </r>
       <r>    2.7259    1.0000 </r>
       <r>    2.7323    1.0000 </r>
       <r>    2.7323    1.0000 </r>
       <r>    2.8787    1.0000 </r>
       <r>    2.9135    1.0000 </r>
       <r>    2.9135    1.0000 </r>
       <r>    3.2534    1.0000 </r>
       <r>    3.3006    1.0000 </r>
       <r>    3.3009    1.0000 </r>
       <r>    3.3009    1.0000 </r>
       <r>    3.3009    1.0000 </r>
       <r>    3.3385    1.0000 </r>
       <r>    3.3390    1.0000 </r>
       <r>    3.3391    1.0000 </r>
       <r>    3.3391    1.0000 </r>
       <r>    3.4239    1.0000 </r>
       <r>    3.4429    1.0000 </r>
       <r>    3.4461    1.0000 </r>
       <r>    3.4467    1.0000 </r>
       <r>    3.4467    1.0000 </r>
       <r>    3.4473    1.0000 </r>
       <r>    3.4492    1.0000 </r>
       <r>    3.4492    1.0000 </r>
       <r>    3.5501    1.0000 </r>
       <r>    3.5501    1.0000 </r>
       <r>    3.5506    1.0000 </r>
       <r>    3.5509    1.0000 </r>
       <r>    3.5657    1.0000 </r>
       <r>    3.5661    1.0000 </r>
       <r>    3.5666    1.0000 </r>
       <r>    3.5666    1.0000 </r>
       <r>    3.6215    1.0000 </r>
       <r>    3.6216    1.0000 </r>
       <r>    3.6943    1.0000 </r>
       <r>    3.6955    1.0000 </r>
       <r>    3.6961    1.0000 </r>
       <r>    3.6961    1.0000 </r>
       <r>    3.7054    1.0000 </r>
       <r>    3.7066    1.0000 </r>
       <r>    3.7083    1.0000 </r>
       <r>    3.8473    1.0000 </r>
       <r>    3.8821    1.0000 </r>
       <r>    4.0362    1.0000 </r>
       <r>    4.0362    1.0000 </r>
[...]
      </set>
     </set>
    </set>
   </array>
  </eigenvalues>
  <separator name="orbital magnetization" >
   <v name="MAGDIPOLOUT">      0.00000000      0.00000000      0.00000000</v>
  </separator>
  <dos>
   <i name="efermi">      8.88027281 </i>
   <total>
    <array>
     <dimension dim="1">gridpoints</dimension>
     <dimension dim="2">spin</dimension>
     <field>energy</field>
     <field>total</field>
     <field>integrated</field>
     <set>
      <set comment="spin 1">
       <r>    -0.7394     0.0000     0.0000 </r>
       <r>    -0.6880     0.0000     0.0000 </r>
       <r>    -0.6366     0.0000     0.0000 </r>
       <r>    -0.5852    -0.0000    -0.0000 </r>
       <r>    -0.5338    -0.0000    -0.0000 </r>
       <r>    -0.4824    -0.0000    -0.0000 </r>
       <r>    -0.4311    -0.0000    -0.0000 </r>
       <r>    -0.3797    -0.0000    -0.0000 </r>
       <r>    -0.3283    -0.0000    -0.0000 </r>
       <r>    -0.2769    -0.0000    -0.0000 </r>
       <r>    -0.2255    -0.0000    -0.0000 </r>
       <r>    -0.1741    -0.0000    -0.0000 </r>
       <r>    -0.1227    -0.0000    -0.0000 </r>
       <r>    -0.0714    -0.0000    -0.0000 </r>
       <r>    -0.0200    -0.0001    -0.0000 </r>
       <r>     0.0314    -0.0008    -0.0000 </r>
       <r>     0.0828    -0.0045    -0.0003 </r>
       <r>     0.1342    -0.0131    -0.0010 </r>
       <r>     0.1856    -0.0199    -0.0020 </r>
       <r>     0.2369     0.0052    -0.0017 </r>
       <r>     0.2883     0.2397     0.0106 </r>
       <r>     0.3397     0.9483     0.0593 </r>
       <r>     0.3911     1.6195     0.1426 </r>
       <r>     0.4425     1.3968     0.2143 </r>
       <r>     0.4939     1.0193     0.2667 </r>
       <r>     0.5453     1.5676     0.3473 </r>
       <r>     0.5966     2.9329     0.4980 </r>
       <r>     0.6480     4.1398     0.7107 </r>
       <r>     0.6994     3.3939     0.8851 </r>
       <r>     0.7508     1.3059     0.9522 </r>
       <r>     0.8022     0.6496     0.9856 </r>
       <r>     0.8536     2.4685     1.1124 </r>
       <r>     0.9050     5.2246     1.3809 </r>
       <r>     0.9563     5.6495     1.6712 </r>
       <r>     1.0077     4.0011     1.8768 </r>
       <r>     1.0591     3.6620     2.0649 </r>
       <r>     1.1105     4.6153     2.3021 </r>
       <r>     1.1619     4.5727     2.5371 </r>
       <r>     1.2133     2.6241     2.6719 </r>
       <r>     1.2646     1.1953     2.7333 </r>
       <r>     1.3160     3.4691     2.9116 </r>
       <r>     1.3674     8.4063     3.3435 </r>
       <r>     1.4188     9.8455     3.8494 </r>
       <r>     1.4702     6.3010     4.1732 </r>
       <r>     1.5216     4.6890     4.4142 </r>
       <r>     1.5730     6.4641     4.7463 </r>
       <r>     1.6243     6.8092     5.0962 </r>
       <r>     1.6757     4.2529     5.3147 </r>
       <r>     1.7271     1.9795     5.4165 </r>
       <r>     1.7785     3.9429     5.6191 </r>
       <r>     1.8299     8.9827     6.0806 </r>
       <r>     1.8813    12.4456     6.7202 </r>
       <r>     1.9327    12.6304     7.3692 </r>
       <r>     1.9840    10.7352     7.9208 </r>
       <r>     2.0354     9.1180     8.3893 </r>
       <r>     2.0868     8.9124     8.8473 </r>
       <r>     2.1382     9.5491     9.3380 </r>
       <r>     2.1896     8.9687     9.7988 </r>
       <r>     2.2410     7.9961    10.2097 </r>
       <r>     2.2923    13.0973    10.8827 </r>
       <r>     2.3437    25.6334    12.1999 </r>
       <r>     2.3951    35.3390    14.0158 </r>
       <r>     2.4465    37.3850    15.9368 </r>
       <r>     2.4979    38.6619    17.9234 </r>
       <r>     2.5493    38.3406    19.8936 </r>
       <r>     2.6007    35.6288    21.7244 </r>
       <r>     2.6520    36.2297    23.5860 </r>
       <r>     2.7034    38.0668    25.5421 </r>
       <r>     2.7548    42.1398    27.7074 </r>
       <r>     2.8062    52.3706    30.3985 </r>
       <r>     2.8576    59.1100    33.4359 </r>
       <r>     2.9090    55.8347    36.3049 </r>
       <r>     2.9604    52.0662    38.9804 </r>
       <r>     3.0117    54.3182    41.7715 </r>
       <r>     3.0631    60.5917    44.8850 </r>
       <r>     3.1145    67.7517    48.3664 </r>
       <r>     3.1659    69.1164    51.9180 </r>
       <r>     3.2173    66.9277    55.3571 </r>
       <r>     3.2687    70.7703    58.9936 </r>
       <r>     3.3200    81.0917    63.1605 </r>
       <r>     3.3714    97.7462    68.1832 </r>
       <r>     3.4228   114.6712    74.0755 </r>
       <r>     3.4742   118.5337    80.1664 </r>
       <r>     3.5256   117.1930    86.1884 </r>
       <r>     3.5770   119.6046    92.3342 </r>
       <r>     3.6284   109.6196    97.9670 </r>
       <r>     3.6797    91.5981   102.6738 </r>
       <r>     3.7311    94.9065   107.5506 </r>
       <r>     3.7825   112.4867   113.3307 </r>
       <r>     3.8339   111.5023   119.0603 </r>
       <r>     3.8853    91.8379   123.7794 </r>
       <r>     3.9367    74.2145   127.5929 </r>
       <r>     3.9880    70.5436   131.2178 </r>
       <r>     4.0394    82.2149   135.4424 </r>
       <r>     4.0908    91.9043   140.1649 </r>
       <r>     4.1422    85.1932   144.5425 </r>
       <r>     4.1936    74.5809   148.3749 </r>
       <r>     4.2450    70.1901   151.9816 </r>
       <r>     4.2964    66.5996   155.4038 </r>
       <r>     4.3477    61.6973   158.5741 </r>
       <r>     4.3991    65.9182   161.9613 </r>
       <r>     4.4505    73.2283   165.7241 </r>
       <r>     4.5019    62.6463   168.9432 </r>
       <r>     4.5533    47.7042   171.3945 </r>
       <r>     4.6047    54.7068   174.2056 </r>
       <r>     4.6561    77.3868   178.1821 </r>
       <r>     4.7074    89.7180   182.7923 </r>
       <r>     4.7588    78.4591   186.8239 </r>
       <r>     4.8102    61.0727   189.9621 </r>
       <r>     4.8616    62.3444   193.1657 </r>
       <r>     4.9130    77.3424   197.1399 </r>
       <r>     4.9644    82.2212   201.3649 </r>
       <r>     5.0157    74.0521   205.1700 </r>
       <r>     5.0671    64.9422   208.5071 </r>
       <r>     5.1185    60.4857   211.6152 </r>
       <r>     5.1699    62.0681   214.8045 </r>
       <r>     5.2213    67.7978   218.2883 </r>
       <r>     5.2727    77.7195   222.2819 </r>
       <r>     5.3241    92.3424   227.0270 </r>
       <r>     5.3754    96.6189   231.9917 </r>
       <r>     5.4268    79.1367   236.0582 </r>
       <r>     5.4782    60.6793   239.1762 </r>
       <r>     5.5296    64.5914   242.4952 </r>
       <r>     5.5810    79.3143   246.5708 </r>
       <r>     5.6324    85.3591   250.9569 </r>
       <r>     5.6838    87.5893   255.4577 </r>
       <r>     5.7351    94.3048   260.3036 </r>
       <r>     5.7865    88.8164   264.8674 </r>
       <r>     5.8379    69.2801   268.4273 </r>
       <r>     5.8893    60.9181   271.5576 </r>
       <r>     5.9407    63.3526   274.8130 </r>
       <r>     5.9921    66.3587   278.2228 </r>
       <r>     6.0434    76.5975   282.1588 </r>
       <r>     6.0948    92.8503   286.9299 </r>
       <r>     6.1462   101.9806   292.1702 </r>
       <r>     6.1976    98.9821   297.2564 </r>
       <r>     6.2490   100.6719   302.4294 </r>
       <r>     6.3004   113.8394   308.2790 </r>
       <r>     6.3518   121.2632   314.5101 </r>
       <r>     6.4031   129.0318   321.1404 </r>
       <r>     6.4545   148.6011   328.7763 </r>
       <r>     6.5059   157.9091   336.8905 </r>
       <r>     6.5573   146.5311   344.4200 </r>
       <r>     6.6087   129.8836   351.0940 </r>
       <r>     6.6601   117.7822   357.1463 </r>
       <r>     6.7115   109.3367   362.7645 </r>
       <r>     6.7628    97.4229   367.7706 </r>
       <r>     6.8142    81.0789   371.9369 </r>
       <r>     6.8656    70.0860   375.5382 </r>
       <r>     6.9170    68.9913   379.0833 </r>
       <r>     6.9684    77.5894   383.0703 </r>
       <r>     7.0198    87.6184   387.5725 </r>
       <r>     7.0711    90.6295   392.2295 </r>
       <r>     7.1225    89.9024   396.8492 </r>
       <r>     7.1739    83.1685   401.1228 </r>
       <r>     7.2253    69.2939   404.6834 </r>
       <r>     7.2767    60.2392   407.7788 </r>
       <r>     7.3281    63.1866   411.0257 </r>
       <r>     7.3795    69.1527   414.5791 </r>
       <r>     7.4308    64.4602   417.8914 </r>
       <r>     7.4822    57.1481   420.8279 </r>
       <r>     7.5336    59.5843   423.8897 </r>
       <r>     7.5850    66.1415   427.2884 </r>
       <r>     7.6364    73.9228   431.0869 </r>
       <r>     7.6878    79.3977   435.1667 </r>
       <r>     7.7392    74.7465   439.0076 </r>
       <r>     7.7905    65.9710   442.3975 </r>
       <r>     7.8419    63.9712   445.6847 </r>
       <r>     7.8933    72.2625   449.3979 </r>
       <r>     7.9447    87.8707   453.9131 </r>
       <r>     7.9961    96.7844   458.8864 </r>
       <r>     8.0475    92.5681   463.6430 </r>
       <r>     8.0988    83.7257   467.9452 </r>
       <r>     8.1502    73.7317   471.7339 </r>
       <r>     8.2016    68.7161   475.2649 </r>
       <r>     8.2530    71.6849   478.9484 </r>
       <r>     8.3044    79.5532   483.0363 </r>
       <r>     8.3558    90.3013   487.6764 </r>
       <r>     8.4072    89.1485   492.2573 </r>
       <r>     8.4585    65.6641   495.6314 </r>
       <r>     8.5099    41.6744   497.7729 </r>
       <r>     8.5613    50.2695   500.3560 </r>
       <r>     8.6127    78.5931   504.3945 </r>
       <r>     8.6641    89.0071   508.9681 </r>
       <r>     8.7155    86.2016   513.3976 </r>
       <r>     8.7669    89.4897   517.9960 </r>
       <r>     8.8182    93.2044   522.7853 </r>
       <r>     8.8696    85.7107   527.1896 </r>
       <r>     8.9210    69.0354   530.7369 </r>
       <r>     8.9724    53.6783   533.4952 </r>
       <r>     9.0238    42.3718   535.6725 </r>
       <r>     9.0752    37.4589   537.5973 </r>
       <r>     9.1265    47.5799   540.0422 </r>
       <r>     9.1779    62.6885   543.2634 </r>
       <r>     9.2293    62.9963   546.5005 </r>
       <r>     9.2807    52.9495   549.2213 </r>
       <r>     9.3321    51.0129   551.8426 </r>
       <r>     9.3835    68.2235   555.3483 </r>
       <r>     9.4349    90.8780   560.0180 </r>
       <r>     9.4862    93.7093   564.8333 </r>
       <r>     9.5376    76.0462   568.7409 </r>
       <r>     9.5890    62.6073   571.9580 </r>
       <r>     9.6404    64.2280   575.2584 </r>
       <r>     9.6918    61.4940   578.4182 </r>
       <r>     9.7432    53.5050   581.1676 </r>
       <r>     9.7946    56.0320   584.0468 </r>
       <r>     9.8459    63.3588   587.3025 </r>
       <r>     9.8973    70.9037   590.9459 </r>
       <r>     9.9487    82.3994   595.1800 </r>
       <r>    10.0001    89.8382   599.7963 </r>
       <r>    10.0515    87.7872   604.3072 </r>
       <r>    10.1029    88.2550   608.8422 </r>
       <r>    10.1542    95.2234   613.7353 </r>
       <r>    10.2056    95.3291   618.6338 </r>
       <r>    10.2570    85.5050   623.0274 </r>
       <r>    10.3084    76.6655   626.9669 </r>
       <r>    10.3598    69.1028   630.5177 </r>
       <r>    10.4112    58.6508   633.5315 </r>
       <r>    10.4626    45.9233   635.8913 </r>
       <r>    10.5139    30.9070   637.4794 </r>
       <r>    10.5653    17.9101   638.3998 </r>
       <r>    10.6167    10.5895   638.9439 </r>
       <r>    10.6681     5.7542   639.2396 </r>
       <r>    10.7195     1.5714   639.3203 </r>
       <r>    10.7709    -0.3204   639.3039 </r>
       <r>    10.8223    -0.3515   639.2858 </r>
       <r>    10.8736    -0.0984   639.2807 </r>
       <r>    10.9250    -0.0134   639.2801 </r>
       <r>    10.9764    -0.0010   639.2800 </r>
       <r>    11.0278    -0.0000   639.2800 </r>
       <r>    11.0792    -0.0000   639.2800 </r>
       <r>    11.1306    -0.0000   639.2800 </r>
       <r>    11.1819    -0.0000   639.2800 </r>
       <r>    11.2333    -0.0000   639.2800 </r>
       <r>    11.2847    -0.0005   639.2800 </r>
       <r>    11.3361    -0.0047   639.2797 </r>
       <r>    11.3875    -0.0233   639.2785 </r>
       <r>    11.4389    -0.0373   639.2766 </r>
       <r>    11.4903     0.1094   639.2822 </r>
       <r>    11.5416     0.5257   639.3093 </r>
       <r>    11.5930     0.7829   639.3495 </r>
       <r>    11.6444     0.4923   639.3748 </r>
       <r>    11.6958     0.0883   639.3793 </r>
       <r>    11.7472    -0.0389   639.3773 </r>
       <r>    11.7986    -0.0213   639.3762 </r>
       <r>    11.8500    -0.0047   639.3760 </r>
       <r>    11.9013    -0.0046   639.3758 </r>
       <r>    11.9527    -0.0126   639.3751 </r>
       <r>    12.0041     0.0032   639.3753 </r>
       <r>    12.0555     0.1067   639.3808 </r>
       <r>    12.1069     0.2384   639.3930 </r>
       <r>    12.1583     0.2040   639.4035 </r>
       <r>    12.2096     0.0616   639.4067 </r>
       <r>    12.2610     0.1148   639.4126 </r>
       <r>    12.3124     0.3927   639.4327 </r>
       <r>    12.3638     0.5805   639.4626 </r>
       <r>    12.4152     0.6062   639.4937 </r>
       <r>    12.4666     0.5347   639.5212 </r>
       <r>    12.5180     0.2661   639.5349 </r>
       <r>    12.5693    -0.0368   639.5330 </r>
       <r>    12.6207    -0.0673   639.5295 </r>
       <r>    12.6721     0.5256   639.5565 </r>
       <r>    12.7235     1.6073   639.6391 </r>
       <r>    12.7749     1.9028   639.7369 </r>
       <r>    12.8263     1.0001   639.7883 </r>
       <r>    12.8777     0.3923   639.8084 </r>
       <r>    12.9290     0.7468   639.8468 </r>
       <r>    12.9804     0.9564   639.8959 </r>
       <r>    13.0318     0.4683   639.9200 </r>
       <r>    13.0832     0.0517   639.9227 </r>
       <r>    13.1346     0.1778   639.9318 </r>
       <r>    13.1860     0.4755   639.9562 </r>
       <r>    13.2373     0.4347   639.9786 </r>
       <r>    13.2887     0.1463   639.9861 </r>
       <r>    13.3401    -0.0131   639.9854 </r>
       <r>    13.3915    -0.0214   639.9843 </r>
       <r>    13.4429    -0.0063   639.9840 </r>
       <r>    13.4943    -0.0042   639.9838 </r>
       <r>    13.5457    -0.0065   639.9834 </r>
       <r>    13.5970     0.0146   639.9842 </r>
       <r>    13.6484     0.0819   639.9884 </r>
       <r>    13.6998     0.1305   639.9951 </r>
       <r>    13.7512     0.0878   639.9996 </r>
       <r>    13.8026     0.0183   640.0006 </r>
       <r>    13.8540    -0.0062   640.0002 </r>
       <r>    13.9054    -0.0039   640.0000 </r>
       <r>    13.9567    -0.0008   640.0000 </r>
       <r>    14.0081    -0.0001   640.0000 </r>
       <r>    14.0595    -0.0000   640.0000 </r>
       <r>    14.1109    -0.0000   640.0000 </r>
       <r>    14.1623    -0.0000   640.0000 </r>
       <r>    14.2137    -0.0000   640.0000 </r>
       <r>    14.2650    -0.0000   640.0000 </r>
       <r>    14.3164    -0.0000   640.0000 </r>
       <r>    14.3678     0.0000   640.0000 </r>
       <r>    14.4192     0.0000   640.0000 </r>
       <r>    14.4706     0.0000   640.0000 </r>
       <r>    14.5220     0.0000   640.0000 </r>
       <r>    14.5734     0.0000   640.0000 </r>
       <r>    14.6247     0.0000   640.0000 </r>
       <r>    14.6761     0.0000   640.0000 </r>
      </set>
     </set>
    </array>
   </total>
  </dos>
 </calculation>
 <structure name="finalpos" >
  <crystal>
   <varray name="basis" >
    <v>       7.65376000       0.00000000       7.65376000 </v>
    <v>       7.65376000       7.65376000       0.00000000 </v>
    <v>       0.00000000       7.65376000       7.65376000 </v>
   </varray>
   <i name="volume">    896.71516662 </i>
   <varray name="rec_basis" >
    <v>       0.06532737      -0.06532737       0.06532737 </v>
    <v>       0.06532737       0.06532737      -0.06532737 </v>
    <v>      -0.06532737       0.06532737       0.06532737 </v>
   </varray>
  </crystal>
  <varray name="positions" >
   <v>       0.25261250       0.25261250       0.24738750 </v>
   <v>       0.25000000       0.75000000       0.25000000 </v>
   <v>       0.75000000       0.25000000       0.25000000 </v>
   <v>       0.25000000       0.25000000       0.75000000 </v>
   <v>       0.50000000       0.50000000       0.50000000 </v>
   <v>       0.75000000       0.75000000       0.25000000 </v>
   <v>       0.25000000       0.75000000       0.75000000 </v>
   <v>       0.50000000       0.00000000       0.50000000 </v>
   <v>       0.75000000       0.25000000       0.75000000 </v>
   <v>       0.00000000       0.50000000       0.50000000 </v>
   <v>       0.50000000       0.50000000       0.00000000 </v>
   <v>       0.75000000       0.75000000       0.75000000 </v>
   <v>       0.00000000       0.00000000       0.50000000 </v>
   <v>       0.50000000       0.00000000       0.00000000 </v>
   <v>       0.00000000       0.50000000       0.00000000 </v>
   <v>       0.00000000       0.00000000       0.00000000 </v>
   <v>       0.25000000       0.25000000       0.00000000 </v>
   <v>       0.00000000       0.25000000       0.25000000 </v>
   <v>       0.25000000       0.00000000       0.25000000 </v>
   <v>       0.25000000       0.75000000       0.00000000 </v>
   <v>       0.00000000       0.75000000       0.25000000 </v>
   <v>       0.25000000       0.50000000       0.25000000 </v>
   <v>       0.75000000       0.25000000       0.00000000 </v>
   <v>       0.50000000       0.25000000       0.25000000 </v>
   <v>       0.75000000       0.00000000       0.25000000 </v>
   <v>       0.25000000       0.25000000       0.50000000 </v>
   <v>       0.00000000       0.25000000       0.75000000 </v>
   <v>       0.25000000       0.00000000       0.75000000 </v>
   <v>       0.50000000       0.50000000       0.25000000 </v>
   <v>       0.25000000       0.50000000       0.50000000 </v>
   <v>       0.50000000       0.25000000       0.50000000 </v>
   <v>       0.75000000       0.75000000       0.00000000 </v>
   <v>       0.50000000       0.75000000       0.25000000 </v>
   <v>       0.75000000       0.50000000       0.25000000 </v>
   <v>       0.25000000       0.75000000       0.50000000 </v>
   <v>       0.00000000       0.75000000       0.75000000 </v>
   <v>       0.25000000       0.50000000       0.75000000 </v>
   <v>       0.50000000       0.00000000       0.25000000 </v>
   <v>       0.25000000       0.00000000       0.50000000 </v>
   <v>       0.50000000       0.75000000       0.50000000 </v>
   <v>       0.75000000       0.25000000       0.50000000 </v>
   <v>       0.50000000       0.25000000       0.75000000 </v>
   <v>       0.75000000       0.00000000       0.75000000 </v>
   <v>       0.00000000       0.50000000       0.25000000 </v>
   <v>       0.75000000       0.50000000       0.50000000 </v>
   <v>       0.00000000       0.25000000       0.50000000 </v>
   <v>       0.50000000       0.50000000       0.75000000 </v>
   <v>       0.25000000       0.50000000       0.00000000 </v>
   <v>       0.50000000       0.25000000       0.00000000 </v>
   <v>       0.75000000       0.75000000       0.50000000 </v>
   <v>       0.50000000       0.75000000       0.75000000 </v>
   <v>       0.75000000       0.50000000       0.75000000 </v>
   <v>       0.00000000       0.00000000       0.25000000 </v>
   <v>       0.75000000       0.00000000       0.50000000 </v>
   <v>       0.00000000       0.75000000       0.50000000 </v>
   <v>       0.50000000       0.00000000       0.75000000 </v>
   <v>       0.25000000       0.00000000       0.00000000 </v>
   <v>       0.50000000       0.75000000       0.00000000 </v>
   <v>       0.00000000       0.50000000       0.75000000 </v>
   <v>       0.75000000       0.50000000       0.00000000 </v>
   <v>       0.00000000       0.25000000       0.00000000 </v>
   <v>       0.00000000       0.00000000       0.75000000 </v>
   <v>       0.75000000       0.00000000       0.00000000 </v>
   <v>       0.00000000       0.75000000       0.00000000 </v>
  </varray>
 </structure>
</modeling>
