 256 256   0   0
  0.1419206E+02  0.1537080E-08  0.1537218E-08  0.1537636E-08  0.5000000E-15
  1.000000000000000E-004
  CAR 
 Ir_Ru                                   
     12.68542825     -1.29475534  301      9.24209708      1.00000000
     -1.295  0.0000E+00  0.0000E+00
     -1.248  0.0000E+00  0.0000E+00
     -1.202  0.0000E+00  0.0000E+00
     -1.155  0.0000E+00  0.0000E+00
     -1.108 -0.2751E-28 -0.1282E-29
     -1.062 -0.4105E-25 -0.1914E-26
     -1.015 -0.3951E-22 -0.1843E-23
     -0.969 -0.2454E-19 -0.1145E-20
     -0.922 -0.9831E-17 -0.4593E-18
     -0.875 -0.2466E-14 -0.1154E-15
     -0.829 -0.4090E-12 -0.1917E-13
     -0.782 -0.4368E-10 -0.2055E-11
     -0.736 -0.3006E-08 -0.1421E-09
     -0.689 -0.1334E-06 -0.6357E-08
     -0.642 -0.3821E-05 -0.1844E-06
     -0.596 -0.7088E-04 -0.3488E-05
     -0.549 -0.8539E-03 -0.4328E-04
     -0.503 -0.6683E-02 -0.3547E-03
     -0.456 -0.3356E-01 -0.1919E-02
     -0.409 -0.1020E+00 -0.6674E-02
     -0.363 -0.1377E+00 -0.1309E-01
     -0.316  0.2241E+00 -0.2648E-02
     -0.270  0.1510E+01  0.6770E-01
     -0.223  0.3539E+01  0.2326E+00
     -0.176  0.5071E+01  0.4689E+00
     -0.130  0.5732E+01  0.7360E+00
     -0.083  0.7325E+01  0.1077E+01
     -0.037  0.1020E+02  0.1552E+01
      0.010  0.1102E+02  0.2066E+01
      0.057  0.9151E+01  0.2492E+01
      0.103  0.9379E+01  0.2930E+01
      0.150  0.1315E+02  0.3542E+01
      0.196  0.1591E+02  0.4284E+01
      0.243  0.1604E+02  0.5031E+01
      0.290  0.1673E+02  0.5811E+01
      0.336  0.1849E+02  0.6672E+01
      0.383  0.1833E+02  0.7527E+01
      0.429  0.1742E+02  0.8338E+01
      0.476  0.1976E+02  0.9259E+01
      0.523  0.2333E+02  0.1035E+02
      0.569  0.2404E+02  0.1147E+02
      0.616  0.2229E+02  0.1251E+02
      0.662  0.1875E+02  0.1338E+02
      0.709  0.1410E+02  0.1404E+02
      0.756  0.1115E+02  0.1456E+02
      0.802  0.1072E+02  0.1505E+02
      0.849  0.1117E+02  0.1558E+02
      0.895  0.1221E+02  0.1614E+02
      0.942  0.1468E+02  0.1683E+02
      0.989  0.1832E+02  0.1768E+02
      1.035  0.2283E+02  0.1875E+02
      1.082  0.2801E+02  0.2005E+02
      1.128  0.3120E+02  0.2151E+02
      1.175  0.2972E+02  0.2289E+02
      1.222  0.2591E+02  0.2410E+02
      1.268  0.2307E+02  0.2517E+02
      1.315  0.2098E+02  0.2615E+02
      1.361  0.2003E+02  0.2708E+02
      1.408  0.2162E+02  0.2809E+02
      1.455  0.2406E+02  0.2921E+02
      1.501  0.2567E+02  0.3041E+02
      1.548  0.2899E+02  0.3176E+02
      1.594  0.3515E+02  0.3340E+02
      1.641  0.3880E+02  0.3521E+02
      1.688  0.3792E+02  0.3697E+02
      1.734  0.3928E+02  0.3880E+02
      1.781  0.4549E+02  0.4092E+02
      1.827  0.4933E+02  0.4322E+02
      1.874  0.4785E+02  0.4545E+02
      1.921  0.4727E+02  0.4765E+02
      1.967  0.5081E+02  0.5002E+02
      2.014  0.5406E+02  0.5254E+02
      2.060  0.5552E+02  0.5513E+02
      2.107  0.6141E+02  0.5799E+02
      2.154  0.7453E+02  0.6146E+02
      2.200  0.8931E+02  0.6563E+02
      2.247  0.1030E+03  0.7043E+02
      2.293  0.1178E+03  0.7592E+02
      2.340  0.1310E+03  0.8202E+02
      2.387  0.1382E+03  0.8846E+02
      2.433  0.1432E+03  0.9513E+02
      2.480  0.1522E+03  0.1022E+03
      2.526  0.1609E+03  0.1097E+03
      2.573  0.1616E+03  0.1173E+03
      2.620  0.1613E+03  0.1248E+03
      2.666  0.1689E+03  0.1326E+03
      2.713  0.1784E+03  0.1410E+03
      2.759  0.1847E+03  0.1496E+03
      2.806  0.1977E+03  0.1588E+03
      2.853  0.2228E+03  0.1692E+03
      2.899  0.2475E+03  0.1807E+03
      2.946  0.2564E+03  0.1926E+03
      2.993  0.2499E+03  0.2043E+03
      3.039  0.2470E+03  0.2158E+03
      3.086  0.2622E+03  0.2280E+03
      3.132  0.2866E+03  0.2414E+03
      3.179  0.3014E+03  0.2554E+03
      3.226  0.3041E+03  0.2696E+03
      3.272  0.3053E+03  0.2838E+03
      3.319  0.3087E+03  0.2982E+03
      3.365  0.3113E+03  0.3127E+03
      3.412  0.3144E+03  0.3274E+03
      3.459  0.3217E+03  0.3423E+03
      3.505  0.3334E+03  0.3579E+03
      3.552  0.3442E+03  0.3739E+03
      3.598  0.3469E+03  0.3901E+03
      3.645  0.3449E+03  0.4062E+03
      3.692  0.3488E+03  0.4224E+03
      3.738  0.3578E+03  0.4391E+03
      3.785  0.3594E+03  0.4558E+03
      3.831  0.3524E+03  0.4723E+03
      3.878  0.3479E+03  0.4885E+03
      3.925  0.3497E+03  0.5048E+03
      3.971  0.3505E+03  0.5211E+03
      4.018  0.3414E+03  0.5370E+03
      4.064  0.3227E+03  0.5520E+03
      4.111  0.3066E+03  0.5663E+03
      4.158  0.2975E+03  0.5802E+03
      4.204  0.2874E+03  0.5936E+03
      4.251  0.2713E+03  0.6062E+03
      4.297  0.2537E+03  0.6181E+03
      4.344  0.2428E+03  0.6294E+03
      4.391  0.2454E+03  0.6408E+03
      4.437  0.2579E+03  0.6528E+03
      4.484  0.2617E+03  0.6650E+03
      4.530  0.2505E+03  0.6767E+03
      4.577  0.2477E+03  0.6882E+03
      4.624  0.2674E+03  0.7007E+03
      4.670  0.2922E+03  0.7143E+03
      4.717  0.3069E+03  0.7286E+03
      4.763  0.3136E+03  0.7432E+03
      4.810  0.3134E+03  0.7578E+03
      4.857  0.3048E+03  0.7720E+03
      4.903  0.2900E+03  0.7856E+03
      4.950  0.2784E+03  0.7985E+03
      4.996  0.2811E+03  0.8116E+03
      5.043  0.2952E+03  0.8254E+03
      5.090  0.3078E+03  0.8397E+03
      5.136  0.3091E+03  0.8541E+03
      5.183  0.2976E+03  0.8680E+03
      5.229  0.2855E+03  0.8813E+03
      5.276  0.2844E+03  0.8946E+03
      5.323  0.2904E+03  0.9081E+03
      5.369  0.2974E+03  0.9219E+03
      5.416  0.3019E+03  0.9360E+03
      5.462  0.2986E+03  0.9499E+03
      5.509  0.2887E+03  0.9634E+03
      5.556  0.2868E+03  0.9767E+03
      5.602  0.3028E+03  0.9909E+03
      5.649  0.3216E+03  0.1006E+04
      5.695  0.3253E+03  0.1021E+04
      5.742  0.3203E+03  0.1036E+04
      5.789  0.3200E+03  0.1051E+04
      5.835  0.3263E+03  0.1066E+04
      5.882  0.3367E+03  0.1082E+04
      5.928  0.3502E+03  0.1098E+04
      5.975  0.3654E+03  0.1115E+04
      6.022  0.3789E+03  0.1133E+04
      6.068  0.3853E+03  0.1151E+04
      6.115  0.3874E+03  0.1169E+04
      6.161  0.3917E+03  0.1187E+04
      6.208  0.3986E+03  0.1206E+04
      6.255  0.4095E+03  0.1225E+04
      6.301  0.4272E+03  0.1245E+04
      6.348  0.4466E+03  0.1265E+04
      6.394  0.4575E+03  0.1287E+04
      6.441  0.4572E+03  0.1308E+04
      6.488  0.4532E+03  0.1329E+04
      6.534  0.4501E+03  0.1350E+04
      6.581  0.4457E+03  0.1371E+04
      6.627  0.4393E+03  0.1391E+04
      6.674  0.4319E+03  0.1411E+04
      6.721  0.4248E+03  0.1431E+04
      6.767  0.4169E+03  0.1451E+04
      6.814  0.4014E+03  0.1469E+04
      6.860  0.3766E+03  0.1487E+04
      6.907  0.3543E+03  0.1503E+04
      6.954  0.3443E+03  0.1520E+04
      7.000  0.3392E+03  0.1535E+04
      7.047  0.3276E+03  0.1551E+04
      7.093  0.3148E+03  0.1565E+04
      7.140  0.3136E+03  0.1580E+04
      7.187  0.3194E+03  0.1595E+04
      7.233  0.3132E+03  0.1609E+04
      7.280  0.2872E+03  0.1623E+04
      7.326  0.2557E+03  0.1635E+04
      7.373  0.2401E+03  0.1646E+04
      7.420  0.2488E+03  0.1657E+04
      7.466  0.2713E+03  0.1670E+04
      7.513  0.2847E+03  0.1683E+04
      7.559  0.2764E+03  0.1696E+04
      7.606  0.2584E+03  0.1708E+04
      7.653  0.2483E+03  0.1720E+04
      7.699  0.2573E+03  0.1732E+04
      7.746  0.2830E+03  0.1745E+04
      7.792  0.3055E+03  0.1759E+04
      7.839  0.3119E+03  0.1774E+04
      7.886  0.3087E+03  0.1788E+04
      7.932  0.3030E+03  0.1802E+04
      7.979  0.2961E+03  0.1816E+04
      8.025  0.2911E+03  0.1830E+04
      8.072  0.2958E+03  0.1843E+04
      8.119  0.3093E+03  0.1858E+04
      8.165  0.3170E+03  0.1873E+04
      8.212  0.3177E+03  0.1887E+04
      8.258  0.3299E+03  0.1903E+04
      8.305  0.3537E+03  0.1919E+04
      8.352  0.3623E+03  0.1936E+04
      8.398  0.3397E+03  0.1952E+04
      8.445  0.2998E+03  0.1966E+04
      8.491  0.2667E+03  0.1978E+04
      8.538  0.2556E+03  0.1990E+04
      8.585  0.2710E+03  0.2003E+04
      8.631  0.2956E+03  0.2017E+04
      8.678  0.3002E+03  0.2031E+04
      8.724  0.2840E+03  0.2044E+04
      8.771  0.2675E+03  0.2056E+04
      8.818  0.2568E+03  0.2068E+04
      8.864  0.2489E+03  0.2080E+04
      8.911  0.2450E+03  0.2091E+04
      8.957  0.2453E+03  0.2103E+04
      9.004  0.2535E+03  0.2115E+04
      9.051  0.2735E+03  0.2127E+04
      9.097  0.2840E+03  0.2141E+04
      9.144  0.2660E+03  0.2153E+04
      9.190  0.2407E+03  0.2164E+04
      9.237  0.2282E+03  0.2175E+04
      9.284  0.2199E+03  0.2185E+04
      9.330  0.2139E+03  0.2195E+04
      9.377  0.2219E+03  0.2205E+04
      9.423  0.2425E+03  0.2217E+04
      9.470  0.2623E+03  0.2229E+04
      9.517  0.2737E+03  0.2242E+04
      9.563  0.2773E+03  0.2255E+04
      9.610  0.2762E+03  0.2267E+04
      9.656  0.2709E+03  0.2280E+04
      9.703  0.2609E+03  0.2292E+04
      9.750  0.2437E+03  0.2304E+04
      9.796  0.2242E+03  0.2314E+04
      9.843  0.2195E+03  0.2324E+04
      9.889  0.2367E+03  0.2335E+04
      9.936  0.2643E+03  0.2348E+04
      9.983  0.2953E+03  0.2361E+04
     10.029  0.3274E+03  0.2377E+04
     10.076  0.3491E+03  0.2393E+04
     10.122  0.3463E+03  0.2409E+04
     10.169  0.3239E+03  0.2424E+04
     10.216  0.3102E+03  0.2439E+04
     10.262  0.3293E+03  0.2454E+04
     10.309  0.3874E+03  0.2472E+04
     10.355  0.4666E+03  0.2494E+04
     10.402  0.5186E+03  0.2518E+04
     10.449  0.5090E+03  0.2542E+04
     10.495  0.4502E+03  0.2563E+04
     10.542  0.3735E+03  0.2580E+04
     10.588  0.3017E+03  0.2594E+04
     10.635  0.2480E+03  0.2606E+04
     10.682  0.2123E+03  0.2616E+04
     10.728  0.1807E+03  0.2624E+04
     10.775  0.1418E+03  0.2631E+04
     10.821  0.9724E+02  0.2635E+04
     10.868  0.5634E+02  0.2638E+04
     10.915  0.2704E+02  0.2639E+04
     10.961  0.1025E+02  0.2639E+04
     11.008  0.2923E+01  0.2640E+04
     11.054  0.1452E+01  0.2640E+04
     11.101  0.2030E+01  0.2640E+04
     11.148  0.1852E+01  0.2640E+04
     11.194  0.7674E+00  0.2640E+04
     11.241  0.3702E-02  0.2640E+04
     11.287 -0.1281E+00  0.2640E+04
     11.334 -0.5493E-01  0.2640E+04
     11.381 -0.1165E-01  0.2640E+04
     11.427 -0.3534E-02  0.2640E+04
     11.474 -0.1338E-01  0.2640E+04
     11.520 -0.4271E-01  0.2640E+04
     11.567 -0.3478E-01  0.2640E+04
     11.614  0.2046E+00  0.2640E+04
     11.660  0.7218E+00  0.2640E+04
     11.707  0.1026E+01  0.2640E+04
     11.753  0.7163E+00  0.2640E+04
     11.800  0.2003E+00  0.2640E+04
     11.847 -0.3565E-01  0.2640E+04
     11.893 -0.4237E-01  0.2640E+04
     11.940 -0.1306E-01  0.2640E+04
     11.986 -0.2106E-02  0.2640E+04
     12.033 -0.1993E-03  0.2640E+04
     12.080 -0.1156E-04  0.2640E+04
     12.126 -0.4193E-06  0.2640E+04
     12.173 -0.9615E-08  0.2640E+04
     12.219 -0.1403E-09  0.2640E+04
     12.266 -0.1310E-11  0.2640E+04
     12.313 -0.7743E-14  0.2640E+04
     12.359  0.0000E+00  0.2640E+04
     12.406  0.0000E+00  0.2640E+04
     12.452  0.0000E+00  0.2640E+04
     12.499  0.0000E+00  0.2640E+04
     12.546  0.0000E+00  0.2640E+04
     12.592  0.0000E+00  0.2640E+04
     12.639  0.0000E+00  0.2640E+04
     12.685  0.0000E+00  0.2640E+04
