 256 256   0   0
  0.1419206E+02  0.1537080E-08  0.1537218E-08  0.1537636E-08  0.5000000E-15
  1.000000000000000E-004
  CAR 
 Ir_Ru                                   
     12.68591151     -1.29500152  301      9.24210222      1.00000000
     -1.295  0.0000E+00  0.0000E+00
     -1.248  0.0000E+00  0.0000E+00
     -1.202  0.0000E+00  0.0000E+00
     -1.155  0.0000E+00  0.0000E+00
     -1.109 -0.2755E-28 -0.1284E-29
     -1.062 -0.4112E-25 -0.1918E-26
     -1.015 -0.3959E-22 -0.1847E-23
     -0.969 -0.2459E-19 -0.1148E-20
     -0.922 -0.9854E-17 -0.4604E-18
     -0.876 -0.2473E-14 -0.1157E-15
     -0.829 -0.4100E-12 -0.1922E-13
     -0.782 -0.4379E-10 -0.2060E-11
     -0.736 -0.3013E-08 -0.1425E-09
     -0.689 -0.1337E-06 -0.6372E-08
     -0.643 -0.3830E-05 -0.1848E-06
     -0.596 -0.7103E-04 -0.3495E-05
     -0.549 -0.8556E-03 -0.4337E-04
     -0.503 -0.6694E-02 -0.3553E-03
     -0.456 -0.3361E-01 -0.1922E-02
     -0.410 -0.1021E+00 -0.6681E-02
     -0.363 -0.1376E+00 -0.1309E-01
     -0.316  0.2249E+00 -0.2613E-02
     -0.270  0.1512E+01  0.6784E-01
     -0.223  0.3542E+01  0.2329E+00
     -0.177  0.5072E+01  0.4693E+00
     -0.130  0.5733E+01  0.7364E+00
     -0.083  0.7329E+01  0.1078E+01
     -0.037  0.1020E+02  0.1553E+01
      0.010  0.1102E+02  0.2067E+01
      0.056  0.9148E+01  0.2493E+01
      0.103  0.9384E+01  0.2930E+01
      0.150  0.1315E+02  0.3544E+01
      0.196  0.1591E+02  0.4285E+01
      0.243  0.1604E+02  0.5033E+01
      0.290  0.1673E+02  0.5812E+01
      0.336  0.1849E+02  0.6674E+01
      0.383  0.1833E+02  0.7528E+01
      0.429  0.1741E+02  0.8339E+01
      0.476  0.1977E+02  0.9261E+01
      0.523  0.2335E+02  0.1035E+02
      0.569  0.2405E+02  0.1147E+02
      0.616  0.2227E+02  0.1251E+02
      0.662  0.1874E+02  0.1338E+02
      0.709  0.1410E+02  0.1404E+02
      0.756  0.1113E+02  0.1456E+02
      0.802  0.1071E+02  0.1506E+02
      0.849  0.1117E+02  0.1558E+02
      0.895  0.1224E+02  0.1615E+02
      0.942  0.1474E+02  0.1683E+02
      0.989  0.1841E+02  0.1769E+02
      1.035  0.2292E+02  0.1876E+02
      1.082  0.2808E+02  0.2007E+02
      1.128  0.3123E+02  0.2152E+02
      1.175  0.2973E+02  0.2291E+02
      1.222  0.2590E+02  0.2412E+02
      1.268  0.2304E+02  0.2519E+02
      1.315  0.2092E+02  0.2616E+02
      1.361  0.2000E+02  0.2710E+02
      1.408  0.2163E+02  0.2811E+02
      1.455  0.2408E+02  0.2923E+02
      1.501  0.2566E+02  0.3042E+02
      1.548  0.2897E+02  0.3177E+02
      1.594  0.3511E+02  0.3341E+02
      1.641  0.3873E+02  0.3521E+02
      1.688  0.3785E+02  0.3698E+02
      1.734  0.3927E+02  0.3881E+02
      1.781  0.4553E+02  0.4093E+02
      1.827  0.4934E+02  0.4323E+02
      1.874  0.4784E+02  0.4546E+02
      1.921  0.4730E+02  0.4766E+02
      1.967  0.5083E+02  0.5003E+02
      2.014  0.5396E+02  0.5255E+02
      2.060  0.5537E+02  0.5513E+02
      2.107  0.6137E+02  0.5799E+02
      2.154  0.7458E+02  0.6146E+02
      2.200  0.8935E+02  0.6563E+02
      2.247  0.1030E+03  0.7043E+02
      2.293  0.1177E+03  0.7591E+02
      2.340  0.1310E+03  0.8202E+02
      2.387  0.1383E+03  0.8846E+02
      2.433  0.1433E+03  0.9514E+02
      2.480  0.1525E+03  0.1022E+03
      2.526  0.1611E+03  0.1098E+03
      2.573  0.1618E+03  0.1173E+03
      2.620  0.1614E+03  0.1248E+03
      2.666  0.1690E+03  0.1327E+03
      2.713  0.1784E+03  0.1410E+03
      2.759  0.1848E+03  0.1496E+03
      2.806  0.1979E+03  0.1588E+03
      2.853  0.2230E+03  0.1692E+03
      2.899  0.2478E+03  0.1808E+03
      2.946  0.2564E+03  0.1927E+03
      2.992  0.2498E+03  0.2044E+03
      3.039  0.2468E+03  0.2159E+03
      3.086  0.2623E+03  0.2281E+03
      3.132  0.2867E+03  0.2415E+03
      3.179  0.3014E+03  0.2555E+03
      3.225  0.3039E+03  0.2697E+03
      3.272  0.3051E+03  0.2839E+03
      3.319  0.3085E+03  0.2983E+03
      3.365  0.3112E+03  0.3128E+03
      3.412  0.3144E+03  0.3274E+03
      3.459  0.3216E+03  0.3424E+03
      3.505  0.3332E+03  0.3579E+03
      3.552  0.3438E+03  0.3739E+03
      3.598  0.3467E+03  0.3901E+03
      3.645  0.3448E+03  0.4062E+03
      3.692  0.3486E+03  0.4224E+03
      3.738  0.3576E+03  0.4391E+03
      3.785  0.3592E+03  0.4558E+03
      3.831  0.3522E+03  0.4722E+03
      3.878  0.3479E+03  0.4885E+03
      3.925  0.3498E+03  0.5048E+03
      3.971  0.3507E+03  0.5211E+03
      4.018  0.3414E+03  0.5370E+03
      4.064  0.3227E+03  0.5520E+03
      4.111  0.3066E+03  0.5663E+03
      4.158  0.2975E+03  0.5802E+03
      4.204  0.2874E+03  0.5936E+03
      4.251  0.2712E+03  0.6062E+03
      4.297  0.2536E+03  0.6180E+03
      4.344  0.2427E+03  0.6294E+03
      4.391  0.2453E+03  0.6408E+03
      4.437  0.2578E+03  0.6528E+03
      4.484  0.2617E+03  0.6650E+03
      4.530  0.2506E+03  0.6767E+03
      4.577  0.2477E+03  0.6882E+03
      4.624  0.2672E+03  0.7007E+03
      4.670  0.2920E+03  0.7143E+03
      4.717  0.3069E+03  0.7286E+03
      4.763  0.3138E+03  0.7432E+03
      4.810  0.3136E+03  0.7578E+03
      4.857  0.3048E+03  0.7720E+03
      4.903  0.2900E+03  0.7855E+03
      4.950  0.2784E+03  0.7985E+03
      4.996  0.2812E+03  0.8116E+03
      5.043  0.2952E+03  0.8254E+03
      5.090  0.3078E+03  0.8397E+03
      5.136  0.3092E+03  0.8541E+03
      5.183  0.2976E+03  0.8680E+03
      5.229  0.2856E+03  0.8813E+03
      5.276  0.2845E+03  0.8946E+03
      5.323  0.2904E+03  0.9081E+03
      5.369  0.2973E+03  0.9220E+03
      5.416  0.3018E+03  0.9360E+03
      5.462  0.2986E+03  0.9500E+03
      5.509  0.2887E+03  0.9634E+03
      5.556  0.2868E+03  0.9768E+03
      5.602  0.3029E+03  0.9909E+03
      5.649  0.3216E+03  0.1006E+04
      5.695  0.3252E+03  0.1021E+04
      5.742  0.3202E+03  0.1036E+04
      5.789  0.3201E+03  0.1051E+04
      5.835  0.3264E+03  0.1066E+04
      5.882  0.3369E+03  0.1082E+04
      5.928  0.3502E+03  0.1098E+04
      5.975  0.3654E+03  0.1115E+04
      6.022  0.3789E+03  0.1133E+04
      6.068  0.3854E+03  0.1151E+04
      6.115  0.3875E+03  0.1169E+04
      6.161  0.3918E+03  0.1187E+04
      6.208  0.3987E+03  0.1206E+04
      6.255  0.4096E+03  0.1225E+04
      6.301  0.4273E+03  0.1245E+04
      6.348  0.4467E+03  0.1265E+04
      6.395  0.4573E+03  0.1287E+04
      6.441  0.4569E+03  0.1308E+04
      6.488  0.4529E+03  0.1329E+04
      6.534  0.4500E+03  0.1350E+04
      6.581  0.4457E+03  0.1371E+04
      6.628  0.4391E+03  0.1391E+04
      6.674  0.4316E+03  0.1412E+04
      6.721  0.4246E+03  0.1431E+04
      6.767  0.4169E+03  0.1451E+04
      6.814  0.4014E+03  0.1469E+04
      6.861  0.3765E+03  0.1487E+04
      6.907  0.3542E+03  0.1503E+04
      6.954  0.3442E+03  0.1520E+04
      7.000  0.3392E+03  0.1535E+04
      7.047  0.3276E+03  0.1551E+04
      7.094  0.3148E+03  0.1565E+04
      7.140  0.3136E+03  0.1580E+04
      7.187  0.3194E+03  0.1595E+04
      7.233  0.3132E+03  0.1609E+04
      7.280  0.2871E+03  0.1623E+04
      7.327  0.2556E+03  0.1635E+04
      7.373  0.2401E+03  0.1646E+04
      7.420  0.2489E+03  0.1657E+04
      7.466  0.2714E+03  0.1670E+04
      7.513  0.2846E+03  0.1683E+04
      7.560  0.2763E+03  0.1696E+04
      7.606  0.2583E+03  0.1708E+04
      7.653  0.2483E+03  0.1720E+04
      7.699  0.2574E+03  0.1732E+04
      7.746  0.2832E+03  0.1745E+04
      7.793  0.3056E+03  0.1759E+04
      7.839  0.3119E+03  0.1774E+04
      7.886  0.3087E+03  0.1788E+04
      7.932  0.3030E+03  0.1802E+04
      7.979  0.2960E+03  0.1816E+04
      8.026  0.2911E+03  0.1830E+04
      8.072  0.2960E+03  0.1843E+04
      8.119  0.3094E+03  0.1858E+04
      8.165  0.3171E+03  0.1873E+04
      8.212  0.3178E+03  0.1887E+04
      8.259  0.3300E+03  0.1903E+04
      8.305  0.3538E+03  0.1919E+04
      8.352  0.3622E+03  0.1936E+04
      8.398  0.3394E+03  0.1952E+04
      8.445  0.2996E+03  0.1966E+04
      8.492  0.2667E+03  0.1978E+04
      8.538  0.2557E+03  0.1990E+04
      8.585  0.2712E+03  0.2003E+04
      8.631  0.2957E+03  0.2017E+04
      8.678  0.3001E+03  0.2031E+04
      8.725  0.2838E+03  0.2044E+04
      8.771  0.2674E+03  0.2056E+04
      8.818  0.2569E+03  0.2068E+04
      8.864  0.2490E+03  0.2080E+04
      8.911  0.2450E+03  0.2091E+04
      8.958  0.2453E+03  0.2103E+04
      9.004  0.2536E+03  0.2115E+04
      9.051  0.2736E+03  0.2127E+04
      9.097  0.2840E+03  0.2141E+04
      9.144  0.2658E+03  0.2153E+04
      9.191  0.2406E+03  0.2164E+04
      9.237  0.2281E+03  0.2175E+04
      9.284  0.2198E+03  0.2185E+04
      9.330  0.2138E+03  0.2195E+04
      9.377  0.2220E+03  0.2205E+04
      9.424  0.2427E+03  0.2217E+04
      9.470  0.2625E+03  0.2229E+04
      9.517  0.2737E+03  0.2242E+04
      9.564  0.2772E+03  0.2255E+04
      9.610  0.2761E+03  0.2268E+04
      9.657  0.2709E+03  0.2280E+04
      9.703  0.2609E+03  0.2292E+04
      9.750  0.2437E+03  0.2304E+04
      9.797  0.2241E+03  0.2314E+04
      9.843  0.2195E+03  0.2324E+04
      9.890  0.2368E+03  0.2335E+04
      9.936  0.2645E+03  0.2348E+04
      9.983  0.2955E+03  0.2362E+04
     10.030  0.3276E+03  0.2377E+04
     10.076  0.3492E+03  0.2393E+04
     10.123  0.3462E+03  0.2409E+04
     10.169  0.3237E+03  0.2424E+04
     10.216  0.3102E+03  0.2439E+04
     10.263  0.3296E+03  0.2454E+04
     10.309  0.3880E+03  0.2472E+04
     10.356  0.4673E+03  0.2494E+04
     10.402  0.5189E+03  0.2518E+04
     10.449  0.5087E+03  0.2542E+04
     10.496  0.4496E+03  0.2563E+04
     10.542  0.3729E+03  0.2580E+04
     10.589  0.3012E+03  0.2594E+04
     10.635  0.2476E+03  0.2606E+04
     10.682  0.2120E+03  0.2616E+04
     10.729  0.1805E+03  0.2624E+04
     10.775  0.1414E+03  0.2631E+04
     10.822  0.9658E+02  0.2635E+04
     10.868  0.5601E+02  0.2638E+04
     10.915  0.2723E+02  0.2639E+04
     10.962  0.1053E+02  0.2639E+04
     11.008  0.3084E+01  0.2640E+04
     11.055  0.1436E+01  0.2640E+04
     11.101  0.1774E+01  0.2640E+04
     11.148  0.1545E+01  0.2640E+04
     11.195  0.6284E+00  0.2640E+04
     11.241 -0.2678E-02  0.2640E+04
     11.288 -0.1106E+00  0.2640E+04
     11.334 -0.4764E-01  0.2640E+04
     11.381 -0.1024E-01  0.2640E+04
     11.428 -0.3396E-02  0.2640E+04
     11.474 -0.1345E-01  0.2640E+04
     11.521 -0.4282E-01  0.2640E+04
     11.567 -0.3440E-01  0.2640E+04
     11.614  0.2063E+00  0.2640E+04
     11.661  0.7238E+00  0.2640E+04
     11.707  0.1026E+01  0.2640E+04
     11.754  0.7141E+00  0.2640E+04
     11.800  0.1987E+00  0.2640E+04
     11.847 -0.3593E-01  0.2640E+04
     11.894 -0.4223E-01  0.2640E+04
     11.940 -0.1299E-01  0.2640E+04
     11.987 -0.2089E-02  0.2640E+04
     12.033 -0.1974E-03  0.2640E+04
     12.080 -0.1143E-04  0.2640E+04
     12.127 -0.4140E-06  0.2640E+04
     12.173 -0.9481E-08  0.2640E+04
     12.220 -0.1382E-09  0.2640E+04
     12.266 -0.1288E-11  0.2640E+04
     12.313 -0.7742E-14  0.2640E+04
     12.360  0.0000E+00  0.2640E+04
     12.406  0.0000E+00  0.2640E+04
     12.453  0.0000E+00  0.2640E+04
     12.499  0.0000E+00  0.2640E+04
     12.546  0.0000E+00  0.2640E+04
     12.593  0.0000E+00  0.2640E+04
     12.639  0.0000E+00  0.2640E+04
     12.686  0.0000E+00  0.2640E+04
