 256 256   0   0
  0.1419206E+02  0.1537080E-08  0.1537218E-08  0.1537636E-08  0.5000000E-15
  1.000000000000000E-004
  CAR 
 Ir_Ru                                   
     12.68513679     -1.29520467  301      9.24211059      1.00000000
     -1.295  0.0000E+00  0.0000E+00
     -1.249  0.0000E+00  0.0000E+00
     -1.202  0.0000E+00  0.0000E+00
     -1.155  0.0000E+00  0.0000E+00
     -1.109 -0.2752E-28 -0.1283E-29
     -1.062 -0.4107E-25 -0.1915E-26
     -1.016 -0.3952E-22 -0.1844E-23
     -0.969 -0.2455E-19 -0.1146E-20
     -0.922 -0.9836E-17 -0.4595E-18
     -0.876 -0.2468E-14 -0.1155E-15
     -0.829 -0.4092E-12 -0.1919E-13
     -0.783 -0.4370E-10 -0.2056E-11
     -0.736 -0.3007E-08 -0.1422E-09
     -0.689 -0.1334E-06 -0.6360E-08
     -0.643 -0.3823E-05 -0.1845E-06
     -0.596 -0.7093E-04 -0.3490E-05
     -0.550 -0.8545E-03 -0.4331E-04
     -0.503 -0.6687E-02 -0.3549E-03
     -0.456 -0.3359E-01 -0.1920E-02
     -0.410 -0.1021E+00 -0.6678E-02
     -0.363 -0.1377E+00 -0.1310E-01
     -0.317  0.2244E+00 -0.2640E-02
     -0.270  0.1511E+01  0.6775E-01
     -0.223  0.3541E+01  0.2327E+00
     -0.177  0.5072E+01  0.4691E+00
     -0.130  0.5735E+01  0.7364E+00
     -0.084  0.7331E+01  0.1078E+01
     -0.037  0.1020E+02  0.1553E+01
      0.010  0.1102E+02  0.2067E+01
      0.056  0.9153E+01  0.2493E+01
      0.103  0.9393E+01  0.2931E+01
      0.149  0.1316E+02  0.3545E+01
      0.196  0.1592E+02  0.4286E+01
      0.243  0.1606E+02  0.5034E+01
      0.289  0.1675E+02  0.5815E+01
      0.336  0.1850E+02  0.6677E+01
      0.382  0.1834E+02  0.7531E+01
      0.429  0.1744E+02  0.8344E+01
      0.476  0.1981E+02  0.9267E+01
      0.522  0.2336E+02  0.1036E+02
      0.569  0.2405E+02  0.1148E+02
      0.615  0.2228E+02  0.1252E+02
      0.662  0.1872E+02  0.1339E+02
      0.709  0.1407E+02  0.1404E+02
      0.755  0.1114E+02  0.1456E+02
      0.802  0.1071E+02  0.1506E+02
      0.848  0.1113E+02  0.1558E+02
      0.895  0.1215E+02  0.1615E+02
      0.942  0.1463E+02  0.1683E+02
      0.988  0.1830E+02  0.1768E+02
      1.035  0.2283E+02  0.1875E+02
      1.081  0.2803E+02  0.2005E+02
      1.128  0.3123E+02  0.2151E+02
      1.175  0.2975E+02  0.2289E+02
      1.221  0.2594E+02  0.2410E+02
      1.268  0.2310E+02  0.2518E+02
      1.314  0.2098E+02  0.2616E+02
      1.361  0.2000E+02  0.2709E+02
      1.408  0.2156E+02  0.2809E+02
      1.454  0.2401E+02  0.2921E+02
      1.501  0.2562E+02  0.3041E+02
      1.547  0.2890E+02  0.3175E+02
      1.594  0.3503E+02  0.3338E+02
      1.641  0.3873E+02  0.3519E+02
      1.687  0.3787E+02  0.3695E+02
      1.734  0.3920E+02  0.3878E+02
      1.780  0.4542E+02  0.4090E+02
      1.827  0.4932E+02  0.4320E+02
      1.874  0.4787E+02  0.4543E+02
      1.920  0.4730E+02  0.4763E+02
      1.967  0.5090E+02  0.5000E+02
      2.013  0.5418E+02  0.5253E+02
      2.060  0.5559E+02  0.5512E+02
      2.107  0.6138E+02  0.5798E+02
      2.153  0.7444E+02  0.6145E+02
      2.200  0.8921E+02  0.6561E+02
      2.246  0.1029E+03  0.7040E+02
      2.293  0.1176E+03  0.7588E+02
      2.340  0.1309E+03  0.8199E+02
      2.386  0.1382E+03  0.8843E+02
      2.433  0.1432E+03  0.9510E+02
      2.479  0.1523E+03  0.1022E+03
      2.526  0.1610E+03  0.1097E+03
      2.573  0.1618E+03  0.1172E+03
      2.619  0.1615E+03  0.1248E+03
      2.666  0.1690E+03  0.1326E+03
      2.712  0.1785E+03  0.1410E+03
      2.759  0.1848E+03  0.1496E+03
      2.806  0.1978E+03  0.1588E+03
      2.852  0.2229E+03  0.1692E+03
      2.899  0.2476E+03  0.1807E+03
      2.945  0.2563E+03  0.1927E+03
      2.992  0.2496E+03  0.2043E+03
      3.039  0.2466E+03  0.2158E+03
      3.085  0.2621E+03  0.2280E+03
      3.132  0.2866E+03  0.2414E+03
      3.179  0.3012E+03  0.2554E+03
      3.225  0.3037E+03  0.2695E+03
      3.272  0.3048E+03  0.2838E+03
      3.318  0.3080E+03  0.2981E+03
      3.365  0.3106E+03  0.3126E+03
      3.412  0.3140E+03  0.3272E+03
      3.458  0.3214E+03  0.3422E+03
      3.505  0.3332E+03  0.3577E+03
      3.551  0.3440E+03  0.3738E+03
      3.598  0.3470E+03  0.3899E+03
      3.645  0.3450E+03  0.4060E+03
      3.691  0.3486E+03  0.4223E+03
      3.738  0.3575E+03  0.4389E+03
      3.784  0.3593E+03  0.4557E+03
      3.831  0.3524E+03  0.4721E+03
      3.878  0.3479E+03  0.4883E+03
      3.924  0.3497E+03  0.5046E+03
      3.971  0.3507E+03  0.5209E+03
      4.017  0.3416E+03  0.5368E+03
      4.064  0.3230E+03  0.5519E+03
      4.111  0.3069E+03  0.5662E+03
      4.157  0.2977E+03  0.5801E+03
      4.204  0.2875E+03  0.5935E+03
      4.250  0.2714E+03  0.6061E+03
      4.297  0.2539E+03  0.6179E+03
      4.344  0.2428E+03  0.6293E+03
      4.390  0.2452E+03  0.6407E+03
      4.437  0.2577E+03  0.6527E+03
      4.483  0.2619E+03  0.6649E+03
      4.530  0.2508E+03  0.6766E+03
      4.577  0.2477E+03  0.6881E+03
      4.623  0.2670E+03  0.7006E+03
      4.670  0.2917E+03  0.7142E+03
      4.716  0.3066E+03  0.7285E+03
      4.763  0.3136E+03  0.7431E+03
      4.810  0.3136E+03  0.7577E+03
      4.856  0.3050E+03  0.7719E+03
      4.903  0.2902E+03  0.7854E+03
      4.949  0.2784E+03  0.7984E+03
      4.996  0.2810E+03  0.8115E+03
      5.043  0.2950E+03  0.8252E+03
      5.089  0.3077E+03  0.8396E+03
      5.136  0.3092E+03  0.8540E+03
      5.182  0.2977E+03  0.8679E+03
      5.229  0.2856E+03  0.8812E+03
      5.276  0.2844E+03  0.8944E+03
      5.322  0.2904E+03  0.9080E+03
      5.369  0.2974E+03  0.9218E+03
      5.415  0.3020E+03  0.9359E+03
      5.462  0.2987E+03  0.9498E+03
      5.509  0.2888E+03  0.9633E+03
      5.555  0.2868E+03  0.9766E+03
      5.602  0.3027E+03  0.9907E+03
      5.648  0.3216E+03  0.1006E+04
      5.695  0.3253E+03  0.1021E+04
      5.742  0.3203E+03  0.1036E+04
      5.788  0.3200E+03  0.1051E+04
      5.835  0.3263E+03  0.1066E+04
      5.881  0.3366E+03  0.1082E+04
      5.928  0.3499E+03  0.1098E+04
      5.975  0.3652E+03  0.1115E+04
      6.021  0.3789E+03  0.1133E+04
      6.068  0.3855E+03  0.1151E+04
      6.114  0.3876E+03  0.1169E+04
      6.161  0.3917E+03  0.1187E+04
      6.208  0.3986E+03  0.1205E+04
      6.254  0.4094E+03  0.1225E+04
      6.301  0.4271E+03  0.1244E+04
      6.347  0.4464E+03  0.1265E+04
      6.394  0.4573E+03  0.1287E+04
      6.441  0.4571E+03  0.1308E+04
      6.487  0.4531E+03  0.1329E+04
      6.534  0.4500E+03  0.1350E+04
      6.580  0.4456E+03  0.1371E+04
      6.627  0.4391E+03  0.1391E+04
      6.674  0.4318E+03  0.1411E+04
      6.720  0.4247E+03  0.1431E+04
      6.767  0.4169E+03  0.1451E+04
      6.813  0.4016E+03  0.1469E+04
      6.860  0.3769E+03  0.1487E+04
      6.907  0.3544E+03  0.1503E+04
      6.953  0.3443E+03  0.1519E+04
      7.000  0.3393E+03  0.1535E+04
      7.046  0.3277E+03  0.1550E+04
      7.093  0.3148E+03  0.1565E+04
      7.140  0.3134E+03  0.1580E+04
      7.186  0.3193E+03  0.1595E+04
      7.233  0.3134E+03  0.1609E+04
      7.279  0.2876E+03  0.1623E+04
      7.326  0.2561E+03  0.1635E+04
      7.373  0.2403E+03  0.1646E+04
      7.419  0.2487E+03  0.1657E+04
      7.466  0.2712E+03  0.1670E+04
      7.512  0.2846E+03  0.1683E+04
      7.559  0.2765E+03  0.1696E+04
      7.606  0.2584E+03  0.1708E+04
      7.652  0.2482E+03  0.1720E+04
      7.699  0.2571E+03  0.1732E+04
      7.745  0.2828E+03  0.1745E+04
      7.792  0.3054E+03  0.1759E+04
      7.839  0.3120E+03  0.1774E+04
      7.885  0.3088E+03  0.1788E+04
      7.932  0.3031E+03  0.1802E+04
      7.978  0.2961E+03  0.1816E+04
      8.025  0.2910E+03  0.1830E+04
      8.072  0.2958E+03  0.1843E+04
      8.118  0.3093E+03  0.1858E+04
      8.165  0.3172E+03  0.1872E+04
      8.211  0.3178E+03  0.1887E+04
      8.258  0.3297E+03  0.1903E+04
      8.305  0.3535E+03  0.1919E+04
      8.351  0.3623E+03  0.1936E+04
      8.398  0.3398E+03  0.1952E+04
      8.444  0.3000E+03  0.1966E+04
      8.491  0.2670E+03  0.1978E+04
      8.538  0.2558E+03  0.1990E+04
      8.584  0.2710E+03  0.2003E+04
      8.631  0.2955E+03  0.2017E+04
      8.677  0.3002E+03  0.2031E+04
      8.724  0.2841E+03  0.2044E+04
      8.771  0.2675E+03  0.2056E+04
      8.817  0.2568E+03  0.2068E+04
      8.864  0.2491E+03  0.2080E+04
      8.910  0.2451E+03  0.2091E+04
      8.957  0.2453E+03  0.2103E+04
      9.004  0.2533E+03  0.2115E+04
      9.050  0.2733E+03  0.2127E+04
      9.097  0.2840E+03  0.2141E+04
      9.143  0.2662E+03  0.2153E+04
      9.190  0.2408E+03  0.2164E+04
      9.237  0.2283E+03  0.2175E+04
      9.283  0.2199E+03  0.2185E+04
      9.330  0.2139E+03  0.2195E+04
      9.376  0.2218E+03  0.2205E+04
      9.423  0.2423E+03  0.2217E+04
      9.470  0.2621E+03  0.2229E+04
      9.516  0.2735E+03  0.2242E+04
      9.563  0.2773E+03  0.2255E+04
      9.609  0.2762E+03  0.2267E+04
      9.656  0.2709E+03  0.2280E+04
      9.703  0.2610E+03  0.2292E+04
      9.749  0.2440E+03  0.2304E+04
      9.796  0.2244E+03  0.2314E+04
      9.842  0.2194E+03  0.2324E+04
      9.889  0.2364E+03  0.2335E+04
      9.936  0.2641E+03  0.2348E+04
      9.982  0.2951E+03  0.2361E+04
     10.029  0.3273E+03  0.2377E+04
     10.075  0.3491E+03  0.2393E+04
     10.122  0.3464E+03  0.2409E+04
     10.169  0.3240E+03  0.2424E+04
     10.215  0.3102E+03  0.2439E+04
     10.262  0.3291E+03  0.2454E+04
     10.308  0.3870E+03  0.2472E+04
     10.355  0.4662E+03  0.2494E+04
     10.402  0.5185E+03  0.2518E+04
     10.448  0.5092E+03  0.2541E+04
     10.495  0.4506E+03  0.2562E+04
     10.541  0.3740E+03  0.2580E+04
     10.588  0.3023E+03  0.2594E+04
     10.635  0.2484E+03  0.2606E+04
     10.681  0.2127E+03  0.2615E+04
     10.728  0.1810E+03  0.2624E+04
     10.774  0.1421E+03  0.2631E+04
     10.821  0.9743E+02  0.2635E+04
     10.868  0.5656E+02  0.2638E+04
     10.914  0.2725E+02  0.2639E+04
     10.961  0.1041E+02  0.2639E+04
     11.007  0.3050E+01  0.2640E+04
     11.054  0.1429E+01  0.2640E+04
     11.101  0.1779E+01  0.2640E+04
     11.147  0.1585E+01  0.2640E+04
     11.194  0.6677E+00  0.2640E+04
     11.241  0.9817E-02  0.2640E+04
     11.287 -0.1121E+00  0.2640E+04
     11.334 -0.4984E-01  0.2640E+04
     11.380 -0.1090E-01  0.2640E+04
     11.427 -0.3458E-02  0.2640E+04
     11.474 -0.1329E-01  0.2640E+04
     11.520 -0.4258E-01  0.2640E+04
     11.567 -0.3517E-01  0.2640E+04
     11.613  0.2028E+00  0.2640E+04
     11.660  0.7196E+00  0.2640E+04
     11.707  0.1026E+01  0.2640E+04
     11.753  0.7185E+00  0.2640E+04
     11.800  0.2019E+00  0.2640E+04
     11.846 -0.3535E-01  0.2640E+04
     11.893 -0.4251E-01  0.2640E+04
     11.940 -0.1314E-01  0.2640E+04
     11.986 -0.2123E-02  0.2640E+04
     12.033 -0.2013E-03  0.2640E+04
     12.079 -0.1169E-04  0.2640E+04
     12.126 -0.4245E-06  0.2640E+04
     12.173 -0.9746E-08  0.2640E+04
     12.219 -0.1424E-09  0.2640E+04
     12.266 -0.1331E-11  0.2640E+04
     12.312 -0.8041E-14  0.2640E+04
     12.359  0.0000E+00  0.2640E+04
     12.406  0.0000E+00  0.2640E+04
     12.452  0.0000E+00  0.2640E+04
     12.499  0.0000E+00  0.2640E+04
     12.545  0.0000E+00  0.2640E+04
     12.592  0.0000E+00  0.2640E+04
     12.639  0.0000E+00  0.2640E+04
     12.685  0.0000E+00  0.2640E+04
