       N       E                     dE             d eps       ncg     rms          rms(c)
DAV:   1     0.112830094229E+05    0.11283E+05   -0.55466E+05 95400   0.810E+02
DAV:   2    -0.143892078438E+04   -0.12722E+05   -0.12145E+05 95800   0.337E+02
DAV:   3    -0.241089058433E+04   -0.97197E+03   -0.89395E+03135200   0.780E+01
DAV:   4    -0.248228125211E+04   -0.71391E+02   -0.68963E+02132200   0.209E+01
DAV:   5    -0.248511480166E+04   -0.28335E+01   -0.27776E+01139860   0.331E+00    0.779E+01
RMM:   6    -0.241643363702E+04    0.68681E+02   -0.68066E+02105893   0.245E+01    0.623E+01
RMM:   7    -0.237000264788E+04    0.46431E+02   -0.35226E+02 97775   0.172E+01    0.455E+01
RMM:   8    -0.233985552729E+04    0.30147E+02   -0.15703E+02 97670   0.114E+01    0.321E+01
RMM:   9    -0.231563943388E+04    0.24216E+02   -0.34500E+01 98754   0.532E+00    0.623E+00
RMM:  10    -0.231545908055E+04    0.18035E+00   -0.73614E+00136748   0.152E+00    0.365E+00
RMM:  11    -0.231536107794E+04    0.98003E-01   -0.13266E+00122404   0.723E-01    0.406E+00
RMM:  12    -0.231489337939E+04    0.46770E+00   -0.57194E-01113311   0.673E-01    0.203E+00
RMM:  13    -0.231478142113E+04    0.11196E+00   -0.25595E-01112510   0.437E-01    0.138E+00
RMM:  14    -0.231479030622E+04   -0.88851E-02   -0.16193E-01117687   0.284E-01    0.180E+00
RMM:  15    -0.231472791385E+04    0.62392E-01   -0.71941E-02116860   0.186E-01    0.966E-01
RMM:  16    -0.231471413607E+04    0.13778E-01   -0.24102E-02111167   0.126E-01    0.461E-01
RMM:  17    -0.231471148502E+04    0.26510E-02   -0.14202E-02121128   0.829E-02    0.223E-01
RMM:  18    -0.231471212705E+04   -0.64203E-03   -0.86775E-03131417   0.581E-02    0.224E-01
RMM:  19    -0.231471202736E+04    0.99689E-04   -0.21672E-03135838   0.252E-02    0.214E-01
RMM:  20    -0.231471142200E+04    0.60537E-03   -0.52036E-04113381   0.175E-02    0.141E-01
RMM:  21    -0.231471100449E+04    0.41751E-03   -0.99284E-04118792   0.230E-02    0.449E-02
RMM:  22    -0.231471096413E+04    0.40358E-04   -0.34915E-04135796   0.113E-02
   1 F= -.23147110E+04 E0= -.23147186E+04  d E =0.230036E-01
