<?xml version="1.0" encoding="ISO-8859-1"?>
<modeling>
 <generator>
  <i name="program" type="string">vasp </i>
  <i name="version" type="string">5.4.1  </i>
  <i name="subversion" type="string">24Jun15 (build Feb 03 2017 16:24:58) complex                          parallel </i>
  <i name="platform" type="string">IFC91_ompi </i>
  <i name="date" type="string">2018 07 11 </i>
  <i name="time" type="string">02:27:24 </i>
 </generator>
 <incar>
  <i type="string" name="SYSTEM"> Ir_Ru</i>
  <i type="int" name="ISTART">     0</i>
  <i type="string" name="PREC">accurate</i>
  <i type="string" name="ALGO"> Very_Fast</i>
  <i type="int" name="ICHARG">     2</i>
  <i type="int" name="NELMIN">     5</i>
  <i type="int" name="IBRION">    -1</i>
  <i name="EDIFFG">      0.00001000</i>
  <i type="int" name="ISIF">     2</i>
  <i type="string" name="LREAL"> AUTO</i>
  <i type="int" name="ISMEAR">     1</i>
  <i name="SIGMA">      0.10000000</i>
  <v type="int" name="KPOINT_BSE">    -1     0     0     0</v>
 </incar>
 <kpoints>
  <generation param="Gamma">
   <v type="int" name="divisions">       4        3        3 </v>
   <v name="usershift">      0.00000000       0.00000000       0.00000000 </v>
   <v name="genvec1">      0.25000000      -0.00000000      -0.00000000 </v>
   <v name="genvec2">      0.00000000       0.33333333       0.00000000 </v>
   <v name="genvec3">     -0.00000000      -0.00000000       0.33333333 </v>
   <v name="shift">      0.00000000       0.00000000       0.00000000 </v>
  </generation>
  <varray name="kpointlist" >
   <v>       0.00000000       0.00000000       0.00000000 </v>
   <v>       0.25000000       0.00000000      -0.00000000 </v>
   <v>       0.50000000       0.00000000      -0.00000000 </v>
   <v>       0.00000000       0.33333333       0.00000000 </v>
   <v>       0.25000000       0.33333333       0.00000000 </v>
   <v>       0.50000000       0.33333333       0.00000000 </v>
   <v>      -0.25000000       0.33333333       0.00000000 </v>
   <v>       0.00000000      -0.00000000       0.33333333 </v>
   <v>       0.25000000      -0.00000000       0.33333333 </v>
   <v>       0.50000000       0.00000000       0.33333333 </v>
   <v>      -0.25000000       0.00000000       0.33333333 </v>
   <v>       0.00000000       0.33333333       0.33333333 </v>
   <v>       0.25000000       0.33333333       0.33333333 </v>
   <v>       0.50000000       0.33333333       0.33333333 </v>
   <v>      -0.25000000       0.33333333       0.33333333 </v>
   <v>       0.00000000      -0.33333333       0.33333333 </v>
   <v>       0.25000000      -0.33333333       0.33333333 </v>
   <v>       0.50000000      -0.33333333       0.33333333 </v>
   <v>      -0.25000000      -0.33333333       0.33333333 </v>
  </varray>
  <varray name="weights" >
   <v>       0.02777778 </v>
   <v>       0.05555556 </v>
   <v>       0.02777778 </v>
   <v>       0.05555556 </v>
   <v>       0.05555556 </v>
   <v>       0.05555556 </v>
   <v>       0.05555556 </v>
   <v>       0.05555556 </v>
   <v>       0.05555556 </v>
   <v>       0.05555556 </v>
   <v>       0.05555556 </v>
   <v>       0.05555556 </v>
   <v>       0.05555556 </v>
   <v>       0.05555556 </v>
   <v>       0.05555556 </v>
   <v>       0.05555556 </v>
   <v>       0.05555556 </v>
   <v>       0.05555556 </v>
   <v>       0.05555556 </v>
  </varray>
 </kpoints>
 <parameters>
  <separator name="general" >
   <i type="string" name="SYSTEM">Ir_Ru</i>
   <i type="logical" name="LCOMPAT"> F  </i>
  </separator>
  <separator name="electronic" >
   <i type="string" name="PREC">accura</i>
   <i name="ENMAX">    213.27600000</i>
   <i name="ENAUG">    333.49400000</i>
   <i name="EDIFF">      0.00010000</i>
   <i type="int" name="IALGO">    48</i>
   <i type="int" name="IWAVPR">    10</i>
   <i type="int" name="NBANDS">  1320</i>
   <i name="NELECT">   2176.00000000</i>
   <i type="int" name="TURBO">     0</i>
   <i type="int" name="IRESTART">     0</i>
   <i type="int" name="NREBOOT">     0</i>
   <i type="int" name="NMIN">     0</i>
   <i name="EREF">      0.00000000</i>
   <separator name="electronic smearing" >
    <i type="int" name="ISMEAR">     1</i>
    <i name="SIGMA">      0.10000000</i>
    <i name="KSPACING">      0.50000000</i>
    <i type="logical" name="KGAMMA"> T  </i>
   </separator>
   <separator name="electronic projectors" >
    <i type="logical" name="LREAL"> T  </i>
    <v name="ROPT">     -0.00025000     -0.00025000</v>
    <i type="int" name="LMAXPAW">  -100</i>
    <i type="int" name="LMAXMIX">     2</i>
    <i type="logical" name="NLSPLINE"> F  </i>
   </separator>
   <separator name="electronic startup" >
    <i type="int" name="ISTART">     0</i>
    <i type="int" name="ICHARG">     2</i>
    <i type="int" name="INIWAV">     1</i>
   </separator>
   <separator name="electronic spin" >
    <i type="int" name="ISPIN">     1</i>
    <i type="logical" name="LNONCOLLINEAR"> F  </i>
    <v name="MAGMOM">      1.00000000      1.00000000      1.00000000      1.00000000      1.00000000      1.00000000      1.00000000      1.00000000      1.00000000      1.00000000      1.00000000      1.00000000      1.00000000      1.00000000      1.00000000      1.00000000      1.00000000      1.00000000      1.00000000      1.00000000
      1.00000000      1.00000000      1.00000000      1.00000000      1.00000000      1.00000000      1.00000000      1.00000000      1.00000000      1.00000000      1.00000000      1.00000000      1.00000000      1.00000000      1.00000000      1.00000000      1.00000000      1.00000000      1.00000000      1.00000000
      1.00000000      1.00000000      1.00000000      1.00000000      1.00000000      1.00000000      1.00000000      1.00000000      1.00000000      1.00000000      1.00000000      1.00000000      1.00000000      1.00000000      1.00000000      1.00000000      1.00000000      1.00000000      1.00000000      1.00000000
      1.00000000      1.00000000      1.00000000      1.00000000      1.00000000      1.00000000      1.00000000      1.00000000      1.00000000      1.00000000      1.00000000      1.00000000      1.00000000      1.00000000      1.00000000      1.00000000      1.00000000      1.00000000      1.00000000      1.00000000
      1.00000000      1.00000000      1.00000000      1.00000000      1.00000000      1.00000000      1.00000000      1.00000000      1.00000000      1.00000000      1.00000000      1.00000000      1.00000000      1.00000000      1.00000000      1.00000000      1.00000000      1.00000000      1.00000000      1.00000000
      1.00000000      1.00000000      1.00000000      1.00000000      1.00000000      1.00000000      1.00000000      1.00000000      1.00000000      1.00000000      1.00000000      1.00000000      1.00000000      1.00000000      1.00000000      1.00000000      1.00000000      1.00000000      1.00000000      1.00000000
      1.00000000      1.00000000      1.00000000      1.00000000      1.00000000      1.00000000      1.00000000      1.00000000      1.00000000      1.00000000      1.00000000      1.00000000      1.00000000      1.00000000      1.00000000      1.00000000      1.00000000      1.00000000      1.00000000      1.00000000
      1.00000000      1.00000000      1.00000000      1.00000000      1.00000000      1.00000000      1.00000000      1.00000000      1.00000000      1.00000000      1.00000000      1.00000000      1.00000000      1.00000000      1.00000000      1.00000000      1.00000000      1.00000000      1.00000000      1.00000000
      1.00000000      1.00000000      1.00000000      1.00000000      1.00000000      1.00000000      1.00000000      1.00000000      1.00000000      1.00000000      1.00000000      1.00000000      1.00000000      1.00000000      1.00000000      1.00000000      1.00000000      1.00000000      1.00000000      1.00000000
      1.00000000      1.00000000      1.00000000      1.00000000      1.00000000      1.00000000      1.00000000      1.00000000      1.00000000      1.00000000      1.00000000      1.00000000      1.00000000      1.00000000      1.00000000      1.00000000      1.00000000      1.00000000      1.00000000      1.00000000
      1.00000000      1.00000000      1.00000000      1.00000000      1.00000000      1.00000000      1.00000000      1.00000000      1.00000000      1.00000000      1.00000000      1.00000000      1.00000000      1.00000000      1.00000000      1.00000000      1.00000000      1.00000000      1.00000000      1.00000000
      1.00000000      1.00000000      1.00000000      1.00000000      1.00000000      1.00000000      1.00000000      1.00000000      1.00000000      1.00000000      1.00000000      1.00000000      1.00000000      1.00000000      1.00000000      1.00000000      1.00000000      1.00000000      1.00000000      1.00000000
      1.00000000      1.00000000      1.00000000      1.00000000      1.00000000      1.00000000      1.00000000      1.00000000      1.00000000      1.00000000      1.00000000      1.00000000      1.00000000      1.00000000      1.00000000      1.00000000</v>
    <i name="NUPDOWN">     -1.00000000</i>
    <i type="logical" name="LSORBIT"> F  </i>
    <v name="SAXIS">      0.00000000      0.00000000      1.00000000</v>
    <i type="logical" name="LSPIRAL"> F  </i>
    <v name="QSPIRAL">      0.00000000      0.00000000      0.00000000</v>
    <i type="logical" name="LZEROZ"> F  </i>
   </separator>
   <separator name="electronic exchange-correlation" >
    <i type="logical" name="LASPH"> F  </i>
    <i type="logical" name="LMETAGGA"> F  </i>
   </separator>
   <separator name="electronic convergence" >
    <i type="int" name="NELM">    60</i>
    <i type="int" name="NELMDL">   -12</i>
    <i type="int" name="NELMIN">     5</i>
    <i name="ENINI">    213.27600000</i>
    <separator name="electronic convergence detail" >
     <i type="logical" name="LDIAG"> T  </i>
     <i type="logical" name="LSUBROT"> F  </i>
     <i name="WEIMIN">      0.00000000</i>
     <i name="EBREAK">      0.00000000</i>
     <i name="DEPER">      0.30000000</i>
     <i type="int" name="NRMM">     4</i>
     <i name="TIME">      0.40000000</i>
    </separator>
   </separator>
   <separator name="electronic mixer" >
    <i name="AMIX">      0.40000000</i>
    <i name="BMIX">      1.00000000</i>
    <i name="AMIN">      0.10000000</i>
    <i name="AMIX_MAG">      1.60000000</i>
    <i name="BMIX_MAG">      1.00000000</i>
    <separator name="electronic mixer details" >
     <i type="int" name="IMIX">     4</i>
     <i type="logical" name="MIXFIRST"> F  </i>
     <i type="int" name="MAXMIX">   -45</i>
     <i name="WC">    100.00000000</i>
     <i type="int" name="INIMIX">     1</i>
     <i type="int" name="MIXPRE">     1</i>
     <i type="int" name="MREMOVE">     5</i>
    </separator>
   </separator>
   <separator name="electronic dipolcorrection" >
    <i type="logical" name="LDIPOL"> F  </i>
    <i type="logical" name="LMONO"> F  </i>
    <i type="int" name="IDIPOL">     0</i>
    <i name="EPSILON">      1.00000000</i>
    <v name="DIPOL">   -100.00000000   -100.00000000   -100.00000000</v>
    <i name="EFIELD">      0.00000000</i>
   </separator>
  </separator>
  <separator name="grids" >
   <i type="int" name="NGX">    80</i>
   <i type="int" name="NGY">    84</i>
   <i type="int" name="NGZ">    84</i>
   <i type="int" name="NGXF">   160</i>
   <i type="int" name="NGYF">   168</i>
   <i type="int" name="NGZF">   168</i>
   <i type="logical" name="ADDGRID"> F  </i>
  </separator>
  <separator name="ionic" >
   <i type="int" name="NSW">     0</i>
   <i type="int" name="IBRION">    -1</i>
   <i type="int" name="ISIF">     2</i>
   <i name="PSTRESS">      0.00000000</i>
   <i name="EDIFFG">      0.00001000</i>
   <i type="int" name="NFREE">     0</i>
   <i name="POTIM">      0.50000000</i>
   <i name="SMASS">     -3.00000000</i>
   <i name="SCALEE">      1.00000000</i>
  </separator>
  <separator name="ionic md" >
   <i name="TEBEG">      0.00010000</i>
   <i name="TEEND">      0.00010000</i>
   <i type="int" name="NBLOCK">     1</i>
   <i type="int" name="KBLOCK">     1</i>
   <i type="int" name="NPACO">   256</i>
   <i name="APACO">     16.00000000</i>
  </separator>
  <separator name="symmetry" >
   <i type="int" name="ISYM">     2</i>
   <i name="SYMPREC">      0.00001000</i>
  </separator>
  <separator name="dos" >
   <i type="logical" name="LORBIT"> F  </i>
   <v name="RWIGS">     -1.00000000     -1.00000000</v>
   <i type="int" name="NEDOS">   301</i>
   <i name="EMIN">     10.00000000</i>
   <i name="EMAX">    -10.00000000</i>
   <i name="EFERMI">      0.00000000</i>
  </separator>
  <separator name="writing" >
   <i type="int" name="NWRITE">     2</i>
   <i type="logical" name="LWAVE"> T  </i>
   <i type="logical" name="LCHARG"> T  </i>
   <i type="logical" name="LPARD"> F  </i>
   <i type="logical" name="LVTOT"> F  </i>
   <i type="logical" name="LVHAR"> F  </i>
   <i type="logical" name="LELF"> F  </i>
   <i type="logical" name="LOPTICS"> F  </i>
   <v name="STM">      0.00000000      0.00000000      0.00000000      0.00000000      0.00000000      0.00000000      0.00000000</v>
  </separator>
  <separator name="performance" >
   <i type="int" name="NPAR">    20</i>
   <i type="int" name="NSIM">     4</i>
   <i type="int" name="NBLK">    -1</i>
   <i type="logical" name="LPLANE"> T  </i>
   <i type="logical" name="LSCALAPACK"> T  </i>
   <i type="logical" name="LSCAAWARE"> F  </i>
   <i type="logical" name="LSCALU"> F  </i>
   <i type="logical" name="LASYNC"> F  </i>
   <i type="logical" name="LORBITALREAL"> F  </i>
  </separator>
  <separator name="miscellaneous" >
   <i type="int" name="IDIOT">     3</i>
   <i type="logical" name="LMUSIC"> F  </i>
   <v name="POMASS">    192.22000000    101.07000000</v>
   <v name="DARWINR">      0.00000000      0.00000000</v>
   <v name="DARWINV">      1.00000000      1.00000000</v>
   <i type="logical" name="LCORR"> T  </i>
  </separator>
  <i type="logical" name="GGA_COMPAT"> T  </i>
  <i type="logical" name="LBERRY"> F  </i>
  <i type="int" name="ICORELEVEL">     0</i>
  <i type="logical" name="LDAU"> F  </i>
  <i type="int" name="I_CONSTRAINED_M">     0</i>
  <separator name="electronic exchange-correlation" >
   <i type="string" name="GGA">--</i>
   <i type="int" name="VOSKOWN">     0</i>
   <i type="logical" name="LHFCALC"> F  </i>
   <i type="string" name="PRECFOCK"></i>
   <i type="logical" name="LSYMGRAD"> F  </i>
   <i type="logical" name="LHFONE"> F  </i>
   <i type="logical" name="LRHFCALC"> F  </i>
   <i type="logical" name="LTHOMAS"> F  </i>
   <i type="logical" name="LMODELHF"> F  </i>
   <i name="ENCUT4O">     -1.00000000</i>
   <i type="int" name="EXXOEP">     0</i>
   <i type="int" name="FOURORBIT">     0</i>
   <i name="AEXX">      0.00000000</i>
   <i name="HFALPHA">      0.00000000</i>
   <i name="MCALPHA">      0.00000000</i>
   <i name="ALDAX">      1.00000000</i>
   <i name="AGGAX">      1.00000000</i>
   <i name="ALDAC">      1.00000000</i>
   <i name="AGGAC">      1.00000000</i>
   <i type="int" name="NKREDX">     1</i>
   <i type="int" name="NKREDY">     1</i>
   <i type="int" name="NKREDZ">     1</i>
   <i type="logical" name="SHIFTRED"> F  </i>
   <i type="logical" name="ODDONLY"> F  </i>
   <i type="logical" name="EVENONLY"> F  </i>
   <i type="int" name="LMAXFOCK">     0</i>
   <i type="int" name="NMAXFOCKAE">     0</i>
   <i type="logical" name="LFOCKAEDFT"> F  </i>
   <i name="HFSCREEN">      0.00000000</i>
   <i name="HFSCREENC">      0.00000000</i>
   <i type="int" name="NBANDSGWLOW">     0</i>
  </separator>
  <separator name="vdW DFT" >
   <i type="logical" name="LUSE_VDW"> F  </i>
   <i name="Zab_VDW">     -0.84910000</i>
   <i name="PARAM1">      0.12340000</i>
   <i name="PARAM2">      1.00000000</i>
   <i name="PARAM3">      0.00000000</i>
  </separator>
  <separator name="model GW" >
   <i type="int" name="MODEL_GW">     0</i>
   <i name="MODEL_EPS0">      8.51350379</i>
   <i name="MODEL_ALPHA">      1.00000000</i>
  </separator>
  <separator name="linear response parameters" >
   <i type="logical" name="LEPSILON"> F  </i>
   <i type="logical" name="LRPA"> F  </i>
   <i type="logical" name="LNABLA"> F  </i>
   <i type="logical" name="LVEL"> F  </i>
   <i type="int" name="KINTER">     0</i>
   <i name="CSHIFT">      0.10000000</i>
   <i name="OMEGAMAX">     -1.00000000</i>
   <i name="DEG_THRESHOLD">      0.00200000</i>
  </separator>
  <separator name="orbital magnetization" >
   <i type="logical" name="NUCIND"> F  </i>
   <v name="MAGPOS">      0.00000000      0.00000000      0.00000000</v>
   <i type="logical" name="LNICSALL"> T  </i>
   <i type="logical" name="ORBITALMAG"> F  </i>
   <i type="logical" name="LMAGBLOCH"> F  </i>
   <i type="logical" name="LCHIMAG"> F  </i>
   <i type="logical" name="LGAUGE"> T  </i>
   <i type="int" name="MAGATOM">     0</i>
   <v name="MAGDIPOL">      0.00000000      0.00000000      0.00000000</v>
   <v name="AVECCONST">      0.00000000      0.00000000      0.00000000</v>
  </separator>
  <separator name="response functions" >
   <i type="logical" name="LADDER"> F  </i>
   <i type="logical" name="LFXC"> F  </i>
   <i type="logical" name="LHARTREE"> T  </i>
   <i type="int" name="IBSE">     0</i>
   <v type="int" name="KPOINT">    -1     0     0     0</v>
   <i type="logical" name="LTCTE"> F  </i>
   <i type="logical" name="LTETE"> F  </i>
   <i type="logical" name="LTRIPLET"> F  </i>
   <i type="logical" name="LFXCEPS"> F  </i>
   <i type="logical" name="LFXHEG"> F  </i>
   <i type="int" name="NATURALO">     0</i>
   <i type="logical" name="L2ORDER"> F  </i>
   <i type="logical" name="LUSEW"> F  </i>
   <i name="ENCUTGW">     -2.00000000</i>
   <i name="ENCUTGWSOFT">     -2.00000000</i>
   <i name="ENCUTLF">     -1.00000000</i>
   <i type="int" name="LMAXMP2">    -1</i>
   <i name="SCISSOR">      0.00000000</i>
   <i type="int" name="NOMEGA">     0</i>
   <i type="int" name="NOMEGAR">     0</i>
   <i type="int" name="NBANDSGW">    -1</i>
   <i type="int" name="NBANDSO">    -1</i>
   <i type="int" name="NBANDSV">    -1</i>
   <i type="int" name="NELM">     1</i>
   <i type="int" name="NELMHF">     1</i>
   <i type="int" name="DIM">     3</i>
   <i type="int" name="ANTIRES">     0</i>
   <i name="OMEGAMAX">    -30.00000000</i>
   <i name="OMEGAMIN">    -30.00000000</i>
   <i name="OMEGATL">   -200.00000000</i>
   <i type="int" name="OMEGAGRID">     0</i>
   <i name="CSHIFT">     -0.10000000</i>
   <i type="logical" name="SELFENERGY"> F  </i>
   <i type="logical" name="LSPECTRAL"> F  </i>
   <i type="logical" name="LSPECTRALGW"> F  </i>
   <i type="logical" name="LSINGLES"> F  </i>
   <i type="logical" name="LFERMIGW"> F  </i>
   <i type="logical" name="ODDONLYGW"> F  </i>
   <i type="logical" name="EVENONLYGW"> F  </i>
   <i type="int" name="NKREDLFX">     1</i>
   <i type="int" name="NKREDLFY">     1</i>
   <i type="int" name="NKREDLFZ">     1</i>
   <i type="int" name="MAXMEM">  1800</i>
   <i type="int" name="TELESCOPE">     0</i>
   <i type="int" name="TAUPAR">     1</i>
   <i type="int" name="OMEGAPAR">    -1</i>
   <i name="LAMBDA">      1.00000000</i>
  </separator>
  <separator name="External order field" >
   <i name="OFIELD_KAPPA">      0.00000000</i>
   <v name="OFIELD_K">      0.00000000      0.00000000      0.00000000</v>
   <i name="OFIELD_Q6_NEAR">      0.00000000</i>
   <i name="OFIELD_Q6_FAR">      0.00000000</i>
   <i name="OFIELD_A">      0.00000000</i>
  </separator>
 </parameters>
 <atominfo>
  <atoms>     256 </atoms>
  <types>       2 </types>
  <array name="atoms" >
   <dimension dim="1">ion</dimension>
   <field type="string">element</field>
   <field type="int">atomtype</field>
   <set>
    <rc><c>Ir</c><c>   1</c></rc>
    <rc><c>Ir</c><c>   1</c></rc>
    <rc><c>Ir</c><c>   1</c></rc>
    <rc><c>Ir</c><c>   1</c></rc>
    <rc><c>Ir</c><c>   1</c></rc>
    <rc><c>Ir</c><c>   1</c></rc>
    <rc><c>Ir</c><c>   1</c></rc>
    <rc><c>Ir</c><c>   1</c></rc>
    <rc><c>Ir</c><c>   1</c></rc>
    <rc><c>Ir</c><c>   1</c></rc>
    <rc><c>Ir</c><c>   1</c></rc>
    <rc><c>Ir</c><c>   1</c></rc>
    <rc><c>Ir</c><c>   1</c></rc>
    <rc><c>Ir</c><c>   1</c></rc>
    <rc><c>Ir</c><c>   1</c></rc>
    <rc><c>Ir</c><c>   1</c></rc>
    <rc><c>Ir</c><c>   1</c></rc>
    <rc><c>Ir</c><c>   1</c></rc>
    <rc><c>Ir</c><c>   1</c></rc>
    <rc><c>Ir</c><c>   1</c></rc>
    <rc><c>Ir</c><c>   1</c></rc>
    <rc><c>Ir</c><c>   1</c></rc>
    <rc><c>Ir</c><c>   1</c></rc>
    <rc><c>Ir</c><c>   1</c></rc>
    <rc><c>Ir</c><c>   1</c></rc>
    <rc><c>Ir</c><c>   1</c></rc>
    <rc><c>Ir</c><c>   1</c></rc>
    <rc><c>Ir</c><c>   1</c></rc>
    <rc><c>Ir</c><c>   1</c></rc>
    <rc><c>Ir</c><c>   1</c></rc>
    <rc><c>Ir</c><c>   1</c></rc>
    <rc><c>Ir</c><c>   1</c></rc>
    <rc><c>Ir</c><c>   1</c></rc>
    <rc><c>Ir</c><c>   1</c></rc>
    <rc><c>Ir</c><c>   1</c></rc>
    <rc><c>Ir</c><c>   1</c></rc>
    <rc><c>Ir</c><c>   1</c></rc>
    <rc><c>Ir</c><c>   1</c></rc>
    <rc><c>Ir</c><c>   1</c></rc>
    <rc><c>Ir</c><c>   1</c></rc>
    <rc><c>Ir</c><c>   1</c></rc>
    <rc><c>Ir</c><c>   1</c></rc>
    <rc><c>Ir</c><c>   1</c></rc>
    <rc><c>Ir</c><c>   1</c></rc>
    <rc><c>Ir</c><c>   1</c></rc>
    <rc><c>Ir</c><c>   1</c></rc>
    <rc><c>Ir</c><c>   1</c></rc>
    <rc><c>Ir</c><c>   1</c></rc>
    <rc><c>Ir</c><c>   1</c></rc>
    <rc><c>Ir</c><c>   1</c></rc>
    <rc><c>Ir</c><c>   1</c></rc>
    <rc><c>Ir</c><c>   1</c></rc>
    <rc><c>Ir</c><c>   1</c></rc>
    <rc><c>Ir</c><c>   1</c></rc>
    <rc><c>Ir</c><c>   1</c></rc>
    <rc><c>Ir</c><c>   1</c></rc>
    <rc><c>Ir</c><c>   1</c></rc>
    <rc><c>Ir</c><c>   1</c></rc>
    <rc><c>Ir</c><c>   1</c></rc>
    <rc><c>Ir</c><c>   1</c></rc>
    <rc><c>Ir</c><c>   1</c></rc>
    <rc><c>Ir</c><c>   1</c></rc>
    <rc><c>Ir</c><c>   1</c></rc>
    <rc><c>Ir</c><c>   1</c></rc>
    <rc><c>Ir</c><c>   1</c></rc>
    <rc><c>Ir</c><c>   1</c></rc>
    <rc><c>Ir</c><c>   1</c></rc>
    <rc><c>Ir</c><c>   1</c></rc>
    <rc><c>Ir</c><c>   1</c></rc>
    <rc><c>Ir</c><c>   1</c></rc>
    <rc><c>Ir</c><c>   1</c></rc>
    <rc><c>Ir</c><c>   1</c></rc>
    <rc><c>Ir</c><c>   1</c></rc>
    <rc><c>Ir</c><c>   1</c></rc>
    <rc><c>Ir</c><c>   1</c></rc>
    <rc><c>Ir</c><c>   1</c></rc>
    <rc><c>Ir</c><c>   1</c></rc>
    <rc><c>Ir</c><c>   1</c></rc>
    <rc><c>Ir</c><c>   1</c></rc>
    <rc><c>Ir</c><c>   1</c></rc>
    <rc><c>Ir</c><c>   1</c></rc>
    <rc><c>Ir</c><c>   1</c></rc>
    <rc><c>Ir</c><c>   1</c></rc>
    <rc><c>Ir</c><c>   1</c></rc>
    <rc><c>Ir</c><c>   1</c></rc>
    <rc><c>Ir</c><c>   1</c></rc>
    <rc><c>Ir</c><c>   1</c></rc>
    <rc><c>Ir</c><c>   1</c></rc>
    <rc><c>Ir</c><c>   1</c></rc>
    <rc><c>Ir</c><c>   1</c></rc>
    <rc><c>Ir</c><c>   1</c></rc>
    <rc><c>Ir</c><c>   1</c></rc>
    <rc><c>Ir</c><c>   1</c></rc>
    <rc><c>Ir</c><c>   1</c></rc>
    <rc><c>Ir</c><c>   1</c></rc>
    <rc><c>Ir</c><c>   1</c></rc>
    <rc><c>Ir</c><c>   1</c></rc>
    <rc><c>Ir</c><c>   1</c></rc>
    <rc><c>Ir</c><c>   1</c></rc>
    <rc><c>Ir</c><c>   1</c></rc>
    <rc><c>Ir</c><c>   1</c></rc>
    <rc><c>Ir</c><c>   1</c></rc>
    <rc><c>Ir</c><c>   1</c></rc>
    <rc><c>Ir</c><c>   1</c></rc>
    <rc><c>Ir</c><c>   1</c></rc>
    <rc><c>Ir</c><c>   1</c></rc>
    <rc><c>Ir</c><c>   1</c></rc>
    <rc><c>Ir</c><c>   1</c></rc>
    <rc><c>Ir</c><c>   1</c></rc>
    <rc><c>Ir</c><c>   1</c></rc>
    <rc><c>Ir</c><c>   1</c></rc>
    <rc><c>Ir</c><c>   1</c></rc>
    <rc><c>Ir</c><c>   1</c></rc>
    <rc><c>Ir</c><c>   1</c></rc>
    <rc><c>Ir</c><c>   1</c></rc>
    <rc><c>Ir</c><c>   1</c></rc>
    <rc><c>Ir</c><c>   1</c></rc>
    <rc><c>Ir</c><c>   1</c></rc>
    <rc><c>Ir</c><c>   1</c></rc>
    <rc><c>Ir</c><c>   1</c></rc>
    <rc><c>Ir</c><c>   1</c></rc>
    <rc><c>Ir</c><c>   1</c></rc>
    <rc><c>Ir</c><c>   1</c></rc>
    <rc><c>Ir</c><c>   1</c></rc>
    <rc><c>Ir</c><c>   1</c></rc>
    <rc><c>Ir</c><c>   1</c></rc>
    <rc><c>Ir</c><c>   1</c></rc>
    <rc><c>Ir</c><c>   1</c></rc>
    <rc><c>Ru</c><c>   2</c></rc>
    <rc><c>Ru</c><c>   2</c></rc>
    <rc><c>Ru</c><c>   2</c></rc>
    <rc><c>Ru</c><c>   2</c></rc>
    <rc><c>Ru</c><c>   2</c></rc>
    <rc><c>Ru</c><c>   2</c></rc>
    <rc><c>Ru</c><c>   2</c></rc>
    <rc><c>Ru</c><c>   2</c></rc>
    <rc><c>Ru</c><c>   2</c></rc>
    <rc><c>Ru</c><c>   2</c></rc>
    <rc><c>Ru</c><c>   2</c></rc>
    <rc><c>Ru</c><c>   2</c></rc>
    <rc><c>Ru</c><c>   2</c></rc>
    <rc><c>Ru</c><c>   2</c></rc>
    <rc><c>Ru</c><c>   2</c></rc>
    <rc><c>Ru</c><c>   2</c></rc>
    <rc><c>Ru</c><c>   2</c></rc>
    <rc><c>Ru</c><c>   2</c></rc>
    <rc><c>Ru</c><c>   2</c></rc>
    <rc><c>Ru</c><c>   2</c></rc>
    <rc><c>Ru</c><c>   2</c></rc>
    <rc><c>Ru</c><c>   2</c></rc>
    <rc><c>Ru</c><c>   2</c></rc>
    <rc><c>Ru</c><c>   2</c></rc>
    <rc><c>Ru</c><c>   2</c></rc>
    <rc><c>Ru</c><c>   2</c></rc>
    <rc><c>Ru</c><c>   2</c></rc>
    <rc><c>Ru</c><c>   2</c></rc>
    <rc><c>Ru</c><c>   2</c></rc>
    <rc><c>Ru</c><c>   2</c></rc>
    <rc><c>Ru</c><c>   2</c></rc>
    <rc><c>Ru</c><c>   2</c></rc>
    <rc><c>Ru</c><c>   2</c></rc>
    <rc><c>Ru</c><c>   2</c></rc>
    <rc><c>Ru</c><c>   2</c></rc>
    <rc><c>Ru</c><c>   2</c></rc>
    <rc><c>Ru</c><c>   2</c></rc>
    <rc><c>Ru</c><c>   2</c></rc>
    <rc><c>Ru</c><c>   2</c></rc>
    <rc><c>Ru</c><c>   2</c></rc>
    <rc><c>Ru</c><c>   2</c></rc>
    <rc><c>Ru</c><c>   2</c></rc>
    <rc><c>Ru</c><c>   2</c></rc>
    <rc><c>Ru</c><c>   2</c></rc>
    <rc><c>Ru</c><c>   2</c></rc>
    <rc><c>Ru</c><c>   2</c></rc>
    <rc><c>Ru</c><c>   2</c></rc>
    <rc><c>Ru</c><c>   2</c></rc>
    <rc><c>Ru</c><c>   2</c></rc>
    <rc><c>Ru</c><c>   2</c></rc>
    <rc><c>Ru</c><c>   2</c></rc>
    <rc><c>Ru</c><c>   2</c></rc>
    <rc><c>Ru</c><c>   2</c></rc>
    <rc><c>Ru</c><c>   2</c></rc>
    <rc><c>Ru</c><c>   2</c></rc>
    <rc><c>Ru</c><c>   2</c></rc>
    <rc><c>Ru</c><c>   2</c></rc>
    <rc><c>Ru</c><c>   2</c></rc>
    <rc><c>Ru</c><c>   2</c></rc>
    <rc><c>Ru</c><c>   2</c></rc>
    <rc><c>Ru</c><c>   2</c></rc>
    <rc><c>Ru</c><c>   2</c></rc>
    <rc><c>Ru</c><c>   2</c></rc>
    <rc><c>Ru</c><c>   2</c></rc>
    <rc><c>Ru</c><c>   2</c></rc>
    <rc><c>Ru</c><c>   2</c></rc>
    <rc><c>Ru</c><c>   2</c></rc>
    <rc><c>Ru</c><c>   2</c></rc>
    <rc><c>Ru</c><c>   2</c></rc>
    <rc><c>Ru</c><c>   2</c></rc>
    <rc><c>Ru</c><c>   2</c></rc>
    <rc><c>Ru</c><c>   2</c></rc>
    <rc><c>Ru</c><c>   2</c></rc>
    <rc><c>Ru</c><c>   2</c></rc>
    <rc><c>Ru</c><c>   2</c></rc>
    <rc><c>Ru</c><c>   2</c></rc>
    <rc><c>Ru</c><c>   2</c></rc>
    <rc><c>Ru</c><c>   2</c></rc>
    <rc><c>Ru</c><c>   2</c></rc>
    <rc><c>Ru</c><c>   2</c></rc>
    <rc><c>Ru</c><c>   2</c></rc>
    <rc><c>Ru</c><c>   2</c></rc>
    <rc><c>Ru</c><c>   2</c></rc>
    <rc><c>Ru</c><c>   2</c></rc>
    <rc><c>Ru</c><c>   2</c></rc>
    <rc><c>Ru</c><c>   2</c></rc>
    <rc><c>Ru</c><c>   2</c></rc>
    <rc><c>Ru</c><c>   2</c></rc>
    <rc><c>Ru</c><c>   2</c></rc>
    <rc><c>Ru</c><c>   2</c></rc>
    <rc><c>Ru</c><c>   2</c></rc>
    <rc><c>Ru</c><c>   2</c></rc>
    <rc><c>Ru</c><c>   2</c></rc>
    <rc><c>Ru</c><c>   2</c></rc>
    <rc><c>Ru</c><c>   2</c></rc>
    <rc><c>Ru</c><c>   2</c></rc>
    <rc><c>Ru</c><c>   2</c></rc>
    <rc><c>Ru</c><c>   2</c></rc>
    <rc><c>Ru</c><c>   2</c></rc>
    <rc><c>Ru</c><c>   2</c></rc>
    <rc><c>Ru</c><c>   2</c></rc>
    <rc><c>Ru</c><c>   2</c></rc>
    <rc><c>Ru</c><c>   2</c></rc>
    <rc><c>Ru</c><c>   2</c></rc>
    <rc><c>Ru</c><c>   2</c></rc>
    <rc><c>Ru</c><c>   2</c></rc>
    <rc><c>Ru</c><c>   2</c></rc>
    <rc><c>Ru</c><c>   2</c></rc>
    <rc><c>Ru</c><c>   2</c></rc>
    <rc><c>Ru</c><c>   2</c></rc>
    <rc><c>Ru</c><c>   2</c></rc>
    <rc><c>Ru</c><c>   2</c></rc>
    <rc><c>Ru</c><c>   2</c></rc>
    <rc><c>Ru</c><c>   2</c></rc>
    <rc><c>Ru</c><c>   2</c></rc>
    <rc><c>Ru</c><c>   2</c></rc>
    <rc><c>Ru</c><c>   2</c></rc>
    <rc><c>Ru</c><c>   2</c></rc>
    <rc><c>Ru</c><c>   2</c></rc>
    <rc><c>Ru</c><c>   2</c></rc>
    <rc><c>Ru</c><c>   2</c></rc>
    <rc><c>Ru</c><c>   2</c></rc>
    <rc><c>Ru</c><c>   2</c></rc>
    <rc><c>Ru</c><c>   2</c></rc>
    <rc><c>Ru</c><c>   2</c></rc>
    <rc><c>Ru</c><c>   2</c></rc>
    <rc><c>Ru</c><c>   2</c></rc>
    <rc><c>Ru</c><c>   2</c></rc>
   </set>
  </array>
  <array name="atomtypes" >
   <dimension dim="1">type</dimension>
   <field type="int">atomspertype</field>
   <field type="string">element</field>
   <field>mass</field>
   <field>valence</field>
   <field type="string">pseudopotential</field>
   <set>
    <rc><c> 128</c><c>Ir</c><c>    192.22000000</c><c>      9.00000000</c><c> PAW_PBE Ir 06Sep2000                   </c></rc>
    <rc><c> 128</c><c>Ru</c><c>    101.07000000</c><c>      8.00000000</c><c> PAW_PBE Ru 06Sep2000                   </c></rc>
   </set>
  </array>
 </atominfo>
 <structure name="initialpos" >
  <crystal>
   <varray name="basis" >
    <v>       5.48320000     -14.25407000       4.35211000 </v>
    <v>     -10.97158000      -9.50382000       8.70700000 </v>
    <v>     -10.97268000      -9.50770000      -8.71242000 </v>
   </varray>
   <i name="volume">   3632.42828475 </i>
   <varray name="rec_basis" >
    <v>       0.04558516      -0.05261718       0.00000884 </v>
    <v>      -0.04557998      -0.00000485       0.05741007 </v>
    <v>      -0.02278050      -0.02628868      -0.05739990 </v>
   </varray>
  </crystal>
  <varray name="positions" >
   <v>       0.24961500       0.25116000       0.87474750 </v>
   <v>       0.37462500       0.12471000       0.81183750 </v>
   <v>       0.06264000       0.31198500       0.84450000 </v>
   <v>       0.06345000       0.06286500       0.59341500 </v>
   <v>       0.43715000       0.43626500       0.65842500 </v>
   <v>       0.18774000       0.43608000       0.53137000 </v>
   <v>       0.43778500       0.19000000       0.40508750 </v>
   <v>       0.27102000       0.31327500       0.69738000 </v>
   <v>       0.39571500       0.18779500       0.63473250 </v>
   <v>       0.02156000       0.06211500       0.82305500 </v>
   <v>       0.08285000       0.37426000       0.66685000 </v>
   <v>       0.33244500       0.12499000       0.54249250 </v>
   <v>       0.27037500       0.06213000       0.44856250 </v>
   <v>       0.08317500       0.12555000       0.91594750 </v>
   <v>       0.45837000       0.49946000       0.47964000 </v>
   <v>       0.20886500       0.49992000       0.85301250 </v>
   <v>       0.24961500       0.75116000       0.87474750 </v>
   <v>       0.37462500       0.62471000       0.81183750 </v>
   <v>       0.06264000       0.81198500       0.84450000 </v>
   <v>       0.06345500       0.56286500       0.59341250 </v>
   <v>       0.43715000       0.93626500       0.65843000 </v>
   <v>       0.18774000       0.93608000       0.53136500 </v>
   <v>       0.43778500       0.69000000       0.40508750 </v>
   <v>       0.27102000       0.81327500       0.69738000 </v>
   <v>       0.39571500       0.68779500       0.63473250 </v>
   <v>       0.02156000       0.56211500       0.82305500 </v>
   <v>       0.08285000       0.87426000       0.66685000 </v>
   <v>       0.33244500       0.62499000       0.54249250 </v>
   <v>       0.27037500       0.56213000       0.44856250 </v>
   <v>       0.08317500       0.62555000       0.91594750 </v>
   <v>       0.45837000       0.99946000       0.47964000 </v>
   <v>       0.20886500       0.99992000       0.85301250 </v>
   <v>       0.24961500       0.25116000       0.37474750 </v>
   <v>       0.37462500       0.12471000       0.31183750 </v>
   <v>       0.06264000       0.31198500       0.34450000 </v>
   <v>       0.06345500       0.06286500       0.09341250 </v>
   <v>       0.43715000       0.43626500       0.15842500 </v>
   <v>       0.18774000       0.43608000       0.03137000 </v>
   <v>       0.43778500       0.19000000       0.90508750 </v>
   <v>       0.27102000       0.31327500       0.19738000 </v>
   <v>       0.39571500       0.18779500       0.13473250 </v>
   <v>       0.02156000       0.06211500       0.32305500 </v>
   <v>       0.08285000       0.37426000       0.16685000 </v>
   <v>       0.33244500       0.12499000       0.04249250 </v>
   <v>       0.27037500       0.06213000       0.94856250 </v>
   <v>       0.08317500       0.12555000       0.41594750 </v>
   <v>       0.45837000       0.49946000       0.97964000 </v>
   <v>       0.20886500       0.49992000       0.35301250 </v>
   <v>       0.74961500       0.25116000       0.62474750 </v>
   <v>       0.87462500       0.12471000       0.56183750 </v>
   <v>       0.56264000       0.31198500       0.59450000 </v>
   <v>       0.56345000       0.06286500       0.34341500 </v>
   <v>       0.93715000       0.43626500       0.40842500 </v>
   <v>       0.68774000       0.43608000       0.28137000 </v>
   <v>       0.93778500       0.19000000       0.15508750 </v>
   <v>       0.77102000       0.31327500       0.44738000 </v>
   <v>       0.89571500       0.18779500       0.38473250 </v>
   <v>       0.52156000       0.06211500       0.57305500 </v>
   <v>       0.58285000       0.37426000       0.41685000 </v>
   <v>       0.83244500       0.12499000       0.29249750 </v>
   <v>       0.77037500       0.06213000       0.19856250 </v>
   <v>       0.58317500       0.12555000       0.66594750 </v>
   <v>       0.95837000       0.49946000       0.22964000 </v>
   <v>       0.70886500       0.49992000       0.60301250 </v>
   <v>       0.24961500       0.75116000       0.37474750 </v>
   <v>       0.37462500       0.62471000       0.31183750 </v>
   <v>       0.06264000       0.81198500       0.34450000 </v>
   <v>       0.06345500       0.56286500       0.09341250 </v>
   <v>       0.43715000       0.93626500       0.15842500 </v>
   <v>       0.18774000       0.93608000       0.03137000 </v>
   <v>       0.43778500       0.69000000       0.90508750 </v>
   <v>       0.27102000       0.81327500       0.19738000 </v>
   <v>       0.39571500       0.68779500       0.13473250 </v>
   <v>       0.02156000       0.56211500       0.32305500 </v>
   <v>       0.08285000       0.87426000       0.16685000 </v>
   <v>       0.33244500       0.62499000       0.04249250 </v>
   <v>       0.27037500       0.56213000       0.94856250 </v>
   <v>       0.08317500       0.62555000       0.41594750 </v>
   <v>       0.45837000       0.99946000       0.97964000 </v>
   <v>       0.20886500       0.99992000       0.35301250 </v>
   <v>       0.74961500       0.75116000       0.62474750 </v>
   <v>       0.87462500       0.62471000       0.56183750 </v>
   <v>       0.56264000       0.81198500       0.59450000 </v>
   <v>       0.56345000       0.56286500       0.34341500 </v>
   <v>       0.93715000       0.93626500       0.40842500 </v>
   <v>       0.68774000       0.93608000       0.28136500 </v>
   <v>       0.93778500       0.69000000       0.15508750 </v>
   <v>       0.77102000       0.81327500       0.44738000 </v>
   <v>       0.89571500       0.68779500       0.38473250 </v>
   <v>       0.52156000       0.56211500       0.57305500 </v>
   <v>       0.58285000       0.87426000       0.41685000 </v>
   <v>       0.83244500       0.62499000       0.29249250 </v>
   <v>       0.77037500       0.56213000       0.19856250 </v>
   <v>       0.58317500       0.62555000       0.66594750 </v>
   <v>       0.95837000       0.99946000       0.22964000 </v>
   <v>       0.70886500       0.99992000       0.60301250 </v>
   <v>       0.74961500       0.25116000       0.12474750 </v>
   <v>       0.87462500       0.12471000       0.06183750 </v>
   <v>       0.56264000       0.31198500       0.09450000 </v>
   <v>       0.56345000       0.06286500       0.84341500 </v>
   <v>       0.93715000       0.43626500       0.90842500 </v>
   <v>       0.68774000       0.43608000       0.78137000 </v>
   <v>       0.93778500       0.19000000       0.65508750 </v>
   <v>       0.77102000       0.31327500       0.94738000 </v>
   <v>       0.89571500       0.18779500       0.88473250 </v>
   <v>       0.52156000       0.06211500       0.07305500 </v>
   <v>       0.58285000       0.37426000       0.91685000 </v>
   <v>       0.83244500       0.12499000       0.79249750 </v>
   <v>       0.77037500       0.06213000       0.69856250 </v>
   <v>       0.58317500       0.12555000       0.16594750 </v>
   <v>       0.95837000       0.49946000       0.72964000 </v>
   <v>       0.70886500       0.49992000       0.10301250 </v>
   <v>       0.74961500       0.75116000       0.12474750 </v>
   <v>       0.87462500       0.62471000       0.06183750 </v>
   <v>       0.56264000       0.81198500       0.09450000 </v>
   <v>       0.56345000       0.56286500       0.84341500 </v>
   <v>       0.93715000       0.93626500       0.90843000 </v>
   <v>       0.68774000       0.93608000       0.78137000 </v>
   <v>       0.93778500       0.69000000       0.65508750 </v>
   <v>       0.77102000       0.81327500       0.94738000 </v>
   <v>       0.89571500       0.68779500       0.88473250 </v>
   <v>       0.52156000       0.56211500       0.07305500 </v>
   <v>       0.58285000       0.87426000       0.91685000 </v>
   <v>       0.83244500       0.62499000       0.79249250 </v>
   <v>       0.77037500       0.56213000       0.69856250 </v>
   <v>       0.58317500       0.62555000       0.16594750 </v>
   <v>       0.95837000       0.99946000       0.72964000 </v>
   <v>       0.70886500       0.99992000       0.10301250 </v>
   <v>       0.12552000       0.37374500       0.43878000 </v>
   <v>       0.49955500       0.49856000       0.25097750 </v>
   <v>       0.18753000       0.18756000       0.77992000 </v>
   <v>       0.31234000       0.06179500       0.71926500 </v>
   <v>       0.12523500       0.12622500       0.68665250 </v>
   <v>       0.24965000       0.00016500       0.62632000 </v>
   <v>       0.37544000       0.37420500       0.56234500 </v>
   <v>       0.99989000       0.25085000       0.74831000 </v>
   <v>       0.31230000       0.31346000       0.46828500 </v>
   <v>       0.14612500       0.43832500       0.76050750 </v>
   <v>       0.20830000       0.24878000       0.60429000 </v>
   <v>       0.14574500       0.18778500       0.51141250 </v>
   <v>       0.39572500       0.43673000       0.38531750 </v>
   <v>       0.02141500       0.31227500       0.57284750 </v>
   <v>       0.33289000       0.37625500       0.79155500 </v>
   <v>       0.45828500       0.25070500       0.72884250 </v>
   <v>       0.12552000       0.87374500       0.43878000 </v>
   <v>       0.49955500       0.99856000       0.25097750 </v>
   <v>       0.18753000       0.68756000       0.77992000 </v>
   <v>       0.31234000       0.56179500       0.71926500 </v>
   <v>       0.12523500       0.62622500       0.68665250 </v>
   <v>       0.24965000       0.50016500       0.62632000 </v>
   <v>       0.37544000       0.87420500       0.56234500 </v>
   <v>       0.99989000       0.75085000       0.74831000 </v>
   <v>       0.31230000       0.81346000       0.46828500 </v>
   <v>       0.14612500       0.93832500       0.76050750 </v>
   <v>       0.20830000       0.74878000       0.60429000 </v>
   <v>       0.14574500       0.68778500       0.51141250 </v>
   <v>       0.39572500       0.93673000       0.38531750 </v>
   <v>       0.02141500       0.81227500       0.57284750 </v>
   <v>       0.33289000       0.87625500       0.79155500 </v>
   <v>       0.45828500       0.75070500       0.72884250 </v>
   <v>       0.12552000       0.37374500       0.93878000 </v>
   <v>       0.49955500       0.49856000       0.75097750 </v>
   <v>       0.18753000       0.18756000       0.27992000 </v>
   <v>       0.31234000       0.06179500       0.21926500 </v>
   <v>       0.12523500       0.12622500       0.18665250 </v>
   <v>       0.24965000       0.00016500       0.12632000 </v>
   <v>       0.37544000       0.37420500       0.06234500 </v>
   <v>       0.99989000       0.25085000       0.24831000 </v>
   <v>       0.31230000       0.31346000       0.96828500 </v>
   <v>       0.14612500       0.43832500       0.26050750 </v>
   <v>       0.20830000       0.24878000       0.10429000 </v>
   <v>       0.14574500       0.18778500       0.01141250 </v>
   <v>       0.39572500       0.43673000       0.88531750 </v>
   <v>       0.02141500       0.31227500       0.07284750 </v>
   <v>       0.33289000       0.37625500       0.29155500 </v>
   <v>       0.45828500       0.25070500       0.22884250 </v>
   <v>       0.62552000       0.37374500       0.18878000 </v>
   <v>       0.99955500       0.49856000       0.00097750 </v>
   <v>       0.68753000       0.18756000       0.52992000 </v>
   <v>       0.81234000       0.06179500       0.46926500 </v>
   <v>       0.62523500       0.12622500       0.43665250 </v>
   <v>       0.74965000       0.00016500       0.37632000 </v>
   <v>       0.87544000       0.37420500       0.31234500 </v>
   <v>       0.49989000       0.25085000       0.49831000 </v>
   <v>       0.81230000       0.31346000       0.21828500 </v>
   <v>       0.64612500       0.43832500       0.51050750 </v>
   <v>       0.70830000       0.24878000       0.35429000 </v>
   <v>       0.64574500       0.18778500       0.26141250 </v>
   <v>       0.89572500       0.43673000       0.13531750 </v>
   <v>       0.52141500       0.31227500       0.32284750 </v>
   <v>       0.83289000       0.37625500       0.54155500 </v>
   <v>       0.95828500       0.25070500       0.47884250 </v>
   <v>       0.12552000       0.87374500       0.93878000 </v>
   <v>       0.49955500       0.99856000       0.75097750 </v>
   <v>       0.18753000       0.68756000       0.27992000 </v>
   <v>       0.31234000       0.56179500       0.21926500 </v>
   <v>       0.12523500       0.62622500       0.18665250 </v>
   <v>       0.24965000       0.50016500       0.12632000 </v>
   <v>       0.37544000       0.87420500       0.06234500 </v>
   <v>       0.99989000       0.75085000       0.24831000 </v>
   <v>       0.31230000       0.81346000       0.96828500 </v>
   <v>       0.14612500       0.93832500       0.26050750 </v>
   <v>       0.20830000       0.74878000       0.10429000 </v>
   <v>       0.14574500       0.68778500       0.01141250 </v>
   <v>       0.39572500       0.93673000       0.88531750 </v>
   <v>       0.02141500       0.81227500       0.07284750 </v>
   <v>       0.33289000       0.87625500       0.29155500 </v>
   <v>       0.45828500       0.75070500       0.22884250 </v>
   <v>       0.62552000       0.87374500       0.18878000 </v>
   <v>       0.99955500       0.99856000       0.00097750 </v>
   <v>       0.68753000       0.68756000       0.52992000 </v>
   <v>       0.81234000       0.56179500       0.46926500 </v>
   <v>       0.62523500       0.62622500       0.43665250 </v>
   <v>       0.74965000       0.50016500       0.37632000 </v>
   <v>       0.87544000       0.87420500       0.31234500 </v>
   <v>       0.49989000       0.75085000       0.49831000 </v>
   <v>       0.81230000       0.81346000       0.21828500 </v>
   <v>       0.64612500       0.93832500       0.51050750 </v>
   <v>       0.70830000       0.74878000       0.35429000 </v>
   <v>       0.64574500       0.68778500       0.26141250 </v>
   <v>       0.89572500       0.93673000       0.13531750 </v>
   <v>       0.52141500       0.81227500       0.32284750 </v>
   <v>       0.83289000       0.87625500       0.54155500 </v>
   <v>       0.95828500       0.75070500       0.47884250 </v>
   <v>       0.62552000       0.37374500       0.68878000 </v>
   <v>       0.99955500       0.49856000       0.50097750 </v>
   <v>       0.68753000       0.18756000       0.02992000 </v>
   <v>       0.81234000       0.06179500       0.96926500 </v>
   <v>       0.62523500       0.12622500       0.93665250 </v>
   <v>       0.74965000       0.00016500       0.87632000 </v>
   <v>       0.87544000       0.37420500       0.81234500 </v>
   <v>       0.49989000       0.25085000       0.99831000 </v>
   <v>       0.81230000       0.31575500       0.71599000 </v>
   <v>       0.64612500       0.43832500       0.01050750 </v>
   <v>       0.70830000       0.24878000       0.85429000 </v>
   <v>       0.64574500       0.18778500       0.76141250 </v>
   <v>       0.89572500       0.43673000       0.63531750 </v>
   <v>       0.52141500       0.31227500       0.82284750 </v>
   <v>       0.83289000       0.37625500       0.04155500 </v>
   <v>       0.95828500       0.25070500       0.97884250 </v>
   <v>       0.62552000       0.87374500       0.68878000 </v>
   <v>       0.99955500       0.99856000       0.50097750 </v>
   <v>       0.68753000       0.68756000       0.02992000 </v>
   <v>       0.81234000       0.56179500       0.96926500 </v>
   <v>       0.62523500       0.62622500       0.93665250 </v>
   <v>       0.74965000       0.50016500       0.87632000 </v>
   <v>       0.87544000       0.87420500       0.81234500 </v>
   <v>       0.49989000       0.75085000       0.99831000 </v>
   <v>       0.81230000       0.81346000       0.71828500 </v>
   <v>       0.64612500       0.93832500       0.01050750 </v>
   <v>       0.70830000       0.74878000       0.85429000 </v>
   <v>       0.64574500       0.68778500       0.76141250 </v>
   <v>       0.89572500       0.93673000       0.63531750 </v>
   <v>       0.52141500       0.81227500       0.82284750 </v>
   <v>       0.83289000       0.87625500       0.04155500 </v>
   <v>       0.95828500       0.75070500       0.97884250 </v>
  </varray>
 </structure>
 <calculation>
  <scstep>
   <time name="diag">   66.00   66.12</time>
   <time name="diis">  158.89  159.10</time>
   <time name="orth">   21.59   21.61</time>
   <time name="total">  246.76  247.12</time>
   <energy>
    <i name="alphaZ">  17820.12086445 </i>
    <i name="ewald">-159082.77209929 </i>
    <i name="hartreedc"> -10367.04209417 </i>
    <i name="XCdc">  -6287.82349551 </i>
    <i name="pawpsdc"> 107387.23103886 </i>
    <i name="pawaedc"> -95870.62587529 </i>
    <i name="eentropy">      0.02441784 </i>
    <i name="bandstr">  30145.77779500 </i>
    <i name="atom"> 129934.13886476 </i>
    <i name="e_fr_energy">  13679.02941665 </i>
    <i name="e_wo_entrp">  13679.00499881 </i>
    <i name="e_0_energy">  13679.02127737 </i>
   </energy>
  </scstep>
  <scstep>
   <time name="diag">   65.68   65.77</time>
   <time name="diis">  158.64  158.84</time>
   <time name="orth">   21.61   21.64</time>
   <time name="total">  245.94  246.26</time>
   <energy>
    <i name="e_fr_energy">   1313.33623447 </i>
    <i name="e_wo_entrp">   1313.34559209 </i>
    <i name="e_0_energy">   1313.33935368 </i>
   </energy>
  </scstep>
  <scstep>
   <time name="diag">   65.64   65.73</time>
   <time name="diis">  159.05  159.26</time>
   <time name="orth">   21.61   21.63</time>
   <time name="total">  246.31  246.64</time>
   <energy>
    <i name="e_fr_energy">  -1045.69027140 </i>
    <i name="e_wo_entrp">  -1045.70551923 </i>
    <i name="e_0_energy">  -1045.69535401 </i>
   </energy>
  </scstep>
  <scstep>
   <time name="diag">   65.71   65.80</time>
   <time name="diis">  158.98  159.18</time>
   <time name="orth">   21.61   21.64</time>
   <time name="total">  246.31  246.63</time>
   <energy>
    <i name="e_fr_energy">  -1846.00334687 </i>
    <i name="e_wo_entrp">  -1845.99263486 </i>
    <i name="e_0_energy">  -1845.99977620 </i>
   </energy>
  </scstep>
  <scstep>
   <time name="diag">   65.69   65.78</time>
   <time name="diis">  158.74  158.95</time>
   <time name="orth">   21.61   21.63</time>
   <time name="total">  246.05  246.38</time>
   <energy>
    <i name="e_fr_energy">  -2129.11399696 </i>
    <i name="e_wo_entrp">  -2129.11567116 </i>
    <i name="e_0_energy">  -2129.11455503 </i>
   </energy>
  </scstep>
  <scstep>
   <time name="diag">   65.74   65.82</time>
   <time name="diis">  158.66  158.88</time>
   <time name="orth">   21.61   21.64</time>
   <time name="total">  246.02  246.35</time>
   <energy>
    <i name="e_fr_energy">  -2274.83130538 </i>
    <i name="e_wo_entrp">  -2274.83561783 </i>
    <i name="e_0_energy">  -2274.83274286 </i>
   </energy>
  </scstep>
  <scstep>
   <time name="diag">   65.66   65.75</time>
   <time name="diis">  158.91  159.12</time>
   <time name="orth">   21.61   21.64</time>
   <time name="total">  246.19  246.51</time>
   <energy>
    <i name="e_fr_energy">  -2352.69300963 </i>
    <i name="e_wo_entrp">  -2352.69903236 </i>
    <i name="e_0_energy">  -2352.69501721 </i>
   </energy>
  </scstep>
  <scstep>
   <time name="diag">   65.76   65.85</time>
   <time name="diis">  158.76  158.97</time>
   <time name="orth">   21.59   21.62</time>
   <time name="total">  246.13  246.45</time>
   <energy>
    <i name="e_fr_energy">  -2400.19012354 </i>
    <i name="e_wo_entrp">  -2400.19499646 </i>
    <i name="e_0_energy">  -2400.19174785 </i>
   </energy>
  </scstep>
  <scstep>
   <time name="diag">   65.70   65.79</time>
   <time name="diis">  436.71  437.30</time>
   <time name="orth">   21.61   21.63</time>
   <time name="total">  524.03  524.73</time>
   <energy>
    <i name="e_fr_energy">  -2479.08268494 </i>
    <i name="e_wo_entrp">  -2479.07606209 </i>
    <i name="e_0_energy">  -2479.08047732 </i>
   </energy>
  </scstep>
  <scstep>
   <time name="diag">   65.72   65.80</time>
   <time name="diis">  482.07  482.71</time>
   <time name="orth">   21.63   21.66</time>
   <time name="total">  569.43  570.19</time>
   <energy>
    <i name="e_fr_energy">  -2488.63938477 </i>
    <i name="e_wo_entrp">  -2488.62553188 </i>
    <i name="e_0_energy">  -2488.63476714 </i>
   </energy>
  </scstep>
  <scstep>
   <time name="diag">   65.68   65.76</time>
   <time name="diis">  467.36  467.98</time>
   <time name="orth">   21.61   21.63</time>
   <time name="total">  554.65  555.39</time>
   <energy>
    <i name="e_fr_energy">  -2490.87770768 </i>
    <i name="e_wo_entrp">  -2490.86525708 </i>
    <i name="e_0_energy">  -2490.87355748 </i>
   </energy>
  </scstep>
  <scstep>
   <time name="diag">   65.73   65.81</time>
   <time name="diis">  481.48  482.12</time>
   <time name="orth">   21.61   21.63</time>
   <time name="total">  587.17  587.96</time>
   <energy>
    <i name="e_fr_energy">  -2491.18514384 </i>
    <i name="e_wo_entrp">  -2491.17218214 </i>
    <i name="e_0_energy">  -2491.18082327 </i>
   </energy>
  </scstep>
  <scstep>
   <time name="diag">   65.68   65.76</time>
   <time name="diis">  348.86  349.31</time>
   <time name="orth">   21.61   21.64</time>
   <time name="total">  455.20  455.78</time>
   <energy>
    <i name="e_fr_energy">  -2413.68170693 </i>
    <i name="e_wo_entrp">  -2413.67503365 </i>
    <i name="e_0_energy">  -2413.67948251 </i>
   </energy>
  </scstep>
  <scstep>
   <time name="diag">   65.80   65.88</time>
   <time name="diis">  315.84  316.26</time>
   <time name="orth">   21.61   21.64</time>
   <time name="total">  421.99  422.54</time>
   <energy>
    <i name="e_fr_energy">  -2367.78272692 </i>
    <i name="e_wo_entrp">  -2367.78574364 </i>
    <i name="e_0_energy">  -2367.78373250 </i>
   </energy>
  </scstep>
  <scstep>
   <time name="diag">   65.67   65.75</time>
   <time name="diis">  326.64  327.06</time>
   <time name="orth">   21.61   21.63</time>
   <time name="total">  432.62  433.17</time>
   <energy>
    <i name="e_fr_energy">  -2335.65727937 </i>
    <i name="e_wo_entrp">  -2335.65343478 </i>
    <i name="e_0_energy">  -2335.65599784 </i>
   </energy>
  </scstep>
  <scstep>
   <time name="diag">   65.77   65.85</time>
   <time name="diis">  341.80  342.25</time>
   <time name="orth">   21.61   21.63</time>
   <time name="total">  447.91  448.50</time>
   <energy>
    <i name="e_fr_energy">  -2321.35983887 </i>
    <i name="e_wo_entrp">  -2321.35778211 </i>
    <i name="e_0_energy">  -2321.35915328 </i>
   </energy>
  </scstep>
  <scstep>
   <time name="diag">   65.89   65.98</time>
   <time name="diis">  448.08  448.67</time>
   <time name="orth">   21.61   21.63</time>
   <time name="total">  554.59  555.32</time>
   <energy>
    <i name="e_fr_energy">  -2321.58645764 </i>
    <i name="e_wo_entrp">  -2321.58782754 </i>
    <i name="e_0_energy">  -2321.58691428 </i>
   </energy>
  </scstep>
  <scstep>
   <time name="diag">   65.69   65.78</time>
   <time name="diis">  391.36  391.88</time>
   <time name="orth">   21.62   21.64</time>
   <time name="total">  497.23  497.89</time>
   <energy>
    <i name="e_fr_energy">  -2321.13897387 </i>
    <i name="e_wo_entrp">  -2321.13982920 </i>
    <i name="e_0_energy">  -2321.13925898 </i>
   </energy>
  </scstep>
  <scstep>
   <time name="diag">   65.62   65.70</time>
   <time name="diis">  362.55  363.02</time>
   <time name="orth">   21.61   21.64</time>
   <time name="total">  468.54  469.15</time>
   <energy>
    <i name="e_fr_energy">  -2320.75121809 </i>
    <i name="e_wo_entrp">  -2320.74889329 </i>
    <i name="e_0_energy">  -2320.75044315 </i>
   </energy>
  </scstep>
  <scstep>
   <time name="diag">   65.71   65.80</time>
   <time name="diis">  390.84  391.35</time>
   <time name="orth">   21.61   21.64</time>
   <time name="total">  496.75  497.40</time>
   <energy>
    <i name="e_fr_energy">  -2320.70162913 </i>
    <i name="e_wo_entrp">  -2320.70015167 </i>
    <i name="e_0_energy">  -2320.70113664 </i>
   </energy>
  </scstep>
  <scstep>
   <time name="diag">   65.87   65.95</time>
   <time name="diis">  377.88  378.38</time>
   <time name="orth">   21.61   21.64</time>
   <time name="total">  484.29  484.92</time>
   <energy>
    <i name="e_fr_energy">  -2320.65758153 </i>
    <i name="e_wo_entrp">  -2320.65735893 </i>
    <i name="e_0_energy">  -2320.65750733 </i>
   </energy>
  </scstep>
  <scstep>
   <time name="diag">   65.64   65.72</time>
   <time name="diis">  371.77  372.23</time>
   <time name="orth">   21.61   21.63</time>
   <time name="total">  477.62  478.20</time>
   <energy>
    <i name="e_fr_energy">  -2320.63371636 </i>
    <i name="e_wo_entrp">  -2320.63351480 </i>
    <i name="e_0_energy">  -2320.63364917 </i>
   </energy>
  </scstep>
  <scstep>
   <time name="diag">   65.64   65.72</time>
   <time name="diis">  410.20  410.70</time>
   <time name="orth">   21.60   21.63</time>
   <time name="total">  516.12  516.75</time>
   <energy>
    <i name="e_fr_energy">  -2320.62927493 </i>
    <i name="e_wo_entrp">  -2320.62902398 </i>
    <i name="e_0_energy">  -2320.62919128 </i>
   </energy>
  </scstep>
  <scstep>
   <time name="diag">   65.77   65.85</time>
   <time name="diis">  382.18  382.64</time>
   <time name="orth">   21.60   21.62</time>
   <time name="total">  488.24  488.83</time>
   <energy>
    <i name="e_fr_energy">  -2320.62622314 </i>
    <i name="e_wo_entrp">  -2320.62592345 </i>
    <i name="e_0_energy">  -2320.62612325 </i>
   </energy>
  </scstep>
  <scstep>
   <time name="diag">   65.99   66.07</time>
   <time name="diis">  402.34  402.85</time>
   <time name="orth">   21.58   21.60</time>
   <time name="total">  508.83  509.47</time>
   <energy>
    <i name="e_fr_energy">  -2320.62695779 </i>
    <i name="e_wo_entrp">  -2320.62661516 </i>
    <i name="e_0_energy">  -2320.62684358 </i>
   </energy>
  </scstep>
  <scstep>
   <time name="diag">   65.73   65.81</time>
   <time name="diis">  446.21  446.77</time>
   <time name="orth">   21.58   21.60</time>
   <time name="total">  552.26  553.04</time>
   <energy>
    <i name="e_fr_energy">  -2320.62717248 </i>
    <i name="e_wo_entrp">  -2320.62681360 </i>
    <i name="e_0_energy">  -2320.62705286 </i>
   </energy>
  </scstep>
  <scstep>
   <time name="diag">   65.54   65.63</time>
   <time name="diis">  368.59  369.05</time>
   <time name="orth">   21.58   21.60</time>
   <time name="total">  474.40  475.00</time>
   <energy>
    <i name="e_fr_energy">  -2320.62636607 </i>
    <i name="e_wo_entrp">  -2320.62602518 </i>
    <i name="e_0_energy">  -2320.62625244 </i>
   </energy>
  </scstep>
  <scstep>
   <time name="diag">   65.62   65.70</time>
   <time name="diis">  388.44  388.92</time>
   <time name="orth">   21.59   21.61</time>
   <time name="total">  494.20  494.82</time>
   <energy>
    <i name="e_fr_energy">  -2320.62585625 </i>
    <i name="e_wo_entrp">  -2320.62553844 </i>
    <i name="e_0_energy">  -2320.62575031 </i>
   </energy>
  </scstep>
  <scstep>
   <time name="diag">   65.94   66.02</time>
   <time name="diis">  417.13  417.66</time>
   <time name="orth">   21.59   21.62</time>
   <time name="total">  523.53  524.18</time>
   <energy>
    <i name="e_fr_energy">  -2320.62570745 </i>
    <i name="e_wo_entrp">  -2320.62540963 </i>
    <i name="e_0_energy">  -2320.62560817 </i>
   </energy>
  </scstep>
  <scstep>
   <time name="diag">   65.66   65.74</time>
   <time name="diis">  429.49  430.04</time>
   <time name="orth">   21.60   21.62</time>
   <time name="total">  517.01  517.65</time>
   <energy>
    <i name="alphaZ">  17820.12086445 </i>
    <i name="ewald">-159082.77209929 </i>
    <i name="hartreedc">  -7962.79747161 </i>
    <i name="XCdc">  -6307.34997021 </i>
    <i name="pawpsdc"> 121926.38245360 </i>
    <i name="pawaedc">-111100.15709278 </i>
    <i name="eentropy">     -0.00030578 </i>
    <i name="bandstr">  12451.80907095 </i>
    <i name="atom"> 129934.13886476 </i>
    <i name="e_fr_energy">  -2320.62568592 </i>
    <i name="e_wo_entrp">  -2320.62538014 </i>
    <i name="e_0_energy">  -2320.62558399 </i>
   </energy>
  </scstep>
  <structure>
   <crystal>
    <varray name="basis" >
     <v>       5.48320000     -14.25407000       4.35211000 </v>
     <v>     -10.97158000      -9.50382000       8.70700000 </v>
     <v>     -10.97268000      -9.50770000      -8.71242000 </v>
    </varray>
    <i name="volume">   3632.42828475 </i>
    <varray name="rec_basis" >
     <v>       0.04558516      -0.05261718       0.00000884 </v>
     <v>      -0.04557998      -0.00000485       0.05741007 </v>
     <v>      -0.02278050      -0.02628868      -0.05739990 </v>
    </varray>
   </crystal>
   <varray name="positions" >
    <v>       0.24961500       0.25116000       0.87474750 </v>
    <v>       0.37462500       0.12471000       0.81183750 </v>
    <v>       0.06264000       0.31198500       0.84450000 </v>
    <v>       0.06345000       0.06286500       0.59341500 </v>
    <v>       0.43715000       0.43626500       0.65842500 </v>
    <v>       0.18774000       0.43608000       0.53137000 </v>
    <v>       0.43778500       0.19000000       0.40508750 </v>
    <v>       0.27102000       0.31327500       0.69738000 </v>
    <v>       0.39571500       0.18779500       0.63473250 </v>
    <v>       0.02156000       0.06211500       0.82305500 </v>
    <v>       0.08285000       0.37426000       0.66685000 </v>
    <v>       0.33244500       0.12499000       0.54249250 </v>
    <v>       0.27037500       0.06213000       0.44856250 </v>
    <v>       0.08317500       0.12555000       0.91594750 </v>
    <v>       0.45837000       0.49946000       0.47964000 </v>
    <v>       0.20886500       0.49992000       0.85301250 </v>
    <v>       0.24961500       0.75116000       0.87474750 </v>
    <v>       0.37462500       0.62471000       0.81183750 </v>
    <v>       0.06264000       0.81198500       0.84450000 </v>
    <v>       0.06345500       0.56286500       0.59341250 </v>
    <v>       0.43715000       0.93626500       0.65843000 </v>
    <v>       0.18774000       0.93608000       0.53136500 </v>
    <v>       0.43778500       0.69000000       0.40508750 </v>
    <v>       0.27102000       0.81327500       0.69738000 </v>
    <v>       0.39571500       0.68779500       0.63473250 </v>
    <v>       0.02156000       0.56211500       0.82305500 </v>
    <v>       0.08285000       0.87426000       0.66685000 </v>
    <v>       0.33244500       0.62499000       0.54249250 </v>
    <v>       0.27037500       0.56213000       0.44856250 </v>
    <v>       0.08317500       0.62555000       0.91594750 </v>
    <v>       0.45837000       0.99946000       0.47964000 </v>
    <v>       0.20886500       0.99992000       0.85301250 </v>
    <v>       0.24961500       0.25116000       0.37474750 </v>
    <v>       0.37462500       0.12471000       0.31183750 </v>
    <v>       0.06264000       0.31198500       0.34450000 </v>
    <v>       0.06345500       0.06286500       0.09341250 </v>
    <v>       0.43715000       0.43626500       0.15842500 </v>
    <v>       0.18774000       0.43608000       0.03137000 </v>
    <v>       0.43778500       0.19000000       0.90508750 </v>
    <v>       0.27102000       0.31327500       0.19738000 </v>
    <v>       0.39571500       0.18779500       0.13473250 </v>
    <v>       0.02156000       0.06211500       0.32305500 </v>
    <v>       0.08285000       0.37426000       0.16685000 </v>
    <v>       0.33244500       0.12499000       0.04249250 </v>
    <v>       0.27037500       0.06213000       0.94856250 </v>
    <v>       0.08317500       0.12555000       0.41594750 </v>
    <v>       0.45837000       0.49946000       0.97964000 </v>
    <v>       0.20886500       0.49992000       0.35301250 </v>
    <v>       0.74961500       0.25116000       0.62474750 </v>
    <v>       0.87462500       0.12471000       0.56183750 </v>
    <v>       0.56264000       0.31198500       0.59450000 </v>
    <v>       0.56345000       0.06286500       0.34341500 </v>
    <v>       0.93715000       0.43626500       0.40842500 </v>
    <v>       0.68774000       0.43608000       0.28137000 </v>
    <v>       0.93778500       0.19000000       0.15508750 </v>
    <v>       0.77102000       0.31327500       0.44738000 </v>
    <v>       0.89571500       0.18779500       0.38473250 </v>
    <v>       0.52156000       0.06211500       0.57305500 </v>
    <v>       0.58285000       0.37426000       0.41685000 </v>
    <v>       0.83244500       0.12499000       0.29249750 </v>
    <v>       0.77037500       0.06213000       0.19856250 </v>
    <v>       0.58317500       0.12555000       0.66594750 </v>
    <v>       0.95837000       0.49946000       0.22964000 </v>
    <v>       0.70886500       0.49992000       0.60301250 </v>
    <v>       0.24961500       0.75116000       0.37474750 </v>
    <v>       0.37462500       0.62471000       0.31183750 </v>
    <v>       0.06264000       0.81198500       0.34450000 </v>
    <v>       0.06345500       0.56286500       0.09341250 </v>
    <v>       0.43715000       0.93626500       0.15842500 </v>
    <v>       0.18774000       0.93608000       0.03137000 </v>
    <v>       0.43778500       0.69000000       0.90508750 </v>
    <v>       0.27102000       0.81327500       0.19738000 </v>
    <v>       0.39571500       0.68779500       0.13473250 </v>
    <v>       0.02156000       0.56211500       0.32305500 </v>
    <v>       0.08285000       0.87426000       0.16685000 </v>
    <v>       0.33244500       0.62499000       0.04249250 </v>
    <v>       0.27037500       0.56213000       0.94856250 </v>
    <v>       0.08317500       0.62555000       0.41594750 </v>
    <v>       0.45837000       0.99946000       0.97964000 </v>
    <v>       0.20886500       0.99992000       0.35301250 </v>
    <v>       0.74961500       0.75116000       0.62474750 </v>
    <v>       0.87462500       0.62471000       0.56183750 </v>
    <v>       0.56264000       0.81198500       0.59450000 </v>
    <v>       0.56345000       0.56286500       0.34341500 </v>
    <v>       0.93715000       0.93626500       0.40842500 </v>
    <v>       0.68774000       0.93608000       0.28136500 </v>
    <v>       0.93778500       0.69000000       0.15508750 </v>
    <v>       0.77102000       0.81327500       0.44738000 </v>
    <v>       0.89571500       0.68779500       0.38473250 </v>
    <v>       0.52156000       0.56211500       0.57305500 </v>
    <v>       0.58285000       0.87426000       0.41685000 </v>
    <v>       0.83244500       0.62499000       0.29249250 </v>
    <v>       0.77037500       0.56213000       0.19856250 </v>
    <v>       0.58317500       0.62555000       0.66594750 </v>
    <v>       0.95837000       0.99946000       0.22964000 </v>
    <v>       0.70886500       0.99992000       0.60301250 </v>
    <v>       0.74961500       0.25116000       0.12474750 </v>
    <v>       0.87462500       0.12471000       0.06183750 </v>
    <v>       0.56264000       0.31198500       0.09450000 </v>
    <v>       0.56345000       0.06286500       0.84341500 </v>
    <v>       0.93715000       0.43626500       0.90842500 </v>
    <v>       0.68774000       0.43608000       0.78137000 </v>
    <v>       0.93778500       0.19000000       0.65508750 </v>
    <v>       0.77102000       0.31327500       0.94738000 </v>
    <v>       0.89571500       0.18779500       0.88473250 </v>
    <v>       0.52156000       0.06211500       0.07305500 </v>
    <v>       0.58285000       0.37426000       0.91685000 </v>
    <v>       0.83244500       0.12499000       0.79249750 </v>
    <v>       0.77037500       0.06213000       0.69856250 </v>
    <v>       0.58317500       0.12555000       0.16594750 </v>
    <v>       0.95837000       0.49946000       0.72964000 </v>
    <v>       0.70886500       0.49992000       0.10301250 </v>
    <v>       0.74961500       0.75116000       0.12474750 </v>
    <v>       0.87462500       0.62471000       0.06183750 </v>
    <v>       0.56264000       0.81198500       0.09450000 </v>
    <v>       0.56345000       0.56286500       0.84341500 </v>
    <v>       0.93715000       0.93626500       0.90843000 </v>
    <v>       0.68774000       0.93608000       0.78137000 </v>
    <v>       0.93778500       0.69000000       0.65508750 </v>
    <v>       0.77102000       0.81327500       0.94738000 </v>
    <v>       0.89571500       0.68779500       0.88473250 </v>
    <v>       0.52156000       0.56211500       0.07305500 </v>
    <v>       0.58285000       0.87426000       0.91685000 </v>
    <v>       0.83244500       0.62499000       0.79249250 </v>
    <v>       0.77037500       0.56213000       0.69856250 </v>
    <v>       0.58317500       0.62555000       0.16594750 </v>
    <v>       0.95837000       0.99946000       0.72964000 </v>
    <v>       0.70886500       0.99992000       0.10301250 </v>
    <v>       0.12552000       0.37374500       0.43878000 </v>
    <v>       0.49955500       0.49856000       0.25097750 </v>
    <v>       0.18753000       0.18756000       0.77992000 </v>
    <v>       0.31234000       0.06179500       0.71926500 </v>
    <v>       0.12523500       0.12622500       0.68665250 </v>
    <v>       0.24965000       0.00016500       0.62632000 </v>
    <v>       0.37544000       0.37420500       0.56234500 </v>
    <v>       0.99989000       0.25085000       0.74831000 </v>
    <v>       0.31230000       0.31346000       0.46828500 </v>
    <v>       0.14612500       0.43832500       0.76050750 </v>
    <v>       0.20830000       0.24878000       0.60429000 </v>
    <v>       0.14574500       0.18778500       0.51141250 </v>
    <v>       0.39572500       0.43673000       0.38531750 </v>
    <v>       0.02141500       0.31227500       0.57284750 </v>
    <v>       0.33289000       0.37625500       0.79155500 </v>
    <v>       0.45828500       0.25070500       0.72884250 </v>
    <v>       0.12552000       0.87374500       0.43878000 </v>
    <v>       0.49955500       0.99856000       0.25097750 </v>
    <v>       0.18753000       0.68756000       0.77992000 </v>
    <v>       0.31234000       0.56179500       0.71926500 </v>
    <v>       0.12523500       0.62622500       0.68665250 </v>
    <v>       0.24965000       0.50016500       0.62632000 </v>
    <v>       0.37544000       0.87420500       0.56234500 </v>
    <v>       0.99989000       0.75085000       0.74831000 </v>
    <v>       0.31230000       0.81346000       0.46828500 </v>
    <v>       0.14612500       0.93832500       0.76050750 </v>
    <v>       0.20830000       0.74878000       0.60429000 </v>
    <v>       0.14574500       0.68778500       0.51141250 </v>
    <v>       0.39572500       0.93673000       0.38531750 </v>
    <v>       0.02141500       0.81227500       0.57284750 </v>
    <v>       0.33289000       0.87625500       0.79155500 </v>
    <v>       0.45828500       0.75070500       0.72884250 </v>
    <v>       0.12552000       0.37374500       0.93878000 </v>
    <v>       0.49955500       0.49856000       0.75097750 </v>
    <v>       0.18753000       0.18756000       0.27992000 </v>
    <v>       0.31234000       0.06179500       0.21926500 </v>
    <v>       0.12523500       0.12622500       0.18665250 </v>
    <v>       0.24965000       0.00016500       0.12632000 </v>
    <v>       0.37544000       0.37420500       0.06234500 </v>
    <v>       0.99989000       0.25085000       0.24831000 </v>
    <v>       0.31230000       0.31346000       0.96828500 </v>
    <v>       0.14612500       0.43832500       0.26050750 </v>
    <v>       0.20830000       0.24878000       0.10429000 </v>
    <v>       0.14574500       0.18778500       0.01141250 </v>
    <v>       0.39572500       0.43673000       0.88531750 </v>
    <v>       0.02141500       0.31227500       0.07284750 </v>
    <v>       0.33289000       0.37625500       0.29155500 </v>
    <v>       0.45828500       0.25070500       0.22884250 </v>
    <v>       0.62552000       0.37374500       0.18878000 </v>
    <v>       0.99955500       0.49856000       0.00097750 </v>
    <v>       0.68753000       0.18756000       0.52992000 </v>
    <v>       0.81234000       0.06179500       0.46926500 </v>
    <v>       0.62523500       0.12622500       0.43665250 </v>
    <v>       0.74965000       0.00016500       0.37632000 </v>
    <v>       0.87544000       0.37420500       0.31234500 </v>
    <v>       0.49989000       0.25085000       0.49831000 </v>
    <v>       0.81230000       0.31346000       0.21828500 </v>
    <v>       0.64612500       0.43832500       0.51050750 </v>
    <v>       0.70830000       0.24878000       0.35429000 </v>
    <v>       0.64574500       0.18778500       0.26141250 </v>
    <v>       0.89572500       0.43673000       0.13531750 </v>
    <v>       0.52141500       0.31227500       0.32284750 </v>
    <v>       0.83289000       0.37625500       0.54155500 </v>
    <v>       0.95828500       0.25070500       0.47884250 </v>
    <v>       0.12552000       0.87374500       0.93878000 </v>
    <v>       0.49955500       0.99856000       0.75097750 </v>
    <v>       0.18753000       0.68756000       0.27992000 </v>
    <v>       0.31234000       0.56179500       0.21926500 </v>
    <v>       0.12523500       0.62622500       0.18665250 </v>
    <v>       0.24965000       0.50016500       0.12632000 </v>
    <v>       0.37544000       0.87420500       0.06234500 </v>
    <v>       0.99989000       0.75085000       0.24831000 </v>
    <v>       0.31230000       0.81346000       0.96828500 </v>
    <v>       0.14612500       0.93832500       0.26050750 </v>
    <v>       0.20830000       0.74878000       0.10429000 </v>
    <v>       0.14574500       0.68778500       0.01141250 </v>
    <v>       0.39572500       0.93673000       0.88531750 </v>
    <v>       0.02141500       0.81227500       0.07284750 </v>
    <v>       0.33289000       0.87625500       0.29155500 </v>
    <v>       0.45828500       0.75070500       0.22884250 </v>
    <v>       0.62552000       0.87374500       0.18878000 </v>
    <v>       0.99955500       0.99856000       0.00097750 </v>
    <v>       0.68753000       0.68756000       0.52992000 </v>
    <v>       0.81234000       0.56179500       0.46926500 </v>
    <v>       0.62523500       0.62622500       0.43665250 </v>
    <v>       0.74965000       0.50016500       0.37632000 </v>
    <v>       0.87544000       0.87420500       0.31234500 </v>
    <v>       0.49989000       0.75085000       0.49831000 </v>
    <v>       0.81230000       0.81346000       0.21828500 </v>
    <v>       0.64612500       0.93832500       0.51050750 </v>
    <v>       0.70830000       0.74878000       0.35429000 </v>
    <v>       0.64574500       0.68778500       0.26141250 </v>
    <v>       0.89572500       0.93673000       0.13531750 </v>
    <v>       0.52141500       0.81227500       0.32284750 </v>
    <v>       0.83289000       0.87625500       0.54155500 </v>
    <v>       0.95828500       0.75070500       0.47884250 </v>
    <v>       0.62552000       0.37374500       0.68878000 </v>
    <v>       0.99955500       0.49856000       0.50097750 </v>
    <v>       0.68753000       0.18756000       0.02992000 </v>
    <v>       0.81234000       0.06179500       0.96926500 </v>
    <v>       0.62523500       0.12622500       0.93665250 </v>
    <v>       0.74965000       0.00016500       0.87632000 </v>
    <v>       0.87544000       0.37420500       0.81234500 </v>
    <v>       0.49989000       0.25085000       0.99831000 </v>
    <v>       0.81230000       0.31575500       0.71599000 </v>
    <v>       0.64612500       0.43832500       0.01050750 </v>
    <v>       0.70830000       0.24878000       0.85429000 </v>
    <v>       0.64574500       0.18778500       0.76141250 </v>
    <v>       0.89572500       0.43673000       0.63531750 </v>
    <v>       0.52141500       0.31227500       0.82284750 </v>
    <v>       0.83289000       0.37625500       0.04155500 </v>
    <v>       0.95828500       0.25070500       0.97884250 </v>
    <v>       0.62552000       0.87374500       0.68878000 </v>
    <v>       0.99955500       0.99856000       0.50097750 </v>
    <v>       0.68753000       0.68756000       0.02992000 </v>
    <v>       0.81234000       0.56179500       0.96926500 </v>
    <v>       0.62523500       0.62622500       0.93665250 </v>
    <v>       0.74965000       0.50016500       0.87632000 </v>
    <v>       0.87544000       0.87420500       0.81234500 </v>
    <v>       0.49989000       0.75085000       0.99831000 </v>
    <v>       0.81230000       0.81346000       0.71828500 </v>
    <v>       0.64612500       0.93832500       0.01050750 </v>
    <v>       0.70830000       0.74878000       0.85429000 </v>
    <v>       0.64574500       0.68778500       0.76141250 </v>
    <v>       0.89572500       0.93673000       0.63531750 </v>
    <v>       0.52141500       0.81227500       0.82284750 </v>
    <v>       0.83289000       0.87625500       0.04155500 </v>
    <v>       0.95828500       0.75070500       0.97884250 </v>
   </varray>
  </structure>
  <varray name="forces" >
   <v>      -0.00110291       0.01092157       0.01251217 </v>
   <v>      -0.00805442       0.00054983      -0.00048338 </v>
   <v>      -0.00177369       0.01884447       0.00164112 </v>
   <v>       0.01186358       0.00794566      -0.00114063 </v>
   <v>      -0.00156334       0.01605833      -0.00509959 </v>
   <v>      -0.00898593       0.00172186      -0.00387838 </v>
   <v>      -0.00020227       0.00347479       0.00399393 </v>
   <v>      -0.00094191      -0.01408660      -0.00228385 </v>
   <v>      -0.00371597      -0.01101250      -0.00047644 </v>
   <v>      -0.02857524       0.00295363       0.00137595 </v>
   <v>       0.00911245      -0.01030765       0.00097705 </v>
   <v>      -0.00922323      -0.00637017      -0.00286295 </v>
   <v>       0.00375783      -0.00714686       0.00328428 </v>
   <v>       0.00591677      -0.01581427      -0.00091271 </v>
   <v>      -0.00226337      -0.00026219       0.00162257 </v>
   <v>       0.01367198      -0.01116581       0.00327514 </v>
   <v>      -0.00152821       0.01133823       0.01210414 </v>
   <v>      -0.00844741       0.00122109      -0.00025278 </v>
   <v>      -0.00099969       0.01901337       0.00013009 </v>
   <v>       0.01143289       0.01223554      -0.00316302 </v>
   <v>      -0.00129835       0.01703629      -0.00533066 </v>
   <v>      -0.00926939      -0.00015581      -0.00355811 </v>
   <v>       0.00011888       0.00312092       0.00341224 </v>
   <v>       0.00101254      -0.01590739      -0.00221814 </v>
   <v>      -0.00393297      -0.01126301      -0.00150210 </v>
   <v>      -0.01060086      -0.00389042      -0.00131597 </v>
   <v>       0.01240709      -0.00685679       0.00110416 </v>
   <v>      -0.00884041      -0.00747271      -0.00379363 </v>
   <v>       0.00508701      -0.00874429       0.00430205 </v>
   <v>       0.00237174      -0.02029896       0.00035651 </v>
   <v>      -0.00447021       0.00011337       0.00214654 </v>
   <v>       0.01368042      -0.01152960       0.00225310 </v>
   <v>      -0.00008273       0.01071385       0.01163484 </v>
   <v>      -0.00942921       0.00175792       0.00079726 </v>
   <v>      -0.00191968       0.01880862      -0.00064847 </v>
   <v>       0.01143181       0.00611508      -0.00332695 </v>
   <v>      -0.00125093       0.01521982      -0.00640968 </v>
   <v>      -0.00909653       0.00102634      -0.00263142 </v>
   <v>      -0.00050977       0.00337816       0.00337104 </v>
   <v>      -0.00011411      -0.01543245      -0.00254554 </v>
   <v>      -0.00237514      -0.01202029      -0.00124774 </v>
   <v>      -0.01109648      -0.00473268      -0.00111284 </v>
   <v>       0.01118659      -0.00614056       0.00135154 </v>
   <v>      -0.00977527      -0.00571831      -0.00286829 </v>
   <v>       0.00565153      -0.00899169       0.00456547 </v>
   <v>       0.00307082      -0.01984407      -0.00042061 </v>
   <v>      -0.00535885       0.00150844       0.00159729 </v>
   <v>       0.01306105      -0.01164128       0.00367774 </v>
   <v>      -0.00091889       0.00672651       0.01322033 </v>
   <v>      -0.00906084       0.00097168       0.00050948 </v>
   <v>      -0.00067586       0.01878368       0.00062437 </v>
   <v>       0.01215685       0.00760672      -0.00192743 </v>
   <v>       0.00366964       0.01825476       0.00072879 </v>
   <v>      -0.00942760       0.00008655      -0.00343177 </v>
   <v>      -0.00018046       0.00258690       0.00312800 </v>
   <v>       0.00525861      -0.01694013      -0.00216170 </v>
   <v>      -0.00395768      -0.01140480      -0.00182531 </v>
   <v>      -0.01067382      -0.00368056      -0.00161987 </v>
   <v>       0.01079796      -0.00693460      -0.00011819 </v>
   <v>      -0.00942073      -0.00592110      -0.00177815 </v>
   <v>       0.00888713      -0.00538102       0.00981180 </v>
   <v>       0.00527680      -0.01906014      -0.00045942 </v>
   <v>      -0.00563209       0.00048643      -0.00291315 </v>
   <v>      -0.05934215       0.02963955       0.09404880 </v>
   <v>      -0.00047431       0.01137002       0.01270221 </v>
   <v>      -0.00900766       0.00221208      -0.00000682 </v>
   <v>      -0.00136565       0.01932199      -0.00094785 </v>
   <v>       0.01148008       0.00796065      -0.00316565 </v>
   <v>      -0.00189457       0.01593912      -0.00461739 </v>
   <v>      -0.00887883       0.00021830      -0.00356215 </v>
   <v>      -0.00032369       0.00351675       0.00452955 </v>
   <v>      -0.00004210      -0.01582882      -0.00141724 </v>
   <v>      -0.00285189      -0.01097358      -0.00107133 </v>
   <v>      -0.00851899      -0.00699834       0.00520141 </v>
   <v>       0.01067768      -0.00910645      -0.00499599 </v>
   <v>      -0.00926562      -0.00587680      -0.00382962 </v>
   <v>       0.00426883      -0.00815817       0.00461359 </v>
   <v>       0.00313318      -0.01769430      -0.00604264 </v>
   <v>      -0.00484366       0.00192532       0.00230790 </v>
   <v>       0.01488928      -0.01208739       0.00308666 </v>
   <v>      -0.00027313       0.01173369       0.01273018 </v>
   <v>      -0.00688751      -0.00401537       0.00506457 </v>
   <v>      -0.00047145       0.01853422      -0.00056012 </v>
   <v>       0.01134136       0.00619968      -0.00291696 </v>
[...]
       <r>    11.0126    -0.4687  2637.1144 </r>
       <r>    11.0646    -0.0580  2637.1114 </r>
       <r>    11.1165    -0.0049  2637.1111 </r>
       <r>    11.1684    -0.0003  2637.1111 </r>
       <r>    11.2203    -0.0000  2637.1111 </r>
       <r>    11.2722    -0.0000  2637.1111 </r>
       <r>    11.3241    -0.0000  2637.1111 </r>
       <r>    11.3761    -0.0000  2637.1111 </r>
       <r>    11.4280    -0.0000  2637.1111 </r>
       <r>    11.4799    -0.0000  2637.1111 </r>
       <r>    11.5318    -0.0000  2637.1111 </r>
       <r>    11.5837    -0.0000  2637.1111 </r>
       <r>    11.6356    -0.0002  2637.1111 </r>
       <r>    11.6876    -0.0028  2637.1110 </r>
       <r>    11.7395    -0.0190  2637.1100 </r>
       <r>    11.7914    -0.0573  2637.1070 </r>
       <r>    11.8433    -0.0144  2637.1062 </r>
       <r>    11.8952     0.3687  2637.1254 </r>
       <r>    11.9471     1.1495  2637.1851 </r>
       <r>    11.9991     1.9541  2637.2865 </r>
       <r>    12.0510     2.1787  2637.3996 </r>
       <r>    12.1029     1.6494  2637.4853 </r>
       <r>    12.1548     0.9660  2637.5354 </r>
       <r>    12.2067     0.8050  2637.5772 </r>
       <r>    12.2586     1.4388  2637.6519 </r>
       <r>    12.3106     2.4086  2637.7770 </r>
       <r>    12.3625     3.1974  2637.9429 </r>
       <r>    12.4144     3.4160  2638.1203 </r>
       <r>    12.4663     2.8159  2638.2665 </r>
       <r>    12.5182     2.1639  2638.3788 </r>
       <r>    12.5701     2.3640  2638.5016 </r>
       <r>    12.6221     3.0701  2638.6610 </r>
       <r>    12.6740     3.5469  2638.8451 </r>
       <r>    12.7259     3.4959  2639.0266 </r>
       <r>    12.7778     2.9239  2639.1784 </r>
       <r>    12.8297     2.3865  2639.3023 </r>
       <r>    12.8816     2.4731  2639.4307 </r>
       <r>    12.9336     2.5364  2639.5624 </r>
       <r>    12.9855     1.8414  2639.6580 </r>
       <r>    13.0374     1.1276  2639.7165 </r>
       <r>    13.0893     0.7973  2639.7579 </r>
       <r>    13.1412     0.6536  2639.7918 </r>
       <r>    13.1931     0.8819  2639.8376 </r>
       <r>    13.2451     1.2048  2639.9002 </r>
       <r>    13.2970     1.1636  2639.9606 </r>
       <r>    13.3489     0.6890  2639.9964 </r>
       <r>    13.4008     0.1574  2640.0045 </r>
       <r>    13.4527    -0.0455  2640.0022 </r>
       <r>    13.5047    -0.0336  2640.0004 </r>
       <r>    13.5566    -0.0074  2640.0000 </r>
       <r>    13.6085    -0.0008  2640.0000 </r>
       <r>    13.6604    -0.0000  2640.0000 </r>
       <r>    13.7123    -0.0000  2640.0000 </r>
       <r>    13.7642    -0.0000  2640.0000 </r>
       <r>    13.8162    -0.0000  2640.0000 </r>
       <r>    13.8681    -0.0000  2640.0000 </r>
       <r>    13.9200    -0.0000  2640.0000 </r>
       <r>    13.9719     0.0000  2640.0000 </r>
       <r>    14.0238     0.0000  2640.0000 </r>
       <r>    14.0757     0.0000  2640.0000 </r>
       <r>    14.1277     0.0000  2640.0000 </r>
       <r>    14.1796     0.0000  2640.0000 </r>
       <r>    14.2315     0.0000  2640.0000 </r>
       <r>    14.2834     0.0000  2640.0000 </r>
      </set>
     </set>
    </array>
   </total>
  </dos>
 </calculation>
 <structure name="finalpos" >
  <crystal>
   <varray name="basis" >
    <v>       5.48320000     -14.25407000       4.35211000 </v>
    <v>     -10.97158000      -9.50382000       8.70700000 </v>
    <v>     -10.97268000      -9.50770000      -8.71242000 </v>
   </varray>
   <i name="volume">   3632.42828475 </i>
   <varray name="rec_basis" >
    <v>       0.04558516      -0.05261718       0.00000884 </v>
    <v>      -0.04557998      -0.00000485       0.05741007 </v>
    <v>      -0.02278050      -0.02628868      -0.05739990 </v>
   </varray>
  </crystal>
  <varray name="positions" >
   <v>       0.24961500       0.25116000       0.87474750 </v>
   <v>       0.37462500       0.12471000       0.81183750 </v>
   <v>       0.06264000       0.31198500       0.84450000 </v>
   <v>       0.06345000       0.06286500       0.59341500 </v>
   <v>       0.43715000       0.43626500       0.65842500 </v>
   <v>       0.18774000       0.43608000       0.53137000 </v>
   <v>       0.43778500       0.19000000       0.40508750 </v>
   <v>       0.27102000       0.31327500       0.69738000 </v>
   <v>       0.39571500       0.18779500       0.63473250 </v>
   <v>       0.02156000       0.06211500       0.82305500 </v>
   <v>       0.08285000       0.37426000       0.66685000 </v>
   <v>       0.33244500       0.12499000       0.54249250 </v>
   <v>       0.27037500       0.06213000       0.44856250 </v>
   <v>       0.08317500       0.12555000       0.91594750 </v>
   <v>       0.45837000       0.49946000       0.47964000 </v>
   <v>       0.20886500       0.49992000       0.85301250 </v>
   <v>       0.24961500       0.75116000       0.87474750 </v>
   <v>       0.37462500       0.62471000       0.81183750 </v>
   <v>       0.06264000       0.81198500       0.84450000 </v>
   <v>       0.06345500       0.56286500       0.59341250 </v>
   <v>       0.43715000       0.93626500       0.65843000 </v>
   <v>       0.18774000       0.93608000       0.53136500 </v>
   <v>       0.43778500       0.69000000       0.40508750 </v>
   <v>       0.27102000       0.81327500       0.69738000 </v>
   <v>       0.39571500       0.68779500       0.63473250 </v>
   <v>       0.02156000       0.56211500       0.82305500 </v>
   <v>       0.08285000       0.87426000       0.66685000 </v>
   <v>       0.33244500       0.62499000       0.54249250 </v>
   <v>       0.27037500       0.56213000       0.44856250 </v>
   <v>       0.08317500       0.62555000       0.91594750 </v>
   <v>       0.45837000       0.99946000       0.47964000 </v>
   <v>       0.20886500       0.99992000       0.85301250 </v>
   <v>       0.24961500       0.25116000       0.37474750 </v>
   <v>       0.37462500       0.12471000       0.31183750 </v>
   <v>       0.06264000       0.31198500       0.34450000 </v>
   <v>       0.06345500       0.06286500       0.09341250 </v>
   <v>       0.43715000       0.43626500       0.15842500 </v>
   <v>       0.18774000       0.43608000       0.03137000 </v>
   <v>       0.43778500       0.19000000       0.90508750 </v>
   <v>       0.27102000       0.31327500       0.19738000 </v>
   <v>       0.39571500       0.18779500       0.13473250 </v>
   <v>       0.02156000       0.06211500       0.32305500 </v>
   <v>       0.08285000       0.37426000       0.16685000 </v>
   <v>       0.33244500       0.12499000       0.04249250 </v>
   <v>       0.27037500       0.06213000       0.94856250 </v>
   <v>       0.08317500       0.12555000       0.41594750 </v>
   <v>       0.45837000       0.49946000       0.97964000 </v>
   <v>       0.20886500       0.49992000       0.35301250 </v>
   <v>       0.74961500       0.25116000       0.62474750 </v>
   <v>       0.87462500       0.12471000       0.56183750 </v>
   <v>       0.56264000       0.31198500       0.59450000 </v>
   <v>       0.56345000       0.06286500       0.34341500 </v>
   <v>       0.93715000       0.43626500       0.40842500 </v>
   <v>       0.68774000       0.43608000       0.28137000 </v>
   <v>       0.93778500       0.19000000       0.15508750 </v>
   <v>       0.77102000       0.31327500       0.44738000 </v>
   <v>       0.89571500       0.18779500       0.38473250 </v>
   <v>       0.52156000       0.06211500       0.57305500 </v>
   <v>       0.58285000       0.37426000       0.41685000 </v>
   <v>       0.83244500       0.12499000       0.29249750 </v>
   <v>       0.77037500       0.06213000       0.19856250 </v>
   <v>       0.58317500       0.12555000       0.66594750 </v>
   <v>       0.95837000       0.49946000       0.22964000 </v>
   <v>       0.70886500       0.49992000       0.60301250 </v>
   <v>       0.24961500       0.75116000       0.37474750 </v>
   <v>       0.37462500       0.62471000       0.31183750 </v>
   <v>       0.06264000       0.81198500       0.34450000 </v>
   <v>       0.06345500       0.56286500       0.09341250 </v>
   <v>       0.43715000       0.93626500       0.15842500 </v>
   <v>       0.18774000       0.93608000       0.03137000 </v>
   <v>       0.43778500       0.69000000       0.90508750 </v>
   <v>       0.27102000       0.81327500       0.19738000 </v>
   <v>       0.39571500       0.68779500       0.13473250 </v>
   <v>       0.02156000       0.56211500       0.32305500 </v>
   <v>       0.08285000       0.87426000       0.16685000 </v>
   <v>       0.33244500       0.62499000       0.04249250 </v>
   <v>       0.27037500       0.56213000       0.94856250 </v>
   <v>       0.08317500       0.62555000       0.41594750 </v>
   <v>       0.45837000       0.99946000       0.97964000 </v>
   <v>       0.20886500       0.99992000       0.35301250 </v>
   <v>       0.74961500       0.75116000       0.62474750 </v>
   <v>       0.87462500       0.62471000       0.56183750 </v>
   <v>       0.56264000       0.81198500       0.59450000 </v>
   <v>       0.56345000       0.56286500       0.34341500 </v>
   <v>       0.93715000       0.93626500       0.40842500 </v>
   <v>       0.68774000       0.93608000       0.28136500 </v>
   <v>       0.93778500       0.69000000       0.15508750 </v>
   <v>       0.77102000       0.81327500       0.44738000 </v>
   <v>       0.89571500       0.68779500       0.38473250 </v>
   <v>       0.52156000       0.56211500       0.57305500 </v>
   <v>       0.58285000       0.87426000       0.41685000 </v>
   <v>       0.83244500       0.62499000       0.29249250 </v>
   <v>       0.77037500       0.56213000       0.19856250 </v>
   <v>       0.58317500       0.62555000       0.66594750 </v>
   <v>       0.95837000       0.99946000       0.22964000 </v>
   <v>       0.70886500       0.99992000       0.60301250 </v>
   <v>       0.74961500       0.25116000       0.12474750 </v>
   <v>       0.87462500       0.12471000       0.06183750 </v>
   <v>       0.56264000       0.31198500       0.09450000 </v>
   <v>       0.56345000       0.06286500       0.84341500 </v>
   <v>       0.93715000       0.43626500       0.90842500 </v>
   <v>       0.68774000       0.43608000       0.78137000 </v>
   <v>       0.93778500       0.19000000       0.65508750 </v>
   <v>       0.77102000       0.31327500       0.94738000 </v>
   <v>       0.89571500       0.18779500       0.88473250 </v>
   <v>       0.52156000       0.06211500       0.07305500 </v>
   <v>       0.58285000       0.37426000       0.91685000 </v>
   <v>       0.83244500       0.12499000       0.79249750 </v>
   <v>       0.77037500       0.06213000       0.69856250 </v>
   <v>       0.58317500       0.12555000       0.16594750 </v>
   <v>       0.95837000       0.49946000       0.72964000 </v>
   <v>       0.70886500       0.49992000       0.10301250 </v>
   <v>       0.74961500       0.75116000       0.12474750 </v>
   <v>       0.87462500       0.62471000       0.06183750 </v>
   <v>       0.56264000       0.81198500       0.09450000 </v>
   <v>       0.56345000       0.56286500       0.84341500 </v>
   <v>       0.93715000       0.93626500       0.90843000 </v>
   <v>       0.68774000       0.93608000       0.78137000 </v>
   <v>       0.93778500       0.69000000       0.65508750 </v>
   <v>       0.77102000       0.81327500       0.94738000 </v>
   <v>       0.89571500       0.68779500       0.88473250 </v>
   <v>       0.52156000       0.56211500       0.07305500 </v>
   <v>       0.58285000       0.87426000       0.91685000 </v>
   <v>       0.83244500       0.62499000       0.79249250 </v>
   <v>       0.77037500       0.56213000       0.69856250 </v>
   <v>       0.58317500       0.62555000       0.16594750 </v>
   <v>       0.95837000       0.99946000       0.72964000 </v>
   <v>       0.70886500       0.99992000       0.10301250 </v>
   <v>       0.12552000       0.37374500       0.43878000 </v>
   <v>       0.49955500       0.49856000       0.25097750 </v>
   <v>       0.18753000       0.18756000       0.77992000 </v>
   <v>       0.31234000       0.06179500       0.71926500 </v>
   <v>       0.12523500       0.12622500       0.68665250 </v>
   <v>       0.24965000       0.00016500       0.62632000 </v>
   <v>       0.37544000       0.37420500       0.56234500 </v>
   <v>       0.99989000       0.25085000       0.74831000 </v>
   <v>       0.31230000       0.31346000       0.46828500 </v>
   <v>       0.14612500       0.43832500       0.76050750 </v>
   <v>       0.20830000       0.24878000       0.60429000 </v>
   <v>       0.14574500       0.18778500       0.51141250 </v>
   <v>       0.39572500       0.43673000       0.38531750 </v>
   <v>       0.02141500       0.31227500       0.57284750 </v>
   <v>       0.33289000       0.37625500       0.79155500 </v>
   <v>       0.45828500       0.25070500       0.72884250 </v>
   <v>       0.12552000       0.87374500       0.43878000 </v>
   <v>       0.49955500       0.99856000       0.25097750 </v>
   <v>       0.18753000       0.68756000       0.77992000 </v>
   <v>       0.31234000       0.56179500       0.71926500 </v>
   <v>       0.12523500       0.62622500       0.68665250 </v>
   <v>       0.24965000       0.50016500       0.62632000 </v>
   <v>       0.37544000       0.87420500       0.56234500 </v>
   <v>       0.99989000       0.75085000       0.74831000 </v>
   <v>       0.31230000       0.81346000       0.46828500 </v>
   <v>       0.14612500       0.93832500       0.76050750 </v>
   <v>       0.20830000       0.74878000       0.60429000 </v>
   <v>       0.14574500       0.68778500       0.51141250 </v>
   <v>       0.39572500       0.93673000       0.38531750 </v>
   <v>       0.02141500       0.81227500       0.57284750 </v>
   <v>       0.33289000       0.87625500       0.79155500 </v>
   <v>       0.45828500       0.75070500       0.72884250 </v>
   <v>       0.12552000       0.37374500       0.93878000 </v>
   <v>       0.49955500       0.49856000       0.75097750 </v>
   <v>       0.18753000       0.18756000       0.27992000 </v>
   <v>       0.31234000       0.06179500       0.21926500 </v>
   <v>       0.12523500       0.12622500       0.18665250 </v>
   <v>       0.24965000       0.00016500       0.12632000 </v>
   <v>       0.37544000       0.37420500       0.06234500 </v>
   <v>       0.99989000       0.25085000       0.24831000 </v>
   <v>       0.31230000       0.31346000       0.96828500 </v>
   <v>       0.14612500       0.43832500       0.26050750 </v>
   <v>       0.20830000       0.24878000       0.10429000 </v>
   <v>       0.14574500       0.18778500       0.01141250 </v>
   <v>       0.39572500       0.43673000       0.88531750 </v>
   <v>       0.02141500       0.31227500       0.07284750 </v>
   <v>       0.33289000       0.37625500       0.29155500 </v>
   <v>       0.45828500       0.25070500       0.22884250 </v>
   <v>       0.62552000       0.37374500       0.18878000 </v>
   <v>       0.99955500       0.49856000       0.00097750 </v>
   <v>       0.68753000       0.18756000       0.52992000 </v>
   <v>       0.81234000       0.06179500       0.46926500 </v>
   <v>       0.62523500       0.12622500       0.43665250 </v>
   <v>       0.74965000       0.00016500       0.37632000 </v>
   <v>       0.87544000       0.37420500       0.31234500 </v>
   <v>       0.49989000       0.25085000       0.49831000 </v>
   <v>       0.81230000       0.31346000       0.21828500 </v>
   <v>       0.64612500       0.43832500       0.51050750 </v>
   <v>       0.70830000       0.24878000       0.35429000 </v>
   <v>       0.64574500       0.18778500       0.26141250 </v>
   <v>       0.89572500       0.43673000       0.13531750 </v>
   <v>       0.52141500       0.31227500       0.32284750 </v>
   <v>       0.83289000       0.37625500       0.54155500 </v>
   <v>       0.95828500       0.25070500       0.47884250 </v>
   <v>       0.12552000       0.87374500       0.93878000 </v>
   <v>       0.49955500       0.99856000       0.75097750 </v>
   <v>       0.18753000       0.68756000       0.27992000 </v>
   <v>       0.31234000       0.56179500       0.21926500 </v>
   <v>       0.12523500       0.62622500       0.18665250 </v>
   <v>       0.24965000       0.50016500       0.12632000 </v>
   <v>       0.37544000       0.87420500       0.06234500 </v>
   <v>       0.99989000       0.75085000       0.24831000 </v>
   <v>       0.31230000       0.81346000       0.96828500 </v>
   <v>       0.14612500       0.93832500       0.26050750 </v>
   <v>       0.20830000       0.74878000       0.10429000 </v>
   <v>       0.14574500       0.68778500       0.01141250 </v>
   <v>       0.39572500       0.93673000       0.88531750 </v>
   <v>       0.02141500       0.81227500       0.07284750 </v>
   <v>       0.33289000       0.87625500       0.29155500 </v>
   <v>       0.45828500       0.75070500       0.22884250 </v>
   <v>       0.62552000       0.87374500       0.18878000 </v>
   <v>       0.99955500       0.99856000       0.00097750 </v>
   <v>       0.68753000       0.68756000       0.52992000 </v>
   <v>       0.81234000       0.56179500       0.46926500 </v>
   <v>       0.62523500       0.62622500       0.43665250 </v>
   <v>       0.74965000       0.50016500       0.37632000 </v>
   <v>       0.87544000       0.87420500       0.31234500 </v>
   <v>       0.49989000       0.75085000       0.49831000 </v>
   <v>       0.81230000       0.81346000       0.21828500 </v>
   <v>       0.64612500       0.93832500       0.51050750 </v>
   <v>       0.70830000       0.74878000       0.35429000 </v>
   <v>       0.64574500       0.68778500       0.26141250 </v>
   <v>       0.89572500       0.93673000       0.13531750 </v>
   <v>       0.52141500       0.81227500       0.32284750 </v>
   <v>       0.83289000       0.87625500       0.54155500 </v>
   <v>       0.95828500       0.75070500       0.47884250 </v>
   <v>       0.62552000       0.37374500       0.68878000 </v>
   <v>       0.99955500       0.49856000       0.50097750 </v>
   <v>       0.68753000       0.18756000       0.02992000 </v>
   <v>       0.81234000       0.06179500       0.96926500 </v>
   <v>       0.62523500       0.12622500       0.93665250 </v>
   <v>       0.74965000       0.00016500       0.87632000 </v>
   <v>       0.87544000       0.37420500       0.81234500 </v>
   <v>       0.49989000       0.25085000       0.99831000 </v>
   <v>       0.81230000       0.31575500       0.71599000 </v>
   <v>       0.64612500       0.43832500       0.01050750 </v>
   <v>       0.70830000       0.24878000       0.85429000 </v>
   <v>       0.64574500       0.18778500       0.76141250 </v>
   <v>       0.89572500       0.43673000       0.63531750 </v>
   <v>       0.52141500       0.31227500       0.82284750 </v>
   <v>       0.83289000       0.37625500       0.04155500 </v>
   <v>       0.95828500       0.25070500       0.97884250 </v>
   <v>       0.62552000       0.87374500       0.68878000 </v>
   <v>       0.99955500       0.99856000       0.50097750 </v>
   <v>       0.68753000       0.68756000       0.02992000 </v>
   <v>       0.81234000       0.56179500       0.96926500 </v>
   <v>       0.62523500       0.62622500       0.93665250 </v>
   <v>       0.74965000       0.50016500       0.87632000 </v>
   <v>       0.87544000       0.87420500       0.81234500 </v>
   <v>       0.49989000       0.75085000       0.99831000 </v>
   <v>       0.81230000       0.81346000       0.71828500 </v>
   <v>       0.64612500       0.93832500       0.01050750 </v>
   <v>       0.70830000       0.74878000       0.85429000 </v>
   <v>       0.64574500       0.68778500       0.76141250 </v>
   <v>       0.89572500       0.93673000       0.63531750 </v>
   <v>       0.52141500       0.81227500       0.82284750 </v>
   <v>       0.83289000       0.87625500       0.04155500 </v>
   <v>       0.95828500       0.75070500       0.97884250 </v>
  </varray>
 </structure>
</modeling>
