 216 216   0   0
  0.1398160E+02  0.1605843E-08  0.1605843E-08  0.1605848E-08  0.5000000E-15
  1.000000000000000E-004
  CAR 
 Ir_Ru                                   
     13.96501375     -0.68763941  301      9.13312132      1.00000000
     -0.688  0.0000E+00  0.0000E+00
     -0.639  0.0000E+00  0.0000E+00
     -0.590  0.0000E+00  0.0000E+00
     -0.541  0.0000E+00  0.0000E+00
     -0.492 -0.1108E-27 -0.5411E-29
     -0.443 -0.2123E-24 -0.1038E-25
     -0.395 -0.2516E-21 -0.1230E-22
     -0.346 -0.1841E-18 -0.9002E-20
     -0.297 -0.8310E-16 -0.4068E-17
     -0.248 -0.2242E-13 -0.1099E-14
     -0.199 -0.3817E-11 -0.1875E-12
     -0.150 -0.3992E-09 -0.1969E-10
     -0.102 -0.2559E-07 -0.1269E-08
     -0.053 -0.1003E-05 -0.5028E-07
     -0.004 -0.2408E-04 -0.1226E-05
      0.045 -0.3551E-03 -0.1857E-04
      0.094 -0.3258E-02 -0.1777E-03
      0.143 -0.1891E-01 -0.1101E-02
      0.192 -0.6841E-01 -0.4443E-02
      0.240 -0.1213E+00 -0.1037E-01
      0.289  0.1327E+00 -0.3883E-02
      0.338  0.1250E+01  0.5716E-01
      0.387  0.2864E+01  0.1970E+00
      0.436  0.3641E+01  0.3749E+00
      0.485  0.4288E+01  0.5843E+00
      0.533  0.6700E+01  0.9115E+00
      0.582  0.8862E+01  0.1344E+01
      0.631  0.7286E+01  0.1700E+01
      0.680  0.4918E+01  0.1940E+01
      0.729  0.7318E+01  0.2298E+01
      0.778  0.1189E+02  0.2879E+01
      0.826  0.1276E+02  0.3502E+01
      0.875  0.1168E+02  0.4072E+01
      0.924  0.1121E+02  0.4620E+01
      0.973  0.8953E+01  0.5057E+01
      1.022  0.7279E+01  0.5413E+01
      1.071  0.1233E+02  0.6015E+01
      1.120  0.1964E+02  0.6974E+01
      1.168  0.1968E+02  0.7935E+01
      1.217  0.1571E+02  0.8703E+01
      1.266  0.1435E+02  0.9403E+01
      1.315  0.1272E+02  0.1002E+02
      1.364  0.1084E+02  0.1055E+02
      1.413  0.1433E+02  0.1125E+02
      1.461  0.2135E+02  0.1230E+02
      1.510  0.2640E+02  0.1359E+02
      1.559  0.2746E+02  0.1493E+02
      1.608  0.2278E+02  0.1604E+02
      1.657  0.1664E+02  0.1685E+02
      1.706  0.1643E+02  0.1766E+02
      1.754  0.1985E+02  0.1862E+02
      1.803  0.2320E+02  0.1976E+02
      1.852  0.2842E+02  0.2115E+02
      1.901  0.3483E+02  0.2285E+02
      1.950  0.3978E+02  0.2479E+02
      1.999  0.3973E+02  0.2673E+02
      2.048  0.3184E+02  0.2829E+02
      2.096  0.2431E+02  0.2947E+02
      2.145  0.2729E+02  0.3081E+02
      2.194  0.3883E+02  0.3270E+02
      2.243  0.5141E+02  0.3521E+02
      2.292  0.5892E+02  0.3809E+02
      2.341  0.5906E+02  0.4098E+02
      2.389  0.5835E+02  0.4383E+02
      2.438  0.6564E+02  0.4703E+02
      2.487  0.8111E+02  0.5099E+02
      2.536  0.1045E+03  0.5610E+02
      2.585  0.1367E+03  0.6277E+02
      2.634  0.1691E+03  0.7103E+02
      2.682  0.1939E+03  0.8051E+02
      2.731  0.2123E+03  0.9087E+02
      2.780  0.2206E+03  0.1016E+03
      2.829  0.2186E+03  0.1123E+03
      2.878  0.2117E+03  0.1227E+03
      2.927  0.2068E+03  0.1328E+03
      2.976  0.2071E+03  0.1429E+03
      3.024  0.2097E+03  0.1531E+03
      3.073  0.2127E+03  0.1635E+03
      3.122  0.2159E+03  0.1741E+03
      3.171  0.2235E+03  0.1850E+03
      3.220  0.2425E+03  0.1968E+03
      3.269  0.2746E+03  0.2102E+03
      3.317  0.3094E+03  0.2253E+03
      3.366  0.3306E+03  0.2415E+03
      3.415  0.3369E+03  0.2579E+03
      3.464  0.3349E+03  0.2743E+03
      3.513  0.3261E+03  0.2902E+03
      3.562  0.3109E+03  0.3054E+03
      3.610  0.2957E+03  0.3199E+03
      3.659  0.2834E+03  0.3337E+03
      3.708  0.2685E+03  0.3468E+03
      3.757  0.2655E+03  0.3598E+03
      3.806  0.2804E+03  0.3735E+03
      3.855  0.2767E+03  0.3870E+03
      3.904  0.2440E+03  0.3989E+03
      3.952  0.2232E+03  0.4098E+03
      4.001  0.2246E+03  0.4208E+03
      4.050  0.2201E+03  0.4315E+03
      4.099  0.2111E+03  0.4418E+03
      4.148  0.2227E+03  0.4527E+03
      4.197  0.2613E+03  0.4655E+03
      4.245  0.3118E+03  0.4807E+03
      4.294  0.3444E+03  0.4975E+03
      4.343  0.3393E+03  0.5141E+03
      4.392  0.3115E+03  0.5293E+03
      4.441  0.2820E+03  0.5431E+03
      4.490  0.2649E+03  0.5560E+03
      4.538  0.2687E+03  0.5691E+03
      4.587  0.2703E+03  0.5823E+03
      4.636  0.2472E+03  0.5944E+03
      4.685  0.2194E+03  0.6051E+03
      4.734  0.2139E+03  0.6156E+03
      4.783  0.2384E+03  0.6272E+03
      4.832  0.2840E+03  0.6411E+03
      4.880  0.3198E+03  0.6567E+03
      4.929  0.3193E+03  0.6723E+03
      4.978  0.2966E+03  0.6868E+03
      5.027  0.2841E+03  0.7007E+03
      5.076  0.2965E+03  0.7152E+03
      5.125  0.3147E+03  0.7305E+03
      5.173  0.3048E+03  0.7454E+03
      5.222  0.2601E+03  0.7581E+03
      5.271  0.2141E+03  0.7686E+03
      5.320  0.1968E+03  0.7782E+03
      5.369  0.1970E+03  0.7878E+03
      5.418  0.1948E+03  0.7973E+03
      5.466  0.1864E+03  0.8064E+03
      5.515  0.1747E+03  0.8150E+03
      5.564  0.1702E+03  0.8233E+03
      5.613  0.1875E+03  0.8324E+03
      5.662  0.2194E+03  0.8431E+03
      5.711  0.2437E+03  0.8550E+03
      5.760  0.2632E+03  0.8679E+03
      5.808  0.2928E+03  0.8822E+03
      5.857  0.3245E+03  0.8981E+03
      5.906  0.3442E+03  0.9149E+03
      5.955  0.3570E+03  0.9323E+03
      6.004  0.3681E+03  0.9503E+03
      6.053  0.3652E+03  0.9681E+03
      6.101  0.3538E+03  0.9854E+03
      6.150  0.3576E+03  0.1003E+04
      6.199  0.3622E+03  0.1021E+04
      6.248  0.3405E+03  0.1037E+04
      6.297  0.3109E+03  0.1052E+04
      6.346  0.3069E+03  0.1067E+04
      6.394  0.3296E+03  0.1083E+04
      6.443  0.3530E+03  0.1101E+04
      6.492  0.3565E+03  0.1118E+04
      6.541  0.3480E+03  0.1135E+04
      6.590  0.3458E+03  0.1152E+04
      6.639  0.3507E+03  0.1169E+04
      6.688  0.3597E+03  0.1187E+04
      6.736  0.3675E+03  0.1205E+04
      6.785  0.3644E+03  0.1222E+04
      6.834  0.3508E+03  0.1240E+04
      6.883  0.3342E+03  0.1256E+04
      6.932  0.3239E+03  0.1272E+04
      6.981  0.3233E+03  0.1288E+04
      7.029  0.3213E+03  0.1303E+04
      7.078  0.3132E+03  0.1318E+04
      7.127  0.3189E+03  0.1334E+04
      7.176  0.3400E+03  0.1351E+04
      7.225  0.3440E+03  0.1367E+04
      7.274  0.3207E+03  0.1383E+04
      7.322  0.3014E+03  0.1398E+04
      7.371  0.3107E+03  0.1413E+04
      7.420  0.3291E+03  0.1429E+04
      7.469  0.3288E+03  0.1445E+04
      7.518  0.3244E+03  0.1461E+04
      7.567  0.3274E+03  0.1477E+04
      7.616  0.3106E+03  0.1492E+04
      7.664  0.2651E+03  0.1505E+04
      7.713  0.2136E+03  0.1516E+04
      7.762  0.1820E+03  0.1524E+04
      7.811  0.1848E+03  0.1533E+04
      7.860  0.2140E+03  0.1544E+04
      7.909  0.2408E+03  0.1556E+04
      7.957  0.2376E+03  0.1567E+04
      8.006  0.2079E+03  0.1577E+04
      8.055  0.1850E+03  0.1586E+04
      8.104  0.1889E+03  0.1596E+04
      8.153  0.2097E+03  0.1606E+04
      8.202  0.2270E+03  0.1617E+04
      8.250  0.2236E+03  0.1628E+04
      8.299  0.1959E+03  0.1638E+04
      8.348  0.1739E+03  0.1646E+04
      8.397  0.1844E+03  0.1655E+04
      8.446  0.2029E+03  0.1665E+04
      8.495  0.1980E+03  0.1675E+04
      8.544  0.1715E+03  0.1683E+04
      8.592  0.1371E+03  0.1690E+04
      8.641  0.1179E+03  0.1695E+04
      8.690  0.1305E+03  0.1702E+04
      8.739  0.1646E+03  0.1710E+04
      8.788  0.2012E+03  0.1720E+04
      8.837  0.2273E+03  0.1731E+04
      8.885  0.2335E+03  0.1742E+04
      8.934  0.2106E+03  0.1752E+04
      8.983  0.1678E+03  0.1761E+04
      9.032  0.1384E+03  0.1767E+04
      9.081  0.1373E+03  0.1774E+04
      9.130  0.1498E+03  0.1781E+04
      9.178  0.1658E+03  0.1790E+04
      9.227  0.1841E+03  0.1799E+04
      9.276  0.1966E+03  0.1808E+04
      9.325  0.2038E+03  0.1818E+04
      9.374  0.2236E+03  0.1829E+04
      9.423  0.2495E+03  0.1841E+04
      9.472  0.2489E+03  0.1853E+04
      9.520  0.2238E+03  0.1864E+04
      9.569  0.2068E+03  0.1874E+04
      9.618  0.2198E+03  0.1885E+04
      9.667  0.2550E+03  0.1898E+04
      9.716  0.2846E+03  0.1911E+04
      9.765  0.2989E+03  0.1926E+04
      9.813  0.3069E+03  0.1941E+04
      9.862  0.3089E+03  0.1956E+04
      9.911  0.2945E+03  0.1971E+04
      9.960  0.2795E+03  0.1984E+04
     10.009  0.3052E+03  0.1999E+04
     10.058  0.3692E+03  0.2017E+04
     10.106  0.4141E+03  0.2037E+04
     10.155  0.4128E+03  0.2058E+04
     10.204  0.3980E+03  0.2077E+04
     10.253  0.3940E+03  0.2096E+04
     10.302  0.3842E+03  0.2115E+04
     10.351  0.3507E+03  0.2132E+04
     10.400  0.3013E+03  0.2147E+04
     10.448  0.2449E+03  0.2159E+04
     10.497  0.1777E+03  0.2167E+04
     10.546  0.1033E+03  0.2173E+04
     10.595  0.4143E+02  0.2175E+04
     10.644  0.7881E+01  0.2175E+04
     10.693 -0.1753E+01  0.2175E+04
     10.741 -0.1702E+01  0.2175E+04
     10.790 -0.6017E+00  0.2175E+04
     10.839 -0.1794E+00  0.2175E+04
     10.888 -0.6287E-01  0.2175E+04
     10.937 -0.1883E-01  0.2175E+04
     10.986 -0.3653E-02  0.2175E+04
     11.034 -0.4301E-03  0.2175E+04
     11.083 -0.3058E-04  0.2175E+04
     11.132 -0.1320E-05  0.2175E+04
     11.181 -0.3471E-07  0.2175E+04
     11.230 -0.5643E-09  0.2175E+04
     11.279 -0.6318E-09  0.2175E+04
     11.328 -0.4089E-07  0.2175E+04
     11.376 -0.1619E-05  0.2175E+04
     11.425 -0.3850E-04  0.2175E+04
     11.474 -0.5397E-03  0.2175E+04
     11.523 -0.4296E-02  0.2175E+04
     11.572 -0.1760E-01  0.2175E+04
     11.621 -0.2288E-01  0.2175E+04
     11.669  0.7744E-01  0.2175E+04
     11.718  0.3388E+00  0.2175E+04
     11.767  0.5117E+00  0.2175E+04
     11.816  0.3541E+00  0.2175E+04
     11.865  0.8829E-01  0.2175E+04
     11.914 -0.2150E-01  0.2175E+04
     11.962 -0.2008E-01  0.2175E+04
     12.011 -0.1402E-01  0.2175E+04
     12.060 -0.2809E-01  0.2175E+04
     12.109 -0.1243E-01  0.2175E+04
     12.158  0.1442E+00  0.2175E+04
     12.207  0.4176E+00  0.2175E+04
     12.256  0.6214E+00  0.2175E+04
     12.304  0.8752E+00  0.2175E+04
     12.353  0.1534E+01  0.2175E+04
     12.402  0.2454E+01  0.2175E+04
     12.451  0.2918E+01  0.2175E+04
     12.500  0.2539E+01  0.2175E+04
     12.549  0.1811E+01  0.2175E+04
     12.597  0.1417E+01  0.2175E+04
     12.646  0.1320E+01  0.2176E+04
     12.695  0.1108E+01  0.2176E+04
     12.744  0.8985E+00  0.2176E+04
     12.793  0.8899E+00  0.2176E+04
     12.842  0.9719E+00  0.2176E+04
     12.890  0.1203E+01  0.2176E+04
     12.939  0.1578E+01  0.2176E+04
     12.988  0.1523E+01  0.2176E+04
     13.037  0.7961E+00  0.2176E+04
     13.086  0.1166E+00  0.2176E+04
     13.135 -0.7769E-01  0.2176E+04
     13.184 -0.4303E-01  0.2176E+04
     13.232 -0.9413E-02  0.2176E+04
     13.281 -0.1103E-02  0.2176E+04
     13.330 -0.7474E-04  0.2176E+04
     13.379 -0.3021E-05  0.2176E+04
     13.428 -0.7401E-07  0.2176E+04
     13.477 -0.1108E-08  0.2176E+04
     13.525 -0.1019E-10  0.2176E+04
     13.574 -0.5768E-13  0.2176E+04
     13.623 -0.2841E-15  0.2176E+04
     13.672  0.0000E+00  0.2176E+04
     13.721  0.0000E+00  0.2176E+04
     13.770  0.0000E+00  0.2176E+04
     13.818  0.0000E+00  0.2176E+04
     13.867  0.0000E+00  0.2176E+04
     13.916  0.0000E+00  0.2176E+04
     13.965  0.0000E+00  0.2176E+04
