       N       E                     dE             d eps       ncg     rms          rms(c)
RMM:   1     0.136790652180E+05    0.13679E+05   -0.47218E+05 25080   0.725E+02
RMM:   2     0.131333311544E+04   -0.12366E+05   -0.13120E+05 25080   0.260E+02
RMM:   3    -0.104570191930E+04   -0.23590E+04   -0.22856E+04 25080   0.111E+02
RMM:   4    -0.184598293077E+04   -0.80028E+03   -0.57406E+03 25080   0.768E+01
RMM:   5    -0.212909722716E+04   -0.28311E+03   -0.24896E+03 25080   0.451E+01
RMM:   6    -0.227482112391E+04   -0.14572E+03   -0.12952E+03 25080   0.349E+01
RMM:   7    -0.235268720872E+04   -0.77866E+02   -0.73856E+02 25080   0.235E+01
RMM:   8    -0.240018676108E+04   -0.47500E+02   -0.44558E+02 25080   0.195E+01
RMM:   9    -0.247907869094E+04   -0.78892E+02   -0.77972E+02 71852   0.137E+01
RMM:  10    -0.248863338544E+04   -0.95547E+01   -0.11977E+02 79669   0.283E+00
RMM:  11    -0.249087633503E+04   -0.22429E+01   -0.17856E+01 77274   0.686E-01
RMM:  12    -0.249118274694E+04   -0.30641E+00   -0.19836E+00 79567   0.198E-01    0.782E+01
RMM:  13    -0.241365500262E+04    0.77528E+02   -0.68494E+02 57181   0.246E+01    0.583E+01
RMM:  14    -0.236776579520E+04    0.45889E+02   -0.34126E+02 51449   0.174E+01    0.416E+01
RMM:  15    -0.233561553178E+04    0.32150E+02   -0.11846E+02 53322   0.101E+01    0.255E+01
RMM:  16    -0.232132655798E+04    0.14289E+02   -0.25823E+01 56019   0.434E+00    0.440E+00
RMM:  17    -0.232150323901E+04   -0.17668E+00   -0.64559E+00 73746   0.130E+00    0.435E+00
RMM:  18    -0.232112657209E+04    0.37667E+00   -0.11681E+00 64430   0.696E-01    0.339E+00
RMM:  19    -0.232074974596E+04    0.37683E+00   -0.65050E-01 59737   0.748E-01    0.166E+00
RMM:  20    -0.232069994274E+04    0.49803E-01   -0.24078E-01 63746   0.349E-01    0.156E+00
RMM:  21    -0.232065918187E+04    0.40761E-01   -0.11250E-01 62575   0.238E-01    0.121E+00
RMM:  22    -0.232063396223E+04    0.25220E-01   -0.48193E-02 60953   0.161E-01    0.702E-01
RMM:  23    -0.232062888209E+04    0.50801E-02   -0.13515E-02 67050   0.686E-02    0.482E-01
RMM:  24    -0.232062544797E+04    0.34341E-02   -0.10388E-02 62460   0.758E-02    0.242E-01
RMM:  25    -0.232062643274E+04   -0.98476E-03   -0.12545E-02 66413   0.769E-02    0.260E-01
RMM:  26    -0.232062657477E+04   -0.14204E-03   -0.32825E-03 74662   0.292E-02    0.267E-01
RMM:  27    -0.232062566143E+04    0.91335E-03   -0.71675E-04 59985   0.207E-02    0.177E-01
RMM:  28    -0.232062509168E+04    0.56975E-03   -0.10860E-03 63724   0.240E-02    0.741E-02
RMM:  29    -0.232062499792E+04    0.93760E-04   -0.56767E-04 70949   0.149E-02
   1 F= -.23206250E+04 E0= -.23206250E+04  d E =0.800082E-04
