 256 256   0   0
  0.1418917E+02  0.1588033E-08  0.1692661E-08  0.1693229E-08  0.5000000E-15
  1.000000000000000E-004
  CAR 
 Ir_Ru                                   
     14.27683707     -1.29197714  301      9.45704477      1.00000000
     -1.292  0.0000E+00  0.0000E+00
     -1.240  0.0000E+00  0.0000E+00
     -1.188  0.0000E+00  0.0000E+00
     -1.136 -0.2801E-30 -0.1453E-31
     -1.084 -0.1284E-26 -0.6664E-28
     -1.032 -0.3420E-23 -0.1776E-24
     -0.981 -0.5291E-20 -0.2747E-21
     -0.929 -0.4748E-17 -0.2467E-18
     -0.877 -0.2411E-14 -0.1253E-15
     -0.825 -0.7181E-12 -0.3739E-13
     -0.773 -0.1240E-09 -0.6474E-11
     -0.721 -0.1232E-07 -0.6458E-09
     -0.669 -0.7011E-06 -0.3703E-07
     -0.617 -0.2273E-04 -0.1217E-05
     -0.565 -0.4167E-03 -0.2284E-04
     -0.514 -0.4279E-02 -0.2449E-03
     -0.462 -0.2435E-01 -0.1509E-02
     -0.410 -0.7527E-01 -0.5415E-02
     -0.358 -0.1019E+00 -0.1070E-01
     -0.306  0.2071E+00  0.4741E-04
     -0.254  0.1644E+01  0.8537E-01
     -0.202  0.4405E+01  0.3140E+00
     -0.150  0.6356E+01  0.6438E+00
     -0.098  0.6422E+01  0.9771E+00
     -0.046  0.6966E+01  0.1339E+01
      0.005  0.8866E+01  0.1799E+01
      0.057  0.1119E+02  0.2379E+01
      0.109  0.1362E+02  0.3086E+01
      0.161  0.1434E+02  0.3830E+01
      0.213  0.1169E+02  0.4437E+01
      0.265  0.1007E+02  0.4959E+01
      0.317  0.1430E+02  0.5701E+01
      0.369  0.2037E+02  0.6758E+01
      0.421  0.2251E+02  0.7927E+01
      0.472  0.2269E+02  0.9104E+01
      0.524  0.2350E+02  0.1032E+02
      0.576  0.2252E+02  0.1149E+02
      0.628  0.2044E+02  0.1255E+02
      0.680  0.2100E+02  0.1364E+02
      0.732  0.2036E+02  0.1470E+02
      0.784  0.1457E+02  0.1546E+02
      0.836  0.8861E+01  0.1592E+02
      0.888  0.8052E+01  0.1633E+02
      0.940  0.1176E+02  0.1694E+02
      0.991  0.1895E+02  0.1793E+02
      1.043  0.2788E+02  0.1937E+02
      1.095  0.3340E+02  0.2111E+02
      1.147  0.3310E+02  0.2282E+02
      1.199  0.2878E+02  0.2432E+02
      1.251  0.2278E+02  0.2550E+02
      1.303  0.1947E+02  0.2651E+02
      1.355  0.2171E+02  0.2764E+02
      1.407  0.2719E+02  0.2905E+02
      1.459  0.3035E+02  0.3062E+02
      1.510  0.2983E+02  0.3217E+02
      1.562  0.2933E+02  0.3369E+02
      1.614  0.3039E+02  0.3527E+02
      1.666  0.3110E+02  0.3688E+02
      1.718  0.3201E+02  0.3855E+02
      1.770  0.3498E+02  0.4036E+02
      1.822  0.3908E+02  0.4239E+02
      1.874  0.4551E+02  0.4475E+02
      1.926  0.5467E+02  0.4759E+02
      1.977  0.5932E+02  0.5067E+02
      2.029  0.5473E+02  0.5351E+02
      2.081  0.5051E+02  0.5613E+02
      2.133  0.6161E+02  0.5933E+02
      2.185  0.8691E+02  0.6384E+02
      2.237  0.1088E+03  0.6948E+02
      2.289  0.1197E+03  0.7569E+02
      2.341  0.1258E+03  0.8222E+02
      2.393  0.1315E+03  0.8904E+02
      2.445  0.1374E+03  0.9618E+02
      2.496  0.1470E+03  0.1038E+03
      2.548  0.1643E+03  0.1123E+03
      2.600  0.1829E+03  0.1218E+03
      2.652  0.1949E+03  0.1319E+03
      2.704  0.2068E+03  0.1427E+03
      2.756  0.2238E+03  0.1543E+03
      2.808  0.2309E+03  0.1663E+03
      2.860  0.2247E+03  0.1779E+03
      2.912  0.2278E+03  0.1897E+03
      2.963  0.2453E+03  0.2025E+03
      3.015  0.2580E+03  0.2159E+03
      3.067  0.2599E+03  0.2294E+03
      3.119  0.2604E+03  0.2429E+03
      3.171  0.2639E+03  0.2566E+03
      3.223  0.2729E+03  0.2707E+03
      3.275  0.2880E+03  0.2857E+03
      3.327  0.3074E+03  0.3016E+03
      3.379  0.3244E+03  0.3185E+03
      3.431  0.3308E+03  0.3356E+03
      3.482  0.3278E+03  0.3526E+03
      3.534  0.3213E+03  0.3693E+03
      3.586  0.3181E+03  0.3858E+03
      3.638  0.3164E+03  0.4022E+03
      3.690  0.3109E+03  0.4184E+03
      3.742  0.3051E+03  0.4342E+03
      3.794  0.3011E+03  0.4498E+03
      3.846  0.2968E+03  0.4652E+03
      3.898  0.2932E+03  0.4804E+03
      3.950  0.2885E+03  0.4954E+03
      4.001  0.2762E+03  0.5098E+03
      4.053  0.2666E+03  0.5236E+03
      4.105  0.2758E+03  0.5379E+03
      4.157  0.2942E+03  0.5532E+03
      4.209  0.3027E+03  0.5689E+03
      4.261  0.3051E+03  0.5847E+03
      4.313  0.3121E+03  0.6009E+03
      4.365  0.3188E+03  0.6174E+03
      4.417  0.3213E+03  0.6341E+03
      4.468  0.3236E+03  0.6509E+03
      4.520  0.3210E+03  0.6676E+03
      4.572  0.3096E+03  0.6836E+03
      4.624  0.2972E+03  0.6991E+03
      4.676  0.2935E+03  0.7143E+03
      4.728  0.2982E+03  0.7298E+03
      4.780  0.3060E+03  0.7456E+03
      4.832  0.3179E+03  0.7621E+03
      4.884  0.3314E+03  0.7793E+03
      4.936  0.3377E+03  0.7969E+03
      4.987  0.3452E+03  0.8148E+03
      5.039  0.3582E+03  0.8334E+03
      5.091  0.3656E+03  0.8523E+03
      5.143  0.3644E+03  0.8713E+03
      5.195  0.3553E+03  0.8897E+03
      5.247  0.3345E+03  0.9071E+03
      5.299  0.3020E+03  0.9227E+03
      5.351  0.2609E+03  0.9363E+03
      5.403  0.2177E+03  0.9476E+03
      5.455  0.1841E+03  0.9571E+03
      5.506  0.1726E+03  0.9661E+03
      5.558  0.1895E+03  0.9759E+03
      5.610  0.2280E+03  0.9877E+03
      5.662  0.2764E+03  0.1002E+04
      5.714  0.3263E+03  0.1019E+04
      5.766  0.3681E+03  0.1038E+04
      5.818  0.3955E+03  0.1059E+04
      5.870  0.4106E+03  0.1080E+04
      5.922  0.4193E+03  0.1102E+04
      5.973  0.4257E+03  0.1124E+04
      6.025  0.4280E+03  0.1146E+04
      6.077  0.4160E+03  0.1168E+04
      6.129  0.3915E+03  0.1188E+04
      6.181  0.3716E+03  0.1207E+04
      6.233  0.3611E+03  0.1226E+04
      6.285  0.3555E+03  0.1244E+04
      6.337  0.3566E+03  0.1263E+04
      6.389  0.3693E+03  0.1282E+04
      6.441  0.3819E+03  0.1302E+04
      6.492  0.3842E+03  0.1322E+04
      6.544  0.3917E+03  0.1342E+04
      6.596  0.4099E+03  0.1363E+04
      6.648  0.4239E+03  0.1385E+04
      6.700  0.4281E+03  0.1408E+04
      6.752  0.4252E+03  0.1430E+04
      6.804  0.4131E+03  0.1451E+04
      6.856  0.3918E+03  0.1471E+04
      6.908  0.3732E+03  0.1491E+04
      6.959  0.3664E+03  0.1510E+04
      7.011  0.3636E+03  0.1529E+04
      7.063  0.3682E+03  0.1548E+04
      7.115  0.3916E+03  0.1568E+04
      7.167  0.4150E+03  0.1590E+04
      7.219  0.4221E+03  0.1612E+04
      7.271  0.4221E+03  0.1634E+04
      7.323  0.4132E+03  0.1655E+04
      7.375  0.3879E+03  0.1675E+04
      7.427  0.3587E+03  0.1694E+04
      7.478  0.3400E+03  0.1711E+04
      7.530  0.3326E+03  0.1729E+04
      7.582  0.3287E+03  0.1746E+04
      7.634  0.3169E+03  0.1762E+04
      7.686  0.2955E+03  0.1777E+04
      7.738  0.2774E+03  0.1792E+04
      7.790  0.2686E+03  0.1806E+04
      7.842  0.2635E+03  0.1819E+04
      7.894  0.2574E+03  0.1833E+04
      7.946  0.2483E+03  0.1846E+04
      7.997  0.2428E+03  0.1858E+04
      8.049  0.2433E+03  0.1871E+04
      8.101  0.2393E+03  0.1883E+04
      8.153  0.2313E+03  0.1895E+04
      8.205  0.2289E+03  0.1907E+04
      8.257  0.2334E+03  0.1919E+04
      8.309  0.2378E+03  0.1932E+04
      8.361  0.2391E+03  0.1944E+04
      8.413  0.2369E+03  0.1956E+04
      8.464  0.2287E+03  0.1968E+04
      8.516  0.2185E+03  0.1980E+04
      8.568  0.2121E+03  0.1991E+04
      8.620  0.2070E+03  0.2001E+04
      8.672  0.1997E+03  0.2012E+04
      8.724  0.1914E+03  0.2022E+04
      8.776  0.1831E+03  0.2031E+04
      8.828  0.1794E+03  0.2040E+04
      8.880  0.1885E+03  0.2050E+04
      8.932  0.2135E+03  0.2061E+04
      8.983  0.2355E+03  0.2074E+04
      9.035  0.2362E+03  0.2086E+04
      9.087  0.2233E+03  0.2097E+04
      9.139  0.2062E+03  0.2108E+04
      9.191  0.1868E+03  0.2118E+04
      9.243  0.1789E+03  0.2127E+04
      9.295  0.1978E+03  0.2137E+04
      9.347  0.2287E+03  0.2149E+04
      9.399  0.2430E+03  0.2162E+04
      9.451  0.2428E+03  0.2174E+04
      9.502  0.2450E+03  0.2187E+04
      9.554  0.2445E+03  0.2200E+04
      9.606  0.2466E+03  0.2213E+04
      9.658  0.2750E+03  0.2227E+04
      9.710  0.3178E+03  0.2243E+04
      9.762  0.3355E+03  0.2261E+04
      9.814  0.3262E+03  0.2278E+04
      9.866  0.3166E+03  0.2294E+04
      9.918  0.3154E+03  0.2311E+04
      9.969  0.3219E+03  0.2327E+04
     10.021  0.3435E+03  0.2345E+04
     10.073  0.3805E+03  0.2365E+04
     10.125  0.4132E+03  0.2386E+04
     10.177  0.4285E+03  0.2408E+04
     10.229  0.4364E+03  0.2431E+04
     10.281  0.4491E+03  0.2454E+04
     10.333  0.4677E+03  0.2479E+04
     10.385  0.4864E+03  0.2504E+04
     10.437  0.4973E+03  0.2530E+04
     10.488  0.4894E+03  0.2555E+04
     10.540  0.4512E+03  0.2579E+04
     10.592  0.3901E+03  0.2599E+04
     10.644  0.3205E+03  0.2615E+04
     10.696  0.2363E+03  0.2628E+04
     10.748  0.1355E+03  0.2635E+04
     10.800  0.4775E+02  0.2637E+04
     10.852  0.2816E+01  0.2637E+04
     10.904 -0.5663E+01  0.2637E+04
     10.955 -0.2650E+01  0.2637E+04
     11.007 -0.5753E+00  0.2637E+04
     11.059 -0.7249E-01  0.2637E+04
     11.111 -0.5779E-02  0.2637E+04
     11.163 -0.3038E-03  0.2637E+04
     11.215 -0.1049E-04  0.2637E+04
     11.267 -0.2300E-06  0.2637E+04
     11.319 -0.3088E-08  0.2637E+04
     11.371 -0.2473E-10  0.2637E+04
     11.423 -0.2889E-12  0.2637E+04
     11.474 -0.3734E-10  0.2637E+04
     11.526 -0.4634E-08  0.2637E+04
     11.578 -0.3310E-06  0.2637E+04
     11.630 -0.1354E-04  0.2637E+04
     11.682 -0.3141E-03  0.2637E+04
     11.734 -0.4057E-02  0.2637E+04
     11.786 -0.2790E-01  0.2637E+04
     11.838 -0.8802E-01  0.2637E+04
     11.890 -0.1858E-01  0.2637E+04
     11.942  0.6528E+00  0.2637E+04
     11.993  0.1851E+01  0.2637E+04
     12.045  0.2320E+01  0.2637E+04
     12.097  0.1601E+01  0.2637E+04
     12.149  0.1008E+01  0.2637E+04
     12.201  0.1394E+01  0.2637E+04
     12.253  0.2587E+01  0.2637E+04
     12.305  0.3921E+01  0.2638E+04
     12.357  0.4346E+01  0.2638E+04
     12.409  0.3852E+01  0.2638E+04
     12.460  0.3087E+01  0.2638E+04
     12.512  0.2215E+01  0.2638E+04
     12.564  0.2153E+01  0.2638E+04
     12.616  0.3133E+01  0.2639E+04
     12.668  0.3811E+01  0.2639E+04
     12.720  0.3717E+01  0.2639E+04
     12.772  0.3064E+01  0.2639E+04
     12.824  0.2411E+01  0.2639E+04
     12.876  0.2420E+01  0.2639E+04
     12.928  0.2267E+01  0.2640E+04
     12.979  0.1526E+01  0.2640E+04
     13.031  0.1083E+01  0.2640E+04
     13.083  0.9063E+00  0.2640E+04
     13.135  0.7148E+00  0.2640E+04
     13.187  0.8892E+00  0.2640E+04
     13.239  0.1221E+01  0.2640E+04
     13.291  0.1183E+01  0.2640E+04
     13.343  0.6904E+00  0.2640E+04
     13.395  0.1531E+00  0.2640E+04
     13.447 -0.4679E-01  0.2640E+04
     13.498 -0.3350E-01  0.2640E+04
     13.550 -0.7311E-02  0.2640E+04
     13.602 -0.7747E-03  0.2640E+04
     13.654 -0.4386E-04  0.2640E+04
     13.706 -0.1377E-05  0.2640E+04
     13.758 -0.2441E-07  0.2640E+04
     13.810 -0.2468E-09  0.2640E+04
     13.862 -0.1432E-11  0.2640E+04
     13.914 -0.4754E-14  0.2640E+04
     13.965  0.0000E+00  0.2640E+04
     14.017  0.0000E+00  0.2640E+04
     14.069  0.0000E+00  0.2640E+04
     14.121  0.0000E+00  0.2640E+04
     14.173  0.0000E+00  0.2640E+04
     14.225  0.0000E+00  0.2640E+04
     14.277  0.0000E+00  0.2640E+04
