 256 256   0   0
  0.1418917E+02  0.1588033E-08  0.1692661E-08  0.1693229E-08  0.5000000E-15
  1.000000000000000E-004
  CAR 
 Ir_Ru                                   
     14.27809467     -1.29135546  301      9.45690777      1.00000000
     -1.291  0.0000E+00  0.0000E+00
     -1.239  0.0000E+00  0.0000E+00
     -1.188  0.0000E+00  0.0000E+00
     -1.136 -0.2804E-30 -0.1455E-31
     -1.084 -0.1285E-26 -0.6673E-28
     -1.032 -0.3425E-23 -0.1778E-24
     -0.980 -0.5299E-20 -0.2752E-21
     -0.928 -0.4757E-17 -0.2471E-18
     -0.876 -0.2415E-14 -0.1256E-15
     -0.824 -0.7195E-12 -0.3747E-13
     -0.772 -0.1243E-09 -0.6487E-11
     -0.720 -0.1234E-07 -0.6471E-09
     -0.669 -0.7024E-06 -0.3710E-07
     -0.617 -0.2277E-04 -0.1219E-05
     -0.565 -0.4173E-03 -0.2288E-04
     -0.513 -0.4284E-02 -0.2452E-03
     -0.461 -0.2437E-01 -0.1510E-02
     -0.409 -0.7529E-01 -0.5417E-02
     -0.357 -0.1018E+00 -0.1070E-01
     -0.305  0.2076E+00  0.7659E-04
     -0.253  0.1645E+01  0.8546E-01
     -0.201  0.4406E+01  0.3141E+00
     -0.150  0.6356E+01  0.6440E+00
     -0.098  0.6422E+01  0.9773E+00
     -0.046  0.6965E+01  0.1339E+01
      0.006  0.8863E+01  0.1799E+01
      0.058  0.1118E+02  0.2379E+01
      0.110  0.1361E+02  0.3086E+01
      0.162  0.1434E+02  0.3830E+01
      0.214  0.1169E+02  0.4437E+01
      0.266  0.1006E+02  0.4959E+01
      0.317  0.1428E+02  0.5700E+01
      0.369  0.2035E+02  0.6756E+01
      0.421  0.2252E+02  0.7925E+01
      0.473  0.2270E+02  0.9103E+01
      0.525  0.2351E+02  0.1032E+02
      0.577  0.2252E+02  0.1149E+02
      0.629  0.2044E+02  0.1255E+02
      0.681  0.2100E+02  0.1364E+02
      0.733  0.2037E+02  0.1470E+02
      0.785  0.1457E+02  0.1546E+02
      0.836  0.8836E+01  0.1591E+02
      0.888  0.7973E+01  0.1633E+02
      0.940  0.1165E+02  0.1693E+02
      0.992  0.1886E+02  0.1791E+02
      1.044  0.2784E+02  0.1936E+02
      1.096  0.3338E+02  0.2109E+02
      1.148  0.3310E+02  0.2281E+02
      1.200  0.2886E+02  0.2430E+02
      1.252  0.2289E+02  0.2549E+02
      1.304  0.1951E+02  0.2650E+02
      1.355  0.2166E+02  0.2763E+02
      1.407  0.2716E+02  0.2904E+02
      1.459  0.3036E+02  0.3061E+02
      1.511  0.2984E+02  0.3216E+02
      1.563  0.2936E+02  0.3369E+02
      1.615  0.3044E+02  0.3527E+02
      1.667  0.3112E+02  0.3688E+02
      1.719  0.3203E+02  0.3854E+02
      1.771  0.3506E+02  0.4036E+02
      1.823  0.3916E+02  0.4240E+02
      1.874  0.4554E+02  0.4476E+02
      1.926  0.5467E+02  0.4760E+02
      1.978  0.5930E+02  0.5067E+02
      2.030  0.5470E+02  0.5351E+02
      2.082  0.5050E+02  0.5613E+02
      2.134  0.6164E+02  0.5933E+02
      2.186  0.8697E+02  0.6385E+02
      2.238  0.1088E+03  0.6950E+02
      2.290  0.1198E+03  0.7571E+02
      2.342  0.1259E+03  0.8225E+02
      2.393  0.1316E+03  0.8908E+02
      2.445  0.1376E+03  0.9622E+02
      2.497  0.1472E+03  0.1039E+03
      2.549  0.1644E+03  0.1124E+03
      2.601  0.1829E+03  0.1219E+03
      2.653  0.1950E+03  0.1320E+03
      2.705  0.2069E+03  0.1427E+03
      2.757  0.2238E+03  0.1544E+03
      2.809  0.2307E+03  0.1663E+03
      2.860  0.2246E+03  0.1780E+03
      2.912  0.2279E+03  0.1898E+03
      2.964  0.2453E+03  0.2025E+03
      3.016  0.2579E+03  0.2159E+03
      3.068  0.2599E+03  0.2294E+03
      3.120  0.2605E+03  0.2429E+03
      3.172  0.2641E+03  0.2566E+03
      3.224  0.2732E+03  0.2708E+03
      3.276  0.2885E+03  0.2858E+03
      3.328  0.3080E+03  0.3018E+03
      3.379  0.3250E+03  0.3186E+03
      3.431  0.3312E+03  0.3358E+03
      3.483  0.3281E+03  0.3529E+03
      3.535  0.3217E+03  0.3695E+03
      3.587  0.3185E+03  0.3861E+03
      3.639  0.3166E+03  0.4025E+03
      3.691  0.3109E+03  0.4186E+03
      3.743  0.3051E+03  0.4345E+03
      3.795  0.3010E+03  0.4501E+03
      3.847  0.2967E+03  0.4655E+03
      3.898  0.2931E+03  0.4807E+03
      3.950  0.2882E+03  0.4957E+03
      4.002  0.2757E+03  0.5100E+03
      4.054  0.2663E+03  0.5238E+03
      4.106  0.2760E+03  0.5381E+03
      4.158  0.2946E+03  0.5534E+03
      4.210  0.3029E+03  0.5691E+03
      4.262  0.3052E+03  0.5850E+03
      4.314  0.3123E+03  0.6012E+03
      4.366  0.3189E+03  0.6177E+03
      4.417  0.3215E+03  0.6344E+03
      4.469  0.3237E+03  0.6512E+03
      4.521  0.3209E+03  0.6679E+03
      4.573  0.3093E+03  0.6839E+03
      4.625  0.2971E+03  0.6993E+03
      4.677  0.2936E+03  0.7146E+03
      4.729  0.2984E+03  0.7301E+03
      4.781  0.3062E+03  0.7459E+03
      4.833  0.3183E+03  0.7625E+03
      4.885  0.3318E+03  0.7797E+03
      4.936  0.3379E+03  0.7972E+03
      4.988  0.3454E+03  0.8151E+03
      5.040  0.3587E+03  0.8338E+03
      5.092  0.3660E+03  0.8528E+03
      5.144  0.3643E+03  0.8717E+03
      5.196  0.3547E+03  0.8901E+03
      5.248  0.3338E+03  0.9074E+03
      5.300  0.3011E+03  0.9230E+03
      5.352  0.2599E+03  0.9365E+03
      5.404  0.2168E+03  0.9478E+03
      5.455  0.1834E+03  0.9573E+03
      5.507  0.1724E+03  0.9662E+03
      5.559  0.1900E+03  0.9761E+03
      5.611  0.2288E+03  0.9880E+03
      5.663  0.2773E+03  0.1002E+04
      5.715  0.3273E+03  0.1019E+04
      5.767  0.3688E+03  0.1038E+04
      5.819  0.3959E+03  0.1059E+04
      5.871  0.4109E+03  0.1080E+04
      5.922  0.4196E+03  0.1102E+04
      5.974  0.4259E+03  0.1124E+04
      6.026  0.4277E+03  0.1146E+04
      6.078  0.4153E+03  0.1168E+04
      6.130  0.3911E+03  0.1188E+04
      6.182  0.3714E+03  0.1208E+04
      6.234  0.3609E+03  0.1226E+04
      6.286  0.3553E+03  0.1245E+04
      6.338  0.3567E+03  0.1263E+04
      6.390  0.3696E+03  0.1282E+04
      6.441  0.3820E+03  0.1302E+04
      6.493  0.3843E+03  0.1322E+04
      6.545  0.3921E+03  0.1343E+04
      6.597  0.4103E+03  0.1364E+04
      6.649  0.4242E+03  0.1386E+04
      6.701  0.4284E+03  0.1408E+04
      6.753  0.4251E+03  0.1430E+04
      6.805  0.4126E+03  0.1452E+04
      6.857  0.3913E+03  0.1472E+04
      6.909  0.3731E+03  0.1491E+04
      6.960  0.3665E+03  0.1510E+04
      7.012  0.3637E+03  0.1529E+04
      7.064  0.3686E+03  0.1548E+04
      7.116  0.3921E+03  0.1569E+04
      7.168  0.4153E+03  0.1590E+04
      7.220  0.4223E+03  0.1612E+04
      7.272  0.4221E+03  0.1634E+04
      7.324  0.4127E+03  0.1655E+04
      7.376  0.3871E+03  0.1675E+04
      7.428  0.3581E+03  0.1694E+04
      7.479  0.3399E+03  0.1712E+04
      7.531  0.3327E+03  0.1729E+04
      7.583  0.3288E+03  0.1746E+04
      7.635  0.3166E+03  0.1762E+04
      7.687  0.2949E+03  0.1778E+04
      7.739  0.2769E+03  0.1792E+04
      7.791  0.2684E+03  0.1806E+04
      7.843  0.2635E+03  0.1820E+04
      7.895  0.2573E+03  0.1833E+04
      7.947  0.2481E+03  0.1846E+04
      7.998  0.2429E+03  0.1859E+04
      8.050  0.2433E+03  0.1871E+04
      8.102  0.2390E+03  0.1884E+04
      8.154  0.2311E+03  0.1896E+04
      8.206  0.2290E+03  0.1908E+04
      8.258  0.2335E+03  0.1920E+04
      8.310  0.2378E+03  0.1932E+04
      8.362  0.2390E+03  0.1944E+04
      8.414  0.2367E+03  0.1957E+04
      8.465  0.2286E+03  0.1969E+04
      8.517  0.2183E+03  0.1980E+04
      8.569  0.2119E+03  0.1991E+04
      8.621  0.2068E+03  0.2002E+04
      8.673  0.1995E+03  0.2012E+04
      8.725  0.1911E+03  0.2022E+04
      8.777  0.1829E+03  0.2031E+04
      8.829  0.1795E+03  0.2041E+04
      8.881  0.1888E+03  0.2050E+04
      8.933  0.2139E+03  0.2062E+04
      8.984  0.2357E+03  0.2074E+04
      9.036  0.2361E+03  0.2086E+04
      9.088  0.2230E+03  0.2098E+04
      9.140  0.2058E+03  0.2108E+04
      9.192  0.1865E+03  0.2118E+04
      9.244  0.1791E+03  0.2127E+04
      9.296  0.1983E+03  0.2138E+04
      9.348  0.2292E+03  0.2149E+04
      9.400  0.2433E+03  0.2162E+04
      9.452  0.2430E+03  0.2175E+04
      9.503  0.2450E+03  0.2187E+04
      9.555  0.2443E+03  0.2200E+04
      9.607  0.2467E+03  0.2213E+04
      9.659  0.2758E+03  0.2227E+04
      9.711  0.3186E+03  0.2244E+04
      9.763  0.3356E+03  0.2261E+04
      9.815  0.3260E+03  0.2278E+04
      9.867  0.3164E+03  0.2294E+04
      9.919  0.3153E+03  0.2311E+04
      9.971  0.3221E+03  0.2328E+04
     10.022  0.3443E+03  0.2345E+04
     10.074  0.3813E+03  0.2365E+04
     10.126  0.4137E+03  0.2387E+04
     10.178  0.4286E+03  0.2409E+04
     10.230  0.4365E+03  0.2432E+04
     10.282  0.4495E+03  0.2455E+04
     10.334  0.4681E+03  0.2479E+04
     10.386  0.4866E+03  0.2504E+04
     10.438  0.4973E+03  0.2530E+04
     10.490  0.4890E+03  0.2556E+04
     10.541  0.4503E+03  0.2579E+04
     10.593  0.3891E+03  0.2599E+04
     10.645  0.3193E+03  0.2616E+04
     10.697  0.2345E+03  0.2628E+04
     10.749  0.1339E+03  0.2635E+04
     10.801  0.4744E+02  0.2637E+04
     10.853  0.3392E+01  0.2638E+04
     10.905 -0.5256E+01  0.2637E+04
     10.957 -0.2585E+01  0.2637E+04
     11.009 -0.6000E+00  0.2637E+04
     11.060 -0.8456E-01  0.2637E+04
     11.112 -0.7898E-02  0.2637E+04
     11.164 -0.4958E-03  0.2637E+04
     11.216 -0.2019E-04  0.2637E+04
     11.268 -0.5096E-06  0.2637E+04
     11.320 -0.7725E-08  0.2637E+04
     11.372 -0.6907E-10  0.2637E+04
     11.424 -0.3862E-12  0.2637E+04
     11.476 -0.7067E-11  0.2637E+04
     11.527 -0.1110E-08  0.2637E+04
     11.579 -0.1001E-06  0.2637E+04
     11.631 -0.5146E-05  0.2637E+04
     11.683 -0.1494E-03  0.2637E+04
     11.735 -0.2405E-02  0.2637E+04
     11.787 -0.2059E-01  0.2637E+04
     11.839 -0.8353E-01  0.2637E+04
     11.891 -0.7671E-01  0.2637E+04
     11.943  0.5089E+00  0.2637E+04
     11.995  0.1792E+01  0.2637E+04
     12.046  0.2435E+01  0.2637E+04
     12.098  0.1525E+01  0.2637E+04
     12.150  0.2130E+00  0.2637E+04
     12.202  0.4378E-01  0.2637E+04
     12.254  0.1746E+01  0.2638E+04
     12.306  0.4074E+01  0.2638E+04
     12.358  0.4466E+01  0.2638E+04
     12.410  0.3247E+01  0.2638E+04
     12.462  0.2394E+01  0.2638E+04
     12.514  0.2066E+01  0.2638E+04
     12.565  0.2025E+01  0.2638E+04
     12.617  0.2480E+01  0.2639E+04
     12.669  0.3655E+01  0.2639E+04
     12.721  0.4559E+01  0.2639E+04
     12.773  0.3588E+01  0.2639E+04
     12.825  0.2025E+01  0.2639E+04
     12.877  0.1927E+01  0.2639E+04
     12.929  0.2335E+01  0.2640E+04
     12.981  0.1867E+01  0.2640E+04
     13.033  0.1166E+01  0.2640E+04
     13.084  0.8810E+00  0.2640E+04
     13.136  0.7931E+00  0.2640E+04
     13.188  0.9506E+00  0.2640E+04
     13.240  0.1193E+01  0.2640E+04
     13.292  0.1141E+01  0.2640E+04
     13.344  0.6797E+00  0.2640E+04
     13.396  0.1556E+00  0.2640E+04
     13.448 -0.4528E-01  0.2640E+04
     13.500 -0.3326E-01  0.2640E+04
     13.552 -0.7298E-02  0.2640E+04
     13.603 -0.7749E-03  0.2640E+04
     13.655 -0.4391E-04  0.2640E+04
     13.707 -0.1379E-05  0.2640E+04
     13.759 -0.2445E-07  0.2640E+04
     13.811 -0.2473E-09  0.2640E+04
     13.863 -0.1435E-11  0.2640E+04
     13.915 -0.4754E-14  0.2640E+04
     13.967  0.0000E+00  0.2640E+04
     14.019  0.0000E+00  0.2640E+04
     14.071  0.0000E+00  0.2640E+04
     14.122  0.0000E+00  0.2640E+04
     14.174  0.0000E+00  0.2640E+04
     14.226  0.0000E+00  0.2640E+04
     14.278  0.0000E+00  0.2640E+04
