   4   4   0   0
  0.1453058E+02  0.3873596E-09  0.3873596E-09  0.3873596E-09  0.5000000E-15
  1.000000000000000E-004
  CAR 
 Ir_Ru                                   
     40.80116867     -2.80226894  301      9.92946860      1.00000000
     -2.802  0.0000E+00  0.0000E+00
     -2.657  0.0000E+00  0.0000E+00
     -2.512  0.0000E+00  0.0000E+00
     -2.366  0.0000E+00  0.0000E+00
     -2.221  0.0000E+00  0.0000E+00
     -2.076  0.0000E+00  0.0000E+00
     -1.930  0.0000E+00  0.0000E+00
     -1.785  0.0000E+00  0.0000E+00
     -1.640  0.0000E+00  0.0000E+00
     -1.494  0.0000E+00  0.0000E+00
     -1.349  0.0000E+00  0.0000E+00
     -1.203  0.0000E+00  0.0000E+00
     -1.058  0.0000E+00  0.0000E+00
     -0.913  0.0000E+00  0.0000E+00
     -0.767  0.1619E-01  0.2851E-03
     -0.622  0.8818E-01  0.9695E-02
     -0.477  0.1351E+00  0.2548E-01
     -0.331  0.1591E+00  0.4722E-01
     -0.186  0.1891E+00  0.7254E-01
     -0.041  0.2224E+00  0.1023E+00
      0.105  0.2444E+00  0.1363E+00
      0.250  0.2680E+00  0.1735E+00
      0.395  0.2980E+00  0.2146E+00
      0.541  0.3289E+00  0.2603E+00
      0.686  0.3542E+00  0.3098E+00
      0.831  0.3853E+00  0.3635E+00
      0.977  0.4191E+00  0.4219E+00
      1.122  0.4555E+00  0.4854E+00
      1.267  0.4997E+00  0.5548E+00
      1.413  0.5476E+00  0.6308E+00
      1.558  0.6000E+00  0.7142E+00
      1.703  0.6711E+00  0.8062E+00
      1.849  0.9317E+00  0.9161E+00
      1.994  0.9632E+00  0.1050E+01
      2.139  0.1200E+01  0.1203E+01
      2.285  0.2045E+01  0.1470E+01
      2.430  0.2187E+01  0.1777E+01
      2.575  0.2550E+01  0.2117E+01
      2.721  0.3511E+01  0.2541E+01
      2.866  0.3902E+01  0.3105E+01
      3.012  0.4459E+01  0.3710E+01
      3.157  0.5073E+01  0.4404E+01
      3.302  0.5059E+01  0.5175E+01
      3.448  0.5365E+01  0.5926E+01
      3.593  0.4841E+01  0.6639E+01
      3.738  0.4677E+01  0.7323E+01
      3.884  0.4497E+01  0.7999E+01
      4.029  0.4546E+01  0.8672E+01
      4.174  0.4407E+01  0.9325E+01
      4.320  0.2826E+01  0.9782E+01
      4.465  0.3007E+01  0.1020E+02
      4.610  0.4627E+01  0.1074E+02
      4.756  0.4182E+01  0.1137E+02
      4.901  0.4741E+01  0.1201E+02
      5.046  0.4246E+01  0.1268E+02
      5.192  0.4703E+01  0.1335E+02
      5.337  0.4643E+01  0.1402E+02
      5.482  0.4626E+01  0.1468E+02
      5.628  0.6315E+01  0.1544E+02
      5.773  0.5234E+01  0.1624E+02
      5.918  0.5483E+01  0.1703E+02
      6.064  0.5150E+01  0.1781E+02
      6.209  0.6204E+01  0.1869E+02
      6.354  0.7292E+01  0.1968E+02
      6.500  0.7571E+01  0.2083E+02
      6.645  0.8546E+01  0.2201E+02
      6.790  0.4186E+01  0.2298E+02
      6.936  0.4149E+01  0.2359E+02
      7.081  0.4820E+01  0.2420E+02
      7.227  0.4696E+01  0.2491E+02
      7.372  0.4321E+01  0.2557E+02
      7.517  0.3905E+01  0.2616E+02
      7.663  0.3736E+01  0.2672E+02
      7.808  0.4102E+01  0.2728E+02
      7.953  0.4607E+01  0.2790E+02
      8.099  0.5322E+01  0.2863E+02
      8.244  0.3821E+01  0.2926E+02
      8.389  0.5297E+01  0.2996E+02
      8.535  0.4474E+01  0.3066E+02
      8.680  0.4171E+01  0.3131E+02
      8.825  0.4278E+01  0.3191E+02
      8.971  0.3963E+01  0.3249E+02
      9.116  0.3449E+01  0.3306E+02
      9.261  0.3429E+01  0.3355E+02
      9.407  0.3551E+01  0.3405E+02
      9.552  0.3671E+01  0.3459E+02
      9.697  0.3814E+01  0.3513E+02
      9.843  0.3756E+01  0.3567E+02
      9.988  0.3809E+01  0.3622E+02
     10.133  0.3932E+01  0.3680E+02
     10.279  0.4799E+01  0.3741E+02
     10.424  0.5430E+01  0.3817E+02
     10.569  0.6306E+01  0.3907E+02
     10.715  0.6907E+01  0.4003E+02
     10.860  0.5197E+01  0.4096E+02
     11.005  0.3536E+01  0.4159E+02
     11.151  0.3083E+01  0.4205E+02
     11.296  0.1913E+01  0.4247E+02
     11.442  0.1252E+01  0.4267E+02
     11.587  0.1134E+01  0.4284E+02
     11.732  0.1128E+01  0.4301E+02
     11.878  0.1118E+01  0.4317E+02
     12.023  0.1200E+01  0.4334E+02
     12.168  0.1219E+01  0.4352E+02
     12.314  0.1145E+01  0.4369E+02
     12.459  0.1085E+01  0.4386E+02
     12.604  0.1046E+01  0.4401E+02
     12.750  0.8756E+00  0.4416E+02
     12.895  0.8713E+00  0.4429E+02
     13.040  0.9473E+00  0.4442E+02
     13.186  0.1086E+01  0.4456E+02
     13.331  0.1101E+01  0.4473E+02
     13.476  0.1208E+01  0.4490E+02
     13.622  0.1201E+01  0.4507E+02
     13.767  0.1128E+01  0.4524E+02
     13.912  0.1085E+01  0.4540E+02
     14.058  0.1057E+01  0.4556E+02
     14.203  0.1025E+01  0.4571E+02
     14.348  0.1018E+01  0.4586E+02
     14.494  0.1019E+01  0.4600E+02
     14.639  0.1020E+01  0.4615E+02
     14.784  0.1020E+01  0.4630E+02
     14.930  0.9756E+00  0.4645E+02
     15.075  0.9392E+00  0.4659E+02
     15.220  0.9091E+00  0.4672E+02
     15.366  0.8668E+00  0.4685E+02
     15.511  0.8660E+00  0.4698E+02
     15.657  0.8768E+00  0.4711E+02
     15.802  0.8949E+00  0.4723E+02
     15.947  0.8577E+00  0.4736E+02
     16.093  0.7947E+00  0.4748E+02
     16.238  0.6912E+00  0.4759E+02
     16.383  0.6845E+00  0.4769E+02
     16.529  0.6511E+00  0.4777E+02
     16.674  0.1398E+01  0.4792E+02
     16.819  0.1442E+01  0.4813E+02
     16.965  0.1670E+01  0.4835E+02
     17.110  0.1489E+01  0.4858E+02
     17.255  0.1472E+01  0.4879E+02
     17.401  0.1420E+01  0.4900E+02
     17.546  0.1348E+01  0.4920E+02
     17.691  0.1332E+01  0.4939E+02
     17.837  0.1321E+01  0.4959E+02
     17.982  0.1313E+01  0.4978E+02
     18.127  0.1325E+01  0.4997E+02
     18.273  0.1335E+01  0.5016E+02
     18.418  0.1380E+01  0.5036E+02
     18.563  0.1366E+01  0.5056E+02
     18.709  0.1322E+01  0.5075E+02
     18.854  0.1281E+01  0.5095E+02
     18.999  0.1237E+01  0.5113E+02
     19.145  0.1188E+01  0.5130E+02
     19.290  0.1155E+01  0.5147E+02
     19.435  0.1174E+01  0.5164E+02
     19.581  0.1175E+01  0.5181E+02
     19.726  0.1170E+01  0.5198E+02
     19.872  0.1148E+01  0.5215E+02
     20.017  0.1152E+01  0.5232E+02
     20.162  0.1154E+01  0.5249E+02
     20.308  0.1158E+01  0.5266E+02
     20.453  0.1192E+01  0.5283E+02
     20.598  0.1197E+01  0.5300E+02
     20.744  0.1234E+01  0.5318E+02
     20.889  0.1348E+01  0.5336E+02
     21.034  0.1484E+01  0.5357E+02
     21.180  0.1595E+01  0.5379E+02
     21.325  0.1617E+01  0.5403E+02
     21.470  0.1473E+01  0.5425E+02
     21.616  0.1582E+01  0.5447E+02
     21.761  0.1778E+01  0.5471E+02
     21.906  0.1852E+01  0.5498E+02
     22.052  0.1605E+01  0.5523E+02
     22.197  0.1546E+01  0.5546E+02
     22.342  0.1517E+01  0.5569E+02
     22.488  0.1232E+01  0.5588E+02
     22.633  0.1229E+01  0.5606E+02
     22.778  0.1287E+01  0.5624E+02
     22.924  0.1730E+01  0.5645E+02
     23.069  0.1950E+01  0.5673E+02
     23.214  0.2075E+01  0.5703E+02
     23.360  0.1952E+01  0.5733E+02
     23.505  0.1930E+01  0.5761E+02
     23.650  0.1919E+01  0.5790E+02
     23.796  0.1862E+01  0.5817E+02
     23.941  0.1907E+01  0.5844E+02
     24.087  0.2208E+01  0.5875E+02
     24.232  0.2502E+01  0.5909E+02
     24.377  0.2562E+01  0.5946E+02
     24.523  0.2632E+01  0.5984E+02
     24.668  0.2515E+01  0.6022E+02
     24.813  0.2689E+01  0.6059E+02
     24.959  0.3183E+01  0.6102E+02
     25.104  0.3326E+01  0.6149E+02
     25.249  0.3078E+01  0.6197E+02
     25.395  0.3265E+01  0.6242E+02
     25.540  0.3180E+01  0.6289E+02
     25.685  0.3298E+01  0.6338E+02
     25.831  0.3260E+01  0.6384E+02
     25.976  0.2997E+01  0.6431E+02
     26.121  0.2302E+01  0.6471E+02
     26.267  0.2080E+01  0.6503E+02
     26.412  0.2003E+01  0.6532E+02
     26.557  0.2340E+01  0.6563E+02
     26.703  0.2988E+01  0.6601E+02
     26.848  0.3207E+01  0.6647E+02
     26.993  0.3307E+01  0.6694E+02
     27.139  0.3337E+01  0.6742E+02
     27.284  0.2850E+01  0.6786E+02
     27.429  0.2364E+01  0.6824E+02
     27.575  0.2314E+01  0.6857E+02
     27.720  0.2199E+01  0.6891E+02
     27.865  0.1991E+01  0.6921E+02
     28.011  0.1456E+01  0.6947E+02
     28.156  0.1097E+01  0.6964E+02
     28.302  0.8627E+00  0.6978E+02
     28.447  0.7475E+00  0.6990E+02
     28.592  0.8303E+00  0.7001E+02
     28.738  0.1243E+01  0.7017E+02
     28.883  0.1385E+01  0.7036E+02
     29.028  0.1634E+01  0.7058E+02
     29.174  0.1857E+01  0.7083E+02
     29.319  0.1626E+01  0.7109E+02
     29.464  0.1926E+01  0.7135E+02
     29.610  0.2127E+01  0.7166E+02
     29.755  0.2682E+01  0.7200E+02
     29.900  0.2782E+01  0.7238E+02
     30.046  0.3002E+01  0.7281E+02
     30.191  0.2888E+01  0.7324E+02
     30.336  0.3045E+01  0.7367E+02
     30.482  0.3097E+01  0.7413E+02
     30.627  0.2671E+01  0.7453E+02
     30.772  0.2961E+01  0.7494E+02
     30.918  0.2822E+01  0.7538E+02
     31.063  0.2549E+01  0.7577E+02
     31.208  0.2230E+01  0.7612E+02
     31.354  0.1843E+01  0.7641E+02
     31.499  0.2059E+01  0.7670E+02
     31.644  0.2124E+01  0.7700E+02
     31.790  0.2106E+01  0.7730E+02
     31.935  0.1541E+01  0.7756E+02
     32.080  0.1429E+01  0.7777E+02
     32.226  0.1256E+01  0.7796E+02
     32.371  0.1338E+01  0.7815E+02
     32.517  0.1156E+01  0.7834E+02
     32.662  0.1037E+01  0.7850E+02
     32.807  0.9740E+00  0.7864E+02
     32.953  0.8721E+00  0.7878E+02
     33.098  0.7852E+00  0.7890E+02
     33.243  0.6595E+00  0.7900E+02
     33.389  0.6194E+00  0.7909E+02
     33.534  0.5868E+00  0.7918E+02
     33.679  0.5474E+00  0.7926E+02
     33.825  0.5623E+00  0.7934E+02
     33.970  0.5318E+00  0.7942E+02
     34.115  0.4726E+00  0.7950E+02
     34.261  0.4557E+00  0.7956E+02
     34.406  0.3917E+00  0.7962E+02
     34.551  0.3633E+00  0.7968E+02
     34.697  0.3566E+00  0.7973E+02
     34.842  0.3429E+00  0.7978E+02
     34.987  0.2909E+00  0.7983E+02
     35.133  0.1698E+00  0.7986E+02
     35.278  0.1429E+00  0.7988E+02
     35.423  0.1224E+00  0.7990E+02
     35.569  0.1036E+00  0.7992E+02
     35.714  0.8841E-01  0.7993E+02
     35.859  0.7675E-01  0.7994E+02
     36.005  0.6916E-01  0.7995E+02
     36.150  0.6174E-01  0.7996E+02
     36.295  0.5447E-01  0.7997E+02
     36.441  0.4736E-01  0.7998E+02
     36.586  0.3740E-01  0.7998E+02
     36.732  0.2777E-01  0.7999E+02
     36.877  0.1907E-01  0.7999E+02
     37.022  0.1134E-01  0.7999E+02
     37.168  0.4450E-02  0.7999E+02
     37.313  0.3932E-02  0.8000E+02
     37.458  0.3788E-02  0.8000E+02
     37.604  0.3646E-02  0.8000E+02
     37.749  0.3507E-02  0.8000E+02
     37.894  0.3370E-02  0.8000E+02
     38.040  0.3235E-02  0.8000E+02
     38.185  0.3103E-02  0.8000E+02
     38.330  0.2973E-02  0.8000E+02
     38.476  0.2845E-02  0.8000E+02
     38.621  0.2720E-02  0.8000E+02
     38.766  0.2597E-02  0.8000E+02
     38.912  0.0000E+00  0.8000E+02
     39.057  0.0000E+00  0.8000E+02
     39.202  0.0000E+00  0.8000E+02
     39.348  0.0000E+00  0.8000E+02
     39.493  0.0000E+00  0.8000E+02
     39.638  0.0000E+00  0.8000E+02
     39.784  0.0000E+00  0.8000E+02
     39.929  0.0000E+00  0.8000E+02
     40.074  0.0000E+00  0.8000E+02
     40.220  0.0000E+00  0.8000E+02
     40.365  0.0000E+00  0.8000E+02
     40.510  0.0000E+00  0.8000E+02
     40.656  0.0000E+00  0.8000E+02
     40.801  0.0000E+00  0.8000E+02
