  64  64   0   0
  0.1435566E+02  0.1091204E-08  0.1091204E-08  0.1091204E-08  0.5000000E-15
  1.000000000000000E-004
  CAR 
 Ir_Ru                                   
     15.34888106     -1.54137253  301      9.61474104      1.00000000
     -1.541  0.0000E+00  0.0000E+00
     -1.485  0.0000E+00  0.0000E+00
     -1.429  0.0000E+00  0.0000E+00
     -1.372 -0.6698E-30 -0.3771E-31
     -1.316 -0.5272E-26 -0.2969E-27
     -1.260 -0.2190E-22 -0.1233E-23
     -1.204 -0.4796E-19 -0.2701E-20
     -1.147 -0.5530E-16 -0.3116E-17
     -1.091 -0.3244E-13 -0.1829E-14
     -1.035 -0.1023E-10 -0.5778E-12
     -0.978 -0.1682E-08 -0.9527E-10
     -0.922 -0.1432E-06 -0.8155E-08
     -0.866 -0.6239E-05 -0.3594E-06
     -0.809 -0.1367E-03 -0.8055E-05
     -0.753 -0.1458E-02 -0.9014E-04
     -0.697 -0.7204E-02 -0.4957E-03
     -0.641 -0.1571E-01 -0.1380E-02
     -0.584 -0.1091E-01 -0.1994E-02
     -0.528  0.1096E+00  0.4175E-02
     -0.472  0.7034E+00  0.4378E-01
     -0.415  0.1538E+01  0.1304E+00
     -0.359  0.1433E+01  0.2110E+00
     -0.303  0.9644E+00  0.2653E+00
     -0.246  0.1506E+01  0.3501E+00
     -0.190  0.2926E+01  0.5149E+00
     -0.134  0.4114E+01  0.7465E+00
     -0.078  0.2953E+01  0.9128E+00
     -0.021  0.8311E+00  0.9596E+00
      0.035  0.8283E+00  0.1006E+01
      0.091  0.3344E+01  0.1194E+01
      0.148  0.5719E+01  0.1516E+01
      0.204  0.4705E+01  0.1781E+01
      0.260  0.3228E+01  0.1963E+01
      0.317  0.3898E+01  0.2183E+01
      0.373  0.4690E+01  0.2447E+01
      0.429  0.3495E+01  0.2643E+01
      0.485  0.1273E+01  0.2715E+01
      0.542  0.1874E+01  0.2821E+01
      0.598  0.6525E+01  0.3188E+01
      0.654  0.9890E+01  0.3745E+01
      0.711  0.6661E+01  0.4120E+01
      0.767  0.3713E+01  0.4329E+01
      0.823  0.5482E+01  0.4637E+01
      0.880  0.6715E+01  0.5016E+01
      0.936  0.4719E+01  0.5281E+01
      0.992  0.1877E+01  0.5387E+01
      1.048  0.2780E+01  0.5543E+01
      1.105  0.7556E+01  0.5969E+01
      1.161  0.1047E+02  0.6558E+01
      1.217  0.1090E+02  0.7172E+01
      1.274  0.1037E+02  0.7756E+01
      1.330  0.8295E+01  0.8223E+01
      1.386  0.5910E+01  0.8555E+01
      1.443  0.6120E+01  0.8900E+01
      1.499  0.7638E+01  0.9330E+01
      1.555  0.6707E+01  0.9707E+01
      1.611  0.5339E+01  0.1001E+02
      1.668  0.7906E+01  0.1045E+02
      1.724  0.1367E+02  0.1122E+02
      1.780  0.1788E+02  0.1223E+02
      1.837  0.1778E+02  0.1323E+02
      1.893  0.1534E+02  0.1409E+02
      1.949  0.1271E+02  0.1481E+02
      2.006  0.1162E+02  0.1546E+02
      2.062  0.1187E+02  0.1613E+02
      2.118  0.1606E+02  0.1704E+02
      2.174  0.2605E+02  0.1850E+02
      2.231  0.3241E+02  0.2033E+02
      2.287  0.3486E+02  0.2229E+02
      2.343  0.4149E+02  0.2463E+02
      2.400  0.4161E+02  0.2697E+02
      2.456  0.3312E+02  0.2883E+02
      2.512  0.2765E+02  0.3039E+02
      2.569  0.2221E+02  0.3164E+02
      2.625  0.2134E+02  0.3284E+02
      2.681  0.3099E+02  0.3459E+02
      2.737  0.3961E+02  0.3682E+02
      2.794  0.4398E+02  0.3929E+02
      2.850  0.5446E+02  0.4236E+02
      2.906  0.6452E+02  0.4599E+02
      2.963  0.6312E+02  0.4955E+02
      3.019  0.5933E+02  0.5289E+02
      3.075  0.7051E+02  0.5686E+02
      3.132  0.8940E+02  0.6189E+02
      3.188  0.1007E+03  0.6756E+02
      3.244  0.9995E+02  0.7319E+02
      3.301  0.9234E+02  0.7839E+02
      3.357  0.8993E+02  0.8345E+02
      3.413  0.9028E+02  0.8853E+02
      3.469  0.8812E+02  0.9349E+02
      3.526  0.8518E+02  0.9829E+02
      3.582  0.8754E+02  0.1032E+03
      3.638  0.9205E+02  0.1084E+03
      3.695  0.8770E+02  0.1133E+03
      3.751  0.7790E+02  0.1177E+03
      3.807  0.7727E+02  0.1221E+03
      3.864  0.8361E+02  0.1268E+03
      3.920  0.7558E+02  0.1310E+03
      3.976  0.6109E+02  0.1345E+03
      4.032  0.6907E+02  0.1384E+03
      4.089  0.8281E+02  0.1430E+03
      4.145  0.7625E+02  0.1473E+03
      4.201  0.6238E+02  0.1508E+03
      4.258  0.5167E+02  0.1537E+03
      4.314  0.5040E+02  0.1566E+03
      4.370  0.6140E+02  0.1600E+03
      4.427  0.6662E+02  0.1638E+03
      4.483  0.5867E+02  0.1671E+03
      4.539  0.4987E+02  0.1699E+03
      4.595  0.4830E+02  0.1726E+03
      4.652  0.5699E+02  0.1758E+03
      4.708  0.7322E+02  0.1799E+03
      4.764  0.8874E+02  0.1849E+03
      4.821  0.8741E+02  0.1899E+03
      4.877  0.6602E+02  0.1936E+03
      4.933  0.5604E+02  0.1967E+03
      4.990  0.6428E+02  0.2004E+03
      5.046  0.7142E+02  0.2044E+03
      5.102  0.7320E+02  0.2085E+03
      5.158  0.7483E+02  0.2127E+03
      5.215  0.7977E+02  0.2172E+03
      5.271  0.8373E+02  0.2219E+03
      5.327  0.8525E+02  0.2267E+03
      5.384  0.8781E+02  0.2317E+03
      5.440  0.8138E+02  0.2362E+03
      5.496  0.6681E+02  0.2400E+03
      5.553  0.6115E+02  0.2434E+03
      5.609  0.7150E+02  0.2475E+03
      5.665  0.9630E+02  0.2529E+03
      5.721  0.1133E+03  0.2593E+03
      5.778  0.1046E+03  0.2652E+03
      5.834  0.7862E+02  0.2696E+03
      5.890  0.6040E+02  0.2730E+03
      5.947  0.6173E+02  0.2765E+03
      6.003  0.6881E+02  0.2803E+03
      6.059  0.7358E+02  0.2845E+03
      6.116  0.8015E+02  0.2890E+03
      6.172  0.9952E+02  0.2946E+03
      6.228  0.1179E+03  0.3012E+03
      6.284  0.1137E+03  0.3076E+03
      6.341  0.1071E+03  0.3137E+03
      6.397  0.1124E+03  0.3200E+03
      6.453  0.1099E+03  0.3262E+03
      6.510  0.1065E+03  0.3322E+03
      6.566  0.1161E+03  0.3387E+03
      6.622  0.1388E+03  0.3465E+03
      6.679  0.1485E+03  0.3549E+03
      6.735  0.1213E+03  0.3617E+03
      6.791  0.9014E+02  0.3668E+03
      6.847  0.8032E+02  0.3713E+03
      6.904  0.7820E+02  0.3757E+03
      6.960  0.7841E+02  0.3801E+03
      7.016  0.8204E+02  0.3847E+03
      7.073  0.8834E+02  0.3897E+03
      7.129  0.8902E+02  0.3947E+03
      7.185  0.7018E+02  0.3987E+03
      7.242  0.5606E+02  0.4018E+03
      7.298  0.6664E+02  0.4056E+03
      7.354  0.6663E+02  0.4093E+03
      7.410  0.5767E+02  0.4126E+03
      7.467  0.6581E+02  0.4163E+03
      7.523  0.7008E+02  0.4202E+03
      7.579  0.6149E+02  0.4237E+03
      7.636  0.5665E+02  0.4269E+03
      7.692  0.5861E+02  0.4302E+03
      7.748  0.6308E+02  0.4337E+03
      7.805  0.6880E+02  0.4376E+03
      7.861  0.7728E+02  0.4420E+03
      7.917  0.8130E+02  0.4465E+03
      7.973  0.7062E+02  0.4505E+03
      8.030  0.6871E+02  0.4544E+03
      8.086  0.8695E+02  0.4593E+03
      8.142  0.9284E+02  0.4645E+03
      8.199  0.7917E+02  0.4690E+03
      8.255  0.7669E+02  0.4733E+03
      8.311  0.7974E+02  0.4778E+03
      8.368  0.7213E+02  0.4818E+03
      8.424  0.6409E+02  0.4854E+03
      8.480  0.5636E+02  0.4886E+03
      8.536  0.4824E+02  0.4913E+03
      8.593  0.4800E+02  0.4940E+03
      8.649  0.5413E+02  0.4971E+03
      8.705  0.6934E+02  0.5010E+03
      8.762  0.8278E+02  0.5056E+03
      8.818  0.8233E+02  0.5103E+03
      8.874  0.8292E+02  0.5150E+03
      8.931  0.8737E+02  0.5199E+03
      8.987  0.8259E+02  0.5245E+03
      9.043  0.7248E+02  0.5286E+03
      9.099  0.6053E+02  0.5320E+03
      9.156  0.4850E+02  0.5347E+03
      9.212  0.3729E+02  0.5368E+03
      9.268  0.3220E+02  0.5387E+03
      9.325  0.4294E+02  0.5411E+03
      9.381  0.5587E+02  0.5442E+03
      9.437  0.5632E+02  0.5474E+03
      9.494  0.5388E+02  0.5504E+03
      9.550  0.6583E+02  0.5541E+03
      9.606  0.8937E+02  0.5592E+03
      9.662  0.9731E+02  0.5646E+03
      9.719  0.8369E+02  0.5694E+03
      9.775  0.6538E+02  0.5730E+03
      9.831  0.5359E+02  0.5760E+03
      9.888  0.4583E+02  0.5786E+03
      9.944  0.4038E+02  0.5809E+03
     10.000  0.4627E+02  0.5835E+03
     10.057  0.5936E+02  0.5868E+03
     10.113  0.6697E+02  0.5906E+03
     10.169  0.8010E+02  0.5951E+03
     10.226  0.9672E+02  0.6006E+03
     10.282  0.9869E+02  0.6061E+03
     10.338  0.9760E+02  0.6116E+03
     10.394  0.9784E+02  0.6171E+03
     10.451  0.9373E+02  0.6224E+03
     10.507  0.9522E+02  0.6278E+03
     10.563  0.1021E+03  0.6335E+03
     10.620  0.1014E+03  0.6392E+03
     10.676  0.9285E+02  0.6445E+03
     10.732  0.8600E+02  0.6493E+03
     10.789  0.8638E+02  0.6542E+03
     10.845  0.8864E+02  0.6592E+03
     10.901  0.7863E+02  0.6636E+03
     10.957  0.5511E+02  0.6667E+03
     11.014  0.3479E+02  0.6686E+03
     11.070  0.2606E+02  0.6701E+03
     11.126  0.2122E+02  0.6713E+03
     11.183  0.1539E+02  0.6722E+03
     11.239  0.9458E+01  0.6727E+03
     11.295  0.4271E+01  0.6729E+03
     11.352  0.2113E+01  0.6731E+03
     11.408  0.2567E+01  0.6732E+03
     11.464  0.3440E+01  0.6734E+03
     11.520  0.3436E+01  0.6736E+03
     11.577  0.2668E+01  0.6737E+03
     11.633  0.3070E+01  0.6739E+03
     11.689  0.4862E+01  0.6742E+03
     11.746  0.5841E+01  0.6745E+03
     11.802  0.5092E+01  0.6748E+03
     11.858  0.4010E+01  0.6750E+03
     11.915  0.2896E+01  0.6752E+03
     11.971  0.2208E+01  0.6753E+03
     12.027  0.2561E+01  0.6755E+03
     12.083  0.2836E+01  0.6756E+03
     12.140  0.2323E+01  0.6758E+03
     12.196  0.1629E+01  0.6758E+03
     12.252  0.1142E+01  0.6759E+03
     12.309  0.1233E+01  0.6760E+03
     12.365  0.1892E+01  0.6761E+03
     12.421  0.2186E+01  0.6762E+03
     12.478  0.2144E+01  0.6763E+03
     12.534  0.2918E+01  0.6765E+03
     12.590  0.3764E+01  0.6767E+03
     12.646  0.3882E+01  0.6769E+03
     12.703  0.4210E+01  0.6772E+03
     12.759  0.4529E+01  0.6774E+03
     12.815  0.4117E+01  0.6777E+03
     12.872  0.3389E+01  0.6778E+03
     12.928  0.2939E+01  0.6780E+03
     12.984  0.2906E+01  0.6782E+03
     13.041  0.3008E+01  0.6783E+03
     13.097  0.3184E+01  0.6785E+03
     13.153  0.3310E+01  0.6787E+03
     13.209  0.2896E+01  0.6789E+03
     13.266  0.2168E+01  0.6790E+03
     13.322  0.1794E+01  0.6791E+03
     13.378  0.1608E+01  0.6792E+03
     13.435  0.1356E+01  0.6793E+03
     13.491  0.7484E+00  0.6793E+03
     13.547  0.3793E+00  0.6793E+03
     13.604  0.1202E+01  0.6794E+03
     13.660  0.2390E+01  0.6795E+03
     13.716  0.2340E+01  0.6797E+03
     13.772  0.1614E+01  0.6797E+03
     13.829  0.1265E+01  0.6798E+03
     13.885  0.8037E+00  0.6799E+03
     13.941  0.1876E+00  0.6799E+03
     13.998 -0.1911E-01  0.6799E+03
     14.054  0.2438E+00  0.6799E+03
     14.110  0.5074E+00  0.6799E+03
     14.167  0.3279E+00  0.6799E+03
     14.223  0.2740E-01  0.6799E+03
     14.279  0.6075E-01  0.6799E+03
     14.335  0.3835E+00  0.6800E+03
     14.392  0.4999E+00  0.6800E+03
     14.448  0.2224E+00  0.6800E+03
     14.504  0.1011E-02  0.6800E+03
     14.561 -0.2250E-01  0.6800E+03
     14.617 -0.5531E-02  0.6800E+03
     14.673 -0.5395E-03  0.6800E+03
     14.730 -0.2487E-04  0.6800E+03
     14.786 -0.5721E-06  0.6800E+03
     14.842 -0.6726E-08  0.6800E+03
     14.898 -0.4092E-10  0.6800E+03
     14.955 -0.1297E-12  0.6800E+03
     15.011 -0.2524E-15  0.6800E+03
     15.067  0.0000E+00  0.6800E+03
     15.124  0.0000E+00  0.6800E+03
     15.180  0.0000E+00  0.6800E+03
     15.236  0.0000E+00  0.6800E+03
     15.293  0.0000E+00  0.6800E+03
     15.349  0.0000E+00  0.6800E+03
