 256 256   0   0
  0.1418917E+02  0.1588033E-08  0.1692661E-08  0.1693229E-08  0.5000000E-15
  1.000000000000000E-004
  CAR 
 Ir_Ru                                   
     14.27627410     -1.29165653  301      9.45695586      1.00000000
     -1.292  0.0000E+00  0.0000E+00
     -1.240  0.0000E+00  0.0000E+00
     -1.188  0.0000E+00  0.0000E+00
     -1.136 -0.2797E-30 -0.1451E-31
     -1.084 -0.1282E-26 -0.6652E-28
     -1.032 -0.3413E-23 -0.1772E-24
     -0.980 -0.5278E-20 -0.2741E-21
     -0.928 -0.4736E-17 -0.2460E-18
     -0.877 -0.2404E-14 -0.1250E-15
     -0.825 -0.7162E-12 -0.3729E-13
     -0.773 -0.1237E-09 -0.6456E-11
     -0.721 -0.1229E-07 -0.6441E-09
     -0.669 -0.6994E-06 -0.3694E-07
     -0.617 -0.2268E-04 -0.1214E-05
     -0.565 -0.4159E-03 -0.2280E-04
     -0.513 -0.4272E-02 -0.2445E-03
     -0.461 -0.2432E-01 -0.1506E-02
     -0.409 -0.7520E-01 -0.5409E-02
     -0.358 -0.1019E+00 -0.1070E-01
     -0.306  0.2063E+00  0.1249E-04
     -0.254  0.1641E+01  0.8517E-01
     -0.202  0.4401E+01  0.3135E+00
     -0.150  0.6355E+01  0.6433E+00
     -0.098  0.6422E+01  0.9766E+00
     -0.046  0.6962E+01  0.1338E+01
      0.006  0.8859E+01  0.1798E+01
      0.058  0.1118E+02  0.2378E+01
      0.109  0.1361E+02  0.3084E+01
      0.161  0.1434E+02  0.3828E+01
      0.213  0.1170E+02  0.4435E+01
      0.265  0.1006E+02  0.4957E+01
      0.317  0.1426E+02  0.5697E+01
      0.369  0.2033E+02  0.6753E+01
      0.421  0.2251E+02  0.7921E+01
      0.473  0.2270E+02  0.9099E+01
      0.525  0.2350E+02  0.1032E+02
      0.576  0.2251E+02  0.1149E+02
      0.628  0.2043E+02  0.1255E+02
      0.680  0.2099E+02  0.1364E+02
      0.732  0.2039E+02  0.1469E+02
      0.784  0.1461E+02  0.1545E+02
      0.836  0.8897E+01  0.1591E+02
      0.888  0.8056E+01  0.1633E+02
      0.940  0.1174E+02  0.1694E+02
      0.992  0.1895E+02  0.1792E+02
      1.044  0.2787E+02  0.1937E+02
      1.095  0.3332E+02  0.2110E+02
      1.147  0.3303E+02  0.2281E+02
      1.199  0.2880E+02  0.2431E+02
      1.251  0.2283E+02  0.2549E+02
      1.303  0.1948E+02  0.2650E+02
      1.355  0.2168E+02  0.2763E+02
      1.407  0.2716E+02  0.2904E+02
      1.459  0.3034E+02  0.3061E+02
      1.511  0.2984E+02  0.3216E+02
      1.562  0.2935E+02  0.3368E+02
      1.614  0.3042E+02  0.3526E+02
      1.666  0.3113E+02  0.3688E+02
      1.718  0.3205E+02  0.3854E+02
      1.770  0.3503E+02  0.4036E+02
      1.822  0.3906E+02  0.4239E+02
      1.874  0.4541E+02  0.4474E+02
      1.926  0.5461E+02  0.4758E+02
      1.978  0.5935E+02  0.5066E+02
      2.030  0.5481E+02  0.5350E+02
      2.081  0.5055E+02  0.5612E+02
      2.133  0.6156E+02  0.5932E+02
      2.185  0.8680E+02  0.6382E+02
      2.237  0.1086E+03  0.6946E+02
      2.289  0.1196E+03  0.7567E+02
      2.341  0.1257E+03  0.8219E+02
      2.393  0.1315E+03  0.8902E+02
      2.445  0.1375E+03  0.9615E+02
      2.497  0.1472E+03  0.1038E+03
      2.548  0.1644E+03  0.1123E+03
      2.600  0.1829E+03  0.1218E+03
      2.652  0.1948E+03  0.1319E+03
      2.704  0.2065E+03  0.1426E+03
      2.756  0.2235E+03  0.1542E+03
      2.808  0.2307E+03  0.1662E+03
      2.860  0.2246E+03  0.1779E+03
      2.912  0.2275E+03  0.1897E+03
      2.964  0.2451E+03  0.2024E+03
      3.015  0.2580E+03  0.2158E+03
      3.067  0.2603E+03  0.2293E+03
      3.119  0.2608E+03  0.2428E+03
      3.171  0.2641E+03  0.2565E+03
      3.223  0.2730E+03  0.2707E+03
      3.275  0.2882E+03  0.2856E+03
      3.327  0.3076E+03  0.3016E+03
      3.379  0.3246E+03  0.3184E+03
      3.431  0.3310E+03  0.3356E+03
      3.483  0.3279E+03  0.3526E+03
      3.534  0.3215E+03  0.3693E+03
      3.586  0.3183E+03  0.3858E+03
      3.638  0.3166E+03  0.4023E+03
      3.690  0.3110E+03  0.4184E+03
      3.742  0.3050E+03  0.4342E+03
      3.794  0.3010E+03  0.4499E+03
      3.846  0.2968E+03  0.4653E+03
      3.898  0.2932E+03  0.4805E+03
      3.950  0.2885E+03  0.4954E+03
      4.001  0.2761E+03  0.5098E+03
      4.053  0.2665E+03  0.5236E+03
      4.105  0.2756E+03  0.5379E+03
      4.157  0.2942E+03  0.5532E+03
      4.209  0.3028E+03  0.5689E+03
      4.261  0.3051E+03  0.5847E+03
      4.313  0.3121E+03  0.6009E+03
      4.365  0.3187E+03  0.6175E+03
      4.417  0.3213E+03  0.6341E+03
      4.468  0.3237E+03  0.6509E+03
      4.520  0.3211E+03  0.6676E+03
      4.572  0.3096E+03  0.6836E+03
      4.624  0.2972E+03  0.6991E+03
      4.676  0.2936E+03  0.7143E+03
      4.728  0.2982E+03  0.7298E+03
      4.780  0.3058E+03  0.7456E+03
      4.832  0.3177E+03  0.7621E+03
      4.884  0.3314E+03  0.7793E+03
      4.936  0.3378E+03  0.7969E+03
      4.987  0.3452E+03  0.8148E+03
      5.039  0.3583E+03  0.8334E+03
      5.091  0.3657E+03  0.8524E+03
      5.143  0.3642E+03  0.8713E+03
      5.195  0.3550E+03  0.8897E+03
      5.247  0.3345E+03  0.9070E+03
      5.299  0.3021E+03  0.9227E+03
      5.351  0.2611E+03  0.9363E+03
      5.403  0.2178E+03  0.9476E+03
      5.454  0.1840E+03  0.9571E+03
      5.506  0.1724E+03  0.9661E+03
      5.558  0.1894E+03  0.9759E+03
      5.610  0.2279E+03  0.9877E+03
      5.662  0.2765E+03  0.1002E+04
      5.714  0.3264E+03  0.1019E+04
      5.766  0.3679E+03  0.1038E+04
      5.818  0.3950E+03  0.1059E+04
      5.870  0.4102E+03  0.1080E+04
      5.921  0.4192E+03  0.1102E+04
      5.973  0.4259E+03  0.1124E+04
      6.025  0.4282E+03  0.1146E+04
      6.077  0.4163E+03  0.1168E+04
      6.129  0.3918E+03  0.1188E+04
      6.181  0.3718E+03  0.1207E+04
      6.233  0.3612E+03  0.1226E+04
      6.285  0.3554E+03  0.1244E+04
      6.337  0.3564E+03  0.1263E+04
      6.389  0.3692E+03  0.1282E+04
      6.440  0.3819E+03  0.1302E+04
      6.492  0.3844E+03  0.1322E+04
      6.544  0.3918E+03  0.1342E+04
      6.596  0.4099E+03  0.1363E+04
      6.648  0.4240E+03  0.1385E+04
      6.700  0.4282E+03  0.1408E+04
      6.752  0.4253E+03  0.1430E+04
      6.804  0.4132E+03  0.1451E+04
      6.856  0.3920E+03  0.1471E+04
      6.907  0.3734E+03  0.1491E+04
      6.959  0.3666E+03  0.1510E+04
      7.011  0.3638E+03  0.1529E+04
      7.063  0.3682E+03  0.1548E+04
      7.115  0.3915E+03  0.1568E+04
      7.167  0.4149E+03  0.1590E+04
      7.219  0.4222E+03  0.1612E+04
      7.271  0.4222E+03  0.1634E+04
      7.323  0.4132E+03  0.1655E+04
      7.374  0.3878E+03  0.1675E+04
      7.426  0.3587E+03  0.1694E+04
      7.478  0.3402E+03  0.1711E+04
      7.530  0.3327E+03  0.1729E+04
      7.582  0.3287E+03  0.1746E+04
      7.634  0.3168E+03  0.1762E+04
      7.686  0.2953E+03  0.1777E+04
      7.738  0.2772E+03  0.1792E+04
      7.790  0.2686E+03  0.1806E+04
      7.842  0.2638E+03  0.1819E+04
      7.893  0.2575E+03  0.1833E+04
      7.945  0.2482E+03  0.1846E+04
      7.997  0.2427E+03  0.1858E+04
      8.049  0.2431E+03  0.1871E+04
      8.101  0.2392E+03  0.1883E+04
      8.153  0.2313E+03  0.1895E+04
      8.205  0.2290E+03  0.1907E+04
      8.257  0.2334E+03  0.1919E+04
      8.309  0.2378E+03  0.1932E+04
      8.360  0.2392E+03  0.1944E+04
      8.412  0.2369E+03  0.1956E+04
      8.464  0.2287E+03  0.1968E+04
      8.516  0.2184E+03  0.1980E+04
      8.568  0.2120E+03  0.1991E+04
      8.620  0.2071E+03  0.2001E+04
      8.672  0.1997E+03  0.2012E+04
      8.724  0.1913E+03  0.2022E+04
      8.776  0.1832E+03  0.2031E+04
      8.827  0.1796E+03  0.2040E+04
      8.879  0.1883E+03  0.2050E+04
      8.931  0.2132E+03  0.2061E+04
      8.983  0.2355E+03  0.2073E+04
      9.035  0.2363E+03  0.2086E+04
      9.087  0.2233E+03  0.2097E+04
      9.139  0.2062E+03  0.2108E+04
      9.191  0.1870E+03  0.2118E+04
      9.243  0.1790E+03  0.2127E+04
      9.295  0.1976E+03  0.2137E+04
      9.346  0.2285E+03  0.2149E+04
      9.398  0.2431E+03  0.2162E+04
      9.450  0.2430E+03  0.2174E+04
      9.502  0.2450E+03  0.2187E+04
      9.554  0.2443E+03  0.2200E+04
      9.606  0.2463E+03  0.2213E+04
      9.658  0.2748E+03  0.2227E+04
      9.710  0.3178E+03  0.2243E+04
      9.762  0.3355E+03  0.2261E+04
      9.813  0.3262E+03  0.2278E+04
      9.865  0.3165E+03  0.2294E+04
      9.917  0.3154E+03  0.2310E+04
      9.969  0.3219E+03  0.2327E+04
     10.021  0.3434E+03  0.2345E+04
     10.073  0.3801E+03  0.2365E+04
     10.125  0.4130E+03  0.2386E+04
     10.177  0.4285E+03  0.2408E+04
     10.229  0.4363E+03  0.2431E+04
     10.281  0.4489E+03  0.2454E+04
     10.332  0.4676E+03  0.2479E+04
     10.384  0.4864E+03  0.2504E+04
     10.436  0.4973E+03  0.2530E+04
     10.488  0.4897E+03  0.2555E+04
     10.540  0.4518E+03  0.2578E+04
     10.592  0.3909E+03  0.2599E+04
     10.644  0.3218E+03  0.2615E+04
     10.696  0.2382E+03  0.2628E+04
     10.748  0.1374E+03  0.2635E+04
     10.799  0.4874E+02  0.2637E+04
     10.851  0.3024E+01  0.2638E+04
     10.903 -0.5672E+01  0.2637E+04
     10.955 -0.2655E+01  0.2637E+04
     11.007 -0.5824E+00  0.2637E+04
     11.059 -0.7777E-01  0.2637E+04
     11.111 -0.7179E-02  0.2637E+04
     11.163 -0.4734E-03  0.2637E+04
     11.215 -0.2099E-04  0.2637E+04
     11.266 -0.5797E-06  0.2637E+04
     11.318 -0.9529E-08  0.2637E+04
     11.370 -0.1223E-09  0.2637E+04
     11.422 -0.3852E-08  0.2637E+04
     11.474 -0.2747E-06  0.2637E+04
     11.526 -0.1111E-04  0.2637E+04
     11.578 -0.2512E-03  0.2637E+04
     11.630 -0.3086E-02  0.2637E+04
     11.682 -0.1926E-01  0.2637E+04
     11.734 -0.4847E-01  0.2637E+04
     11.785  0.3440E-01  0.2637E+04
     11.837  0.4113E+00  0.2637E+04
     11.889  0.8565E+00  0.2637E+04
     11.941  0.1191E+01  0.2637E+04
     11.993  0.1641E+01  0.2637E+04
     12.045  0.1555E+01  0.2637E+04
     12.097  0.7710E+00  0.2637E+04
     12.149  0.7165E+00  0.2637E+04
     12.201  0.1836E+01  0.2638E+04
     12.252  0.3209E+01  0.2638E+04
     12.304  0.3695E+01  0.2638E+04
     12.356  0.2817E+01  0.2638E+04
     12.408  0.1920E+01  0.2638E+04
     12.460  0.1834E+01  0.2638E+04
     12.512  0.1746E+01  0.2638E+04
     12.564  0.2076E+01  0.2638E+04
     12.616  0.3345E+01  0.2639E+04
     12.668  0.4402E+01  0.2639E+04
     12.719  0.4208E+01  0.2639E+04
     12.771  0.2753E+01  0.2639E+04
     12.823  0.1530E+01  0.2639E+04
     12.875  0.1751E+01  0.2639E+04
     12.927  0.2247E+01  0.2640E+04
     12.979  0.1965E+01  0.2640E+04
     13.031  0.1447E+01  0.2640E+04
     13.083  0.9927E+00  0.2640E+04
     13.135  0.6116E+00  0.2640E+04
     13.187  0.7786E+00  0.2640E+04
     13.238  0.1289E+01  0.2640E+04
     13.290  0.1321E+01  0.2640E+04
     13.342  0.7397E+00  0.2640E+04
     13.394  0.1473E+00  0.2640E+04
     13.446 -0.5305E-01  0.2640E+04
     13.498 -0.3475E-01  0.2640E+04
     13.550 -0.7419E-02  0.2640E+04
     13.602 -0.7789E-03  0.2640E+04
     13.654 -0.4391E-04  0.2640E+04
     13.705 -0.1376E-05  0.2640E+04
     13.757 -0.2436E-07  0.2640E+04
     13.809 -0.2462E-09  0.2640E+04
     13.861 -0.1429E-11  0.2640E+04
     13.913 -0.4754E-14  0.2640E+04
     13.965  0.0000E+00  0.2640E+04
     14.017  0.0000E+00  0.2640E+04
     14.069  0.0000E+00  0.2640E+04
     14.121  0.0000E+00  0.2640E+04
     14.172  0.0000E+00  0.2640E+04
     14.224  0.0000E+00  0.2640E+04
     14.276  0.0000E+00  0.2640E+04
