       N       E                     dE             d eps       ncg     rms          rms(c)
RMM:   1     0.136790520908E+05    0.13679E+05   -0.47218E+05 25080   0.725E+02
RMM:   2     0.131335562326E+04   -0.12366E+05   -0.13120E+05 25080   0.260E+02
RMM:   3    -0.104566295444E+04   -0.23590E+04   -0.22855E+04 25080   0.111E+02
RMM:   4    -0.184599563005E+04   -0.80033E+03   -0.57407E+03 25080   0.768E+01
RMM:   5    -0.212910790285E+04   -0.28311E+03   -0.24896E+03 25080   0.451E+01
RMM:   6    -0.227482607126E+04   -0.14572E+03   -0.12952E+03 25080   0.349E+01
RMM:   7    -0.235269020928E+04   -0.77864E+02   -0.73854E+02 25080   0.235E+01
RMM:   8    -0.240018807361E+04   -0.47498E+02   -0.44556E+02 25080   0.195E+01
RMM:   9    -0.247908408655E+04   -0.78896E+02   -0.77976E+02 71897   0.137E+01
RMM:  10    -0.248863349756E+04   -0.95494E+01   -0.11974E+02 79649   0.282E+00
RMM:  11    -0.249087565527E+04   -0.22422E+01   -0.17851E+01 77268   0.687E-01
RMM:  12    -0.249118215123E+04   -0.30650E+00   -0.19848E+00 79538   0.198E-01    0.782E+01
RMM:  13    -0.241365005652E+04    0.77532E+02   -0.68477E+02 57177   0.246E+01    0.583E+01
RMM:  14    -0.236778574498E+04    0.45864E+02   -0.34125E+02 51440   0.174E+01    0.416E+01
RMM:  15    -0.233562392550E+04    0.32162E+02   -0.11846E+02 53328   0.101E+01    0.255E+01
RMM:  16    -0.232131897451E+04    0.14305E+02   -0.25865E+01 56008   0.435E+00    0.437E+00
RMM:  17    -0.232148159459E+04   -0.16262E+00   -0.64526E+00 73619   0.131E+00    0.429E+00
RMM:  18    -0.232112457610E+04    0.35702E+00   -0.11748E+00 64327   0.696E-01    0.340E+00
RMM:  19    -0.232074821822E+04    0.37636E+00   -0.63935E-01 59896   0.733E-01    0.165E+00
RMM:  20    -0.232069252135E+04    0.55697E-01   -0.23821E-01 62850   0.360E-01    0.148E+00
RMM:  21    -0.232065913126E+04    0.33390E-01   -0.10965E-01 62878   0.229E-01    0.122E+00
RMM:  22    -0.232063291909E+04    0.26212E-01   -0.45450E-02 61101   0.156E-01    0.675E-01
RMM:  23    -0.232062825605E+04    0.46630E-02   -0.13409E-02 66137   0.702E-02    0.459E-01
RMM:  24    -0.232062525903E+04    0.29970E-02   -0.10241E-02 63301   0.738E-02    0.237E-01
RMM:  25    -0.232062630894E+04   -0.10499E-02   -0.12434E-02 66084   0.772E-02    0.261E-01
RMM:  26    -0.232062632781E+04   -0.18870E-04   -0.27402E-03 75622   0.255E-02    0.262E-01
RMM:  27    -0.232062544803E+04    0.87979E-03   -0.66136E-04 60221   0.197E-02    0.174E-01
RMM:  28    -0.232062488887E+04    0.55916E-03   -0.11220E-03 63623   0.245E-02    0.688E-02
RMM:  29    -0.232062481269E+04    0.76180E-04   -0.52630E-04 71608   0.140E-02
   1 F= -.23206248E+04 E0= -.23206248E+04  d E =0.178439E-04
