 256 256   0   0
  0.1419206E+02  0.1537080E-08  0.1537218E-08  0.1537636E-08  0.5000000E-15
  1.000000000000000E-004
  CAR 
 Ir_Ru                                   
     12.68548902     -1.29522690  301      9.24213409      1.00000000
     -1.295  0.0000E+00  0.0000E+00
     -1.249  0.0000E+00  0.0000E+00
     -1.202  0.0000E+00  0.0000E+00
     -1.155  0.0000E+00  0.0000E+00
     -1.109 -0.2754E-28 -0.1284E-29
     -1.062 -0.4110E-25 -0.1917E-26
     -1.016 -0.3956E-22 -0.1846E-23
     -0.969 -0.2458E-19 -0.1147E-20
     -0.922 -0.9848E-17 -0.4601E-18
     -0.876 -0.2471E-14 -0.1156E-15
     -0.829 -0.4098E-12 -0.1921E-13
     -0.783 -0.4376E-10 -0.2059E-11
     -0.736 -0.3011E-08 -0.1424E-09
     -0.689 -0.1336E-06 -0.6368E-08
     -0.643 -0.3828E-05 -0.1847E-06
     -0.596 -0.7100E-04 -0.3494E-05
     -0.550 -0.8552E-03 -0.4335E-04
     -0.503 -0.6692E-02 -0.3552E-03
     -0.456 -0.3360E-01 -0.1921E-02
     -0.410 -0.1021E+00 -0.6681E-02
     -0.363 -0.1377E+00 -0.1310E-01
     -0.317  0.2248E+00 -0.2622E-02
     -0.270  0.1511E+01  0.6782E-01
     -0.223  0.3542E+01  0.2329E+00
     -0.177  0.5072E+01  0.4692E+00
     -0.130  0.5734E+01  0.7365E+00
     -0.084  0.7332E+01  0.1078E+01
     -0.037  0.1020E+02  0.1554E+01
      0.010  0.1102E+02  0.2067E+01
      0.056  0.9150E+01  0.2494E+01
      0.103  0.9391E+01  0.2931E+01
      0.149  0.1316E+02  0.3545E+01
      0.196  0.1592E+02  0.4286E+01
      0.243  0.1605E+02  0.5034E+01
      0.289  0.1674E+02  0.5815E+01
      0.336  0.1850E+02  0.6677E+01
      0.382  0.1833E+02  0.7531E+01
      0.429  0.1743E+02  0.8344E+01
      0.476  0.1981E+02  0.9267E+01
      0.522  0.2338E+02  0.1036E+02
      0.569  0.2406E+02  0.1148E+02
      0.615  0.2228E+02  0.1252E+02
      0.662  0.1872E+02  0.1339E+02
      0.709  0.1407E+02  0.1404E+02
      0.755  0.1114E+02  0.1456E+02
      0.802  0.1071E+02  0.1506E+02
      0.848  0.1113E+02  0.1558E+02
      0.895  0.1214E+02  0.1615E+02
      0.942  0.1462E+02  0.1683E+02
      0.988  0.1831E+02  0.1768E+02
      1.035  0.2286E+02  0.1875E+02
      1.081  0.2806E+02  0.2005E+02
      1.128  0.3125E+02  0.2151E+02
      1.175  0.2975E+02  0.2290E+02
      1.221  0.2592E+02  0.2410E+02
      1.268  0.2307E+02  0.2518E+02
      1.315  0.2097E+02  0.2616E+02
      1.361  0.2001E+02  0.2709E+02
      1.408  0.2161E+02  0.2810E+02
      1.454  0.2406E+02  0.2922E+02
      1.501  0.2566E+02  0.3041E+02
      1.548  0.2896E+02  0.3176E+02
      1.594  0.3508E+02  0.3340E+02
      1.641  0.3874E+02  0.3520E+02
      1.687  0.3787E+02  0.3697E+02
      1.734  0.3927E+02  0.3880E+02
      1.781  0.4551E+02  0.4092E+02
      1.827  0.4935E+02  0.4322E+02
      1.874  0.4785E+02  0.4545E+02
      1.920  0.4732E+02  0.4765E+02
      1.967  0.5094E+02  0.5003E+02
      2.014  0.5414E+02  0.5255E+02
      2.060  0.5548E+02  0.5514E+02
      2.107  0.6133E+02  0.5799E+02
      2.153  0.7450E+02  0.6147E+02
      2.200  0.8934E+02  0.6563E+02
      2.247  0.1031E+03  0.7043E+02
      2.293  0.1178E+03  0.7592E+02
      2.340  0.1310E+03  0.8203E+02
      2.386  0.1383E+03  0.8847E+02
      2.433  0.1432E+03  0.9515E+02
      2.480  0.1523E+03  0.1022E+03
      2.526  0.1609E+03  0.1097E+03
      2.573  0.1616E+03  0.1173E+03
      2.619  0.1613E+03  0.1248E+03
      2.666  0.1689E+03  0.1327E+03
      2.713  0.1785E+03  0.1410E+03
      2.759  0.1848E+03  0.1496E+03
      2.806  0.1978E+03  0.1588E+03
      2.852  0.2228E+03  0.1692E+03
      2.899  0.2476E+03  0.1807E+03
      2.946  0.2563E+03  0.1927E+03
      2.992  0.2498E+03  0.2043E+03
      3.039  0.2469E+03  0.2158E+03
      3.085  0.2621E+03  0.2280E+03
      3.132  0.2864E+03  0.2414E+03
      3.179  0.3011E+03  0.2554E+03
      3.225  0.3038E+03  0.2696E+03
      3.272  0.3050E+03  0.2838E+03
      3.318  0.3084E+03  0.2982E+03
      3.365  0.3111E+03  0.3127E+03
      3.412  0.3143E+03  0.3273E+03
      3.458  0.3215E+03  0.3423E+03
      3.505  0.3332E+03  0.3578E+03
      3.551  0.3440E+03  0.3738E+03
      3.598  0.3469E+03  0.3900E+03
      3.645  0.3448E+03  0.4061E+03
      3.691  0.3486E+03  0.4223E+03
      3.738  0.3576E+03  0.4390E+03
      3.784  0.3593E+03  0.4557E+03
      3.831  0.3523E+03  0.4722E+03
      3.878  0.3478E+03  0.4884E+03
      3.924  0.3496E+03  0.5047E+03
      3.971  0.3505E+03  0.5210E+03
      4.017  0.3415E+03  0.5369E+03
      4.064  0.3229E+03  0.5520E+03
      4.111  0.3068E+03  0.5663E+03
      4.157  0.2976E+03  0.5801E+03
      4.204  0.2874E+03  0.5935E+03
      4.250  0.2713E+03  0.6062E+03
      4.297  0.2537E+03  0.6180E+03
      4.344  0.2427E+03  0.6293E+03
      4.390  0.2452E+03  0.6407E+03
      4.437  0.2578E+03  0.6527E+03
      4.483  0.2618E+03  0.6649E+03
      4.530  0.2507E+03  0.6766E+03
      4.577  0.2477E+03  0.6882E+03
      4.623  0.2671E+03  0.7006E+03
      4.670  0.2917E+03  0.7142E+03
      4.716  0.3066E+03  0.7285E+03
      4.763  0.3136E+03  0.7431E+03
      4.810  0.3135E+03  0.7577E+03
      4.856  0.3049E+03  0.7719E+03
      4.903  0.2902E+03  0.7855E+03
      4.949  0.2785E+03  0.7984E+03
      4.996  0.2811E+03  0.8115E+03
      5.043  0.2950E+03  0.8253E+03
      5.089  0.3076E+03  0.8396E+03
      5.136  0.3091E+03  0.8540E+03
      5.183  0.2977E+03  0.8679E+03
      5.229  0.2856E+03  0.8812E+03
      5.276  0.2844E+03  0.8945E+03
      5.322  0.2903E+03  0.9080E+03
      5.369  0.2973E+03  0.9218E+03
      5.416  0.3019E+03  0.9359E+03
      5.462  0.2988E+03  0.9498E+03
      5.509  0.2889E+03  0.9633E+03
      5.555  0.2869E+03  0.9767E+03
      5.602  0.3028E+03  0.9908E+03
      5.649  0.3216E+03  0.1006E+04
      5.695  0.3253E+03  0.1021E+04
      5.742  0.3202E+03  0.1036E+04
      5.788  0.3199E+03  0.1051E+04
      5.835  0.3262E+03  0.1066E+04
      5.882  0.3366E+03  0.1082E+04
      5.928  0.3500E+03  0.1098E+04
      5.975  0.3653E+03  0.1115E+04
      6.021  0.3790E+03  0.1133E+04
      6.068  0.3856E+03  0.1151E+04
      6.115  0.3876E+03  0.1169E+04
      6.161  0.3917E+03  0.1187E+04
      6.208  0.3986E+03  0.1206E+04
      6.254  0.4095E+03  0.1225E+04
      6.301  0.4272E+03  0.1245E+04
      6.348  0.4466E+03  0.1265E+04
      6.394  0.4574E+03  0.1287E+04
      6.441  0.4572E+03  0.1308E+04
      6.487  0.4532E+03  0.1329E+04
      6.534  0.4500E+03  0.1350E+04
      6.581  0.4457E+03  0.1371E+04
      6.627  0.4392E+03  0.1391E+04
      6.674  0.4318E+03  0.1411E+04
      6.720  0.4246E+03  0.1431E+04
      6.767  0.4167E+03  0.1451E+04
      6.814  0.4014E+03  0.1469E+04
      6.860  0.3767E+03  0.1487E+04
      6.907  0.3543E+03  0.1503E+04
      6.953  0.3442E+03  0.1519E+04
      7.000  0.3391E+03  0.1535E+04
      7.047  0.3276E+03  0.1550E+04
      7.093  0.3148E+03  0.1565E+04
      7.140  0.3135E+03  0.1580E+04
      7.186  0.3193E+03  0.1595E+04
      7.233  0.3134E+03  0.1609E+04
      7.280  0.2875E+03  0.1623E+04
      7.326  0.2559E+03  0.1635E+04
      7.373  0.2402E+03  0.1646E+04
      7.419  0.2487E+03  0.1657E+04
      7.466  0.2712E+03  0.1670E+04
      7.513  0.2846E+03  0.1683E+04
      7.559  0.2765E+03  0.1696E+04
      7.606  0.2584E+03  0.1708E+04
      7.652  0.2482E+03  0.1720E+04
      7.699  0.2572E+03  0.1732E+04
      7.746  0.2829E+03  0.1745E+04
      7.792  0.3055E+03  0.1759E+04
      7.839  0.3120E+03  0.1774E+04
      7.885  0.3088E+03  0.1788E+04
      7.932  0.3031E+03  0.1802E+04
      7.979  0.2960E+03  0.1816E+04
      8.025  0.2910E+03  0.1830E+04
      8.072  0.2957E+03  0.1843E+04
      8.118  0.3091E+03  0.1858E+04
      8.165  0.3170E+03  0.1873E+04
      8.212  0.3178E+03  0.1887E+04
      8.258  0.3299E+03  0.1903E+04
      8.305  0.3537E+03  0.1919E+04
      8.351  0.3624E+03  0.1936E+04
      8.398  0.3398E+03  0.1952E+04
      8.445  0.3000E+03  0.1966E+04
      8.491  0.2669E+03  0.1978E+04
      8.538  0.2556E+03  0.1990E+04
      8.584  0.2709E+03  0.2003E+04
      8.631  0.2956E+03  0.2017E+04
      8.678  0.3004E+03  0.2031E+04
      8.724  0.2842E+03  0.2044E+04
      8.771  0.2676E+03  0.2056E+04
      8.817  0.2568E+03  0.2068E+04
      8.864  0.2489E+03  0.2080E+04
      8.911  0.2450E+03  0.2091E+04
      8.957  0.2453E+03  0.2103E+04
      9.004  0.2535E+03  0.2115E+04
      9.051  0.2735E+03  0.2127E+04
      9.097  0.2840E+03  0.2141E+04
      9.144  0.2660E+03  0.2153E+04
      9.190  0.2407E+03  0.2164E+04
      9.237  0.2282E+03  0.2175E+04
      9.284  0.2199E+03  0.2185E+04
      9.330  0.2138E+03  0.2195E+04
      9.377  0.2219E+03  0.2205E+04
      9.423  0.2426E+03  0.2217E+04
      9.470  0.2624E+03  0.2229E+04
      9.517  0.2736E+03  0.2242E+04
      9.563  0.2772E+03  0.2255E+04
      9.610  0.2762E+03  0.2267E+04
      9.656  0.2710E+03  0.2280E+04
      9.703  0.2610E+03  0.2292E+04
      9.750  0.2438E+03  0.2304E+04
      9.796  0.2242E+03  0.2314E+04
      9.843  0.2195E+03  0.2324E+04
      9.889  0.2366E+03  0.2335E+04
      9.936  0.2643E+03  0.2348E+04
      9.983  0.2953E+03  0.2361E+04
     10.029  0.3275E+03  0.2377E+04
     10.076  0.3492E+03  0.2393E+04
     10.122  0.3463E+03  0.2409E+04
     10.169  0.3239E+03  0.2424E+04
     10.216  0.3102E+03  0.2439E+04
     10.262  0.3292E+03  0.2454E+04
     10.309  0.3874E+03  0.2472E+04
     10.355  0.4667E+03  0.2494E+04
     10.402  0.5187E+03  0.2518E+04
     10.449  0.5090E+03  0.2542E+04
     10.495  0.4501E+03  0.2563E+04
     10.542  0.3736E+03  0.2580E+04
     10.588  0.3019E+03  0.2594E+04
     10.635  0.2481E+03  0.2606E+04
     10.682  0.2122E+03  0.2616E+04
     10.728  0.1804E+03  0.2624E+04
     10.775  0.1415E+03  0.2631E+04
     10.821  0.9712E+02  0.2635E+04
     10.868  0.5673E+02  0.2638E+04
     10.915  0.2768E+02  0.2639E+04
     10.961  0.1053E+02  0.2640E+04
     11.008  0.2799E+01  0.2640E+04
     11.054  0.1174E+01  0.2640E+04
     11.101  0.1702E+01  0.2640E+04
     11.148  0.1602E+01  0.2640E+04
     11.194  0.6851E+00  0.2640E+04
     11.241  0.1250E-01  0.2640E+04
     11.287 -0.1128E+00  0.2640E+04
     11.334 -0.4994E-01  0.2640E+04
     11.381 -0.1083E-01  0.2640E+04
     11.427 -0.3482E-02  0.2640E+04
     11.474 -0.1349E-01  0.2640E+04
     11.520 -0.4287E-01  0.2640E+04
     11.567 -0.3425E-01  0.2640E+04
     11.614  0.2069E+00  0.2640E+04
     11.660  0.7246E+00  0.2640E+04
     11.707  0.1026E+01  0.2640E+04
     11.753  0.7134E+00  0.2640E+04
     11.800  0.1982E+00  0.2640E+04
     11.847 -0.3603E-01  0.2640E+04
     11.893 -0.4219E-01  0.2640E+04
     11.940 -0.1296E-01  0.2640E+04
     11.986 -0.2083E-02  0.2640E+04
     12.033 -0.1968E-03  0.2640E+04
     12.080 -0.1139E-04  0.2640E+04
     12.126 -0.4124E-06  0.2640E+04
     12.173 -0.9440E-08  0.2640E+04
     12.219 -0.1376E-09  0.2640E+04
     12.266 -0.1282E-11  0.2640E+04
     12.313 -0.7743E-14  0.2640E+04
     12.359  0.0000E+00  0.2640E+04
     12.406  0.0000E+00  0.2640E+04
     12.452  0.0000E+00  0.2640E+04
     12.499  0.0000E+00  0.2640E+04
     12.546  0.0000E+00  0.2640E+04
     12.592  0.0000E+00  0.2640E+04
     12.639  0.0000E+00  0.2640E+04
     12.685  0.0000E+00  0.2640E+04
