<?xml version="1.0" encoding="ISO-8859-1"?>
<modeling>
 <generator>
  <i name="program" type="string">vasp </i>
  <i name="version" type="string">5.4.1  </i>
  <i name="subversion" type="string">24Jun15 (build Feb 03 2017 16:24:58) complex                          parallel </i>
  <i name="platform" type="string">IFC91_ompi </i>
  <i name="date" type="string">2018 06 30 </i>
  <i name="time" type="string">19:26:10 </i>
 </generator>
 <incar>
  <i type="string" name="SYSTEM"> Ir_Ru</i>
  <i type="int" name="ISTART">     0</i>
  <i type="string" name="PREC">accurate</i>
  <i type="string" name="ALGO"> Fast</i>
  <i type="int" name="ICHARG">     2</i>
  <i type="int" name="NELMIN">     5</i>
  <i type="int" name="IBRION">    -1</i>
  <i name="EDIFFG">      0.00001000</i>
  <i type="int" name="ISIF">     2</i>
  <i type="string" name="LREAL"> AUTO</i>
  <i type="int" name="ISMEAR">     1</i>
  <i name="SIGMA">      0.10000000</i>
  <v type="int" name="KPOINT_BSE">    -1     0     0     0</v>
 </incar>
 <kpoints>
  <generation param="Gamma">
   <v type="int" name="divisions">       4        4        4 </v>
   <v name="usershift">      0.00000000       0.00000000       0.00000000 </v>
   <v name="genvec1">      0.25000000       0.00000000      -0.00000000 </v>
   <v name="genvec2">      0.00000000       0.25000000       0.00000000 </v>
   <v name="genvec3">     -0.00000000      -0.00000000       0.25000000 </v>
   <v name="shift">      0.00000000       0.00000000       0.00000000 </v>
  </generation>
  <varray name="kpointlist" >
   <v>       0.00000000       0.00000000       0.00000000 </v>
   <v>       0.25000000      -0.00000000      -0.00000000 </v>
   <v>       0.50000000      -0.00000000      -0.00000000 </v>
   <v>      -0.00000000       0.25000000       0.00000000 </v>
   <v>       0.25000000       0.25000000      -0.00000000 </v>
   <v>       0.50000000       0.25000000      -0.00000000 </v>
   <v>      -0.25000000       0.25000000       0.00000000 </v>
   <v>      -0.00000000       0.50000000       0.00000000 </v>
   <v>       0.25000000       0.50000000      -0.00000000 </v>
   <v>       0.50000000       0.50000000      -0.00000000 </v>
   <v>      -0.00000000      -0.00000000       0.25000000 </v>
   <v>       0.25000000      -0.00000000       0.25000000 </v>
   <v>       0.50000000      -0.00000000       0.25000000 </v>
   <v>      -0.25000000       0.00000000       0.25000000 </v>
   <v>      -0.00000000       0.25000000       0.25000000 </v>
   <v>       0.25000000       0.25000000       0.25000000 </v>
   <v>       0.50000000       0.25000000       0.25000000 </v>
   <v>      -0.25000000       0.25000000       0.25000000 </v>
   <v>      -0.00000000       0.50000000       0.25000000 </v>
   <v>       0.25000000       0.50000000       0.25000000 </v>
   <v>       0.50000000       0.50000000       0.25000000 </v>
   <v>      -0.25000000       0.50000000       0.25000000 </v>
   <v>       0.00000000      -0.25000000       0.25000000 </v>
   <v>       0.25000000      -0.25000000       0.25000000 </v>
   <v>       0.50000000      -0.25000000       0.25000000 </v>
   <v>      -0.25000000      -0.25000000       0.25000000 </v>
   <v>      -0.00000000      -0.00000000       0.50000000 </v>
   <v>       0.25000000      -0.00000000       0.50000000 </v>
   <v>       0.50000000      -0.00000000       0.50000000 </v>
   <v>      -0.00000000       0.25000000       0.50000000 </v>
   <v>       0.25000000       0.25000000       0.50000000 </v>
   <v>       0.50000000       0.25000000       0.50000000 </v>
   <v>      -0.25000000       0.25000000       0.50000000 </v>
   <v>      -0.00000000       0.50000000       0.50000000 </v>
   <v>       0.25000000       0.50000000       0.50000000 </v>
   <v>       0.50000000       0.50000000       0.50000000 </v>
  </varray>
  <varray name="weights" >
   <v>       0.01562500 </v>
   <v>       0.03125000 </v>
   <v>       0.01562500 </v>
   <v>       0.03125000 </v>
   <v>       0.03125000 </v>
   <v>       0.03125000 </v>
   <v>       0.03125000 </v>
   <v>       0.01562500 </v>
   <v>       0.03125000 </v>
   <v>       0.01562500 </v>
   <v>       0.03125000 </v>
   <v>       0.03125000 </v>
   <v>       0.03125000 </v>
   <v>       0.03125000 </v>
   <v>       0.03125000 </v>
   <v>       0.03125000 </v>
   <v>       0.03125000 </v>
   <v>       0.03125000 </v>
   <v>       0.03125000 </v>
   <v>       0.03125000 </v>
   <v>       0.03125000 </v>
   <v>       0.03125000 </v>
   <v>       0.03125000 </v>
   <v>       0.03125000 </v>
   <v>       0.03125000 </v>
   <v>       0.03125000 </v>
   <v>       0.01562500 </v>
   <v>       0.03125000 </v>
   <v>       0.01562500 </v>
   <v>       0.03125000 </v>
   <v>       0.03125000 </v>
   <v>       0.03125000 </v>
   <v>       0.03125000 </v>
   <v>       0.01562500 </v>
   <v>       0.03125000 </v>
   <v>       0.01562500 </v>
  </varray>
 </kpoints>
 <parameters>
  <separator name="general" >
   <i type="string" name="SYSTEM">Ir_Ru</i>
   <i type="logical" name="LCOMPAT"> F  </i>
  </separator>
  <separator name="electronic" >
   <i type="string" name="PREC">accura</i>
   <i name="ENMAX">    213.27600000</i>
   <i name="ENAUG">    333.49400000</i>
   <i name="EDIFF">      0.00010000</i>
   <i type="int" name="IALGO">    68</i>
   <i type="int" name="IWAVPR">    10</i>
   <i type="int" name="NBANDS">  1320</i>
   <i name="NELECT">   2176.00000000</i>
   <i type="int" name="TURBO">     0</i>
   <i type="int" name="IRESTART">     0</i>
   <i type="int" name="NREBOOT">     0</i>
   <i type="int" name="NMIN">     0</i>
   <i name="EREF">      0.00000000</i>
   <separator name="electronic smearing" >
    <i type="int" name="ISMEAR">     1</i>
    <i name="SIGMA">      0.10000000</i>
    <i name="KSPACING">      0.50000000</i>
    <i type="logical" name="KGAMMA"> T  </i>
   </separator>
   <separator name="electronic projectors" >
    <i type="logical" name="LREAL"> T  </i>
    <v name="ROPT">     -0.00025000     -0.00025000</v>
    <i type="int" name="LMAXPAW">  -100</i>
    <i type="int" name="LMAXMIX">     2</i>
    <i type="logical" name="NLSPLINE"> F  </i>
   </separator>
   <separator name="electronic startup" >
    <i type="int" name="ISTART">     0</i>
    <i type="int" name="ICHARG">     2</i>
    <i type="int" name="INIWAV">     1</i>
   </separator>
   <separator name="electronic spin" >
    <i type="int" name="ISPIN">     1</i>
    <i type="logical" name="LNONCOLLINEAR"> F  </i>
    <v name="MAGMOM">      1.00000000      1.00000000      1.00000000      1.00000000      1.00000000      1.00000000      1.00000000      1.00000000      1.00000000      1.00000000      1.00000000      1.00000000      1.00000000      1.00000000      1.00000000      1.00000000      1.00000000      1.00000000      1.00000000      1.00000000
      1.00000000      1.00000000      1.00000000      1.00000000      1.00000000      1.00000000      1.00000000      1.00000000      1.00000000      1.00000000      1.00000000      1.00000000      1.00000000      1.00000000      1.00000000      1.00000000      1.00000000      1.00000000      1.00000000      1.00000000
      1.00000000      1.00000000      1.00000000      1.00000000      1.00000000      1.00000000      1.00000000      1.00000000      1.00000000      1.00000000      1.00000000      1.00000000      1.00000000      1.00000000      1.00000000      1.00000000      1.00000000      1.00000000      1.00000000      1.00000000
      1.00000000      1.00000000      1.00000000      1.00000000      1.00000000      1.00000000      1.00000000      1.00000000      1.00000000      1.00000000      1.00000000      1.00000000      1.00000000      1.00000000      1.00000000      1.00000000      1.00000000      1.00000000      1.00000000      1.00000000
      1.00000000      1.00000000      1.00000000      1.00000000      1.00000000      1.00000000      1.00000000      1.00000000      1.00000000      1.00000000      1.00000000      1.00000000      1.00000000      1.00000000      1.00000000      1.00000000      1.00000000      1.00000000      1.00000000      1.00000000
      1.00000000      1.00000000      1.00000000      1.00000000      1.00000000      1.00000000      1.00000000      1.00000000      1.00000000      1.00000000      1.00000000      1.00000000      1.00000000      1.00000000      1.00000000      1.00000000      1.00000000      1.00000000      1.00000000      1.00000000
      1.00000000      1.00000000      1.00000000      1.00000000      1.00000000      1.00000000      1.00000000      1.00000000      1.00000000      1.00000000      1.00000000      1.00000000      1.00000000      1.00000000      1.00000000      1.00000000      1.00000000      1.00000000      1.00000000      1.00000000
      1.00000000      1.00000000      1.00000000      1.00000000      1.00000000      1.00000000      1.00000000      1.00000000      1.00000000      1.00000000      1.00000000      1.00000000      1.00000000      1.00000000      1.00000000      1.00000000      1.00000000      1.00000000      1.00000000      1.00000000
      1.00000000      1.00000000      1.00000000      1.00000000      1.00000000      1.00000000      1.00000000      1.00000000      1.00000000      1.00000000      1.00000000      1.00000000      1.00000000      1.00000000      1.00000000      1.00000000      1.00000000      1.00000000      1.00000000      1.00000000
      1.00000000      1.00000000      1.00000000      1.00000000      1.00000000      1.00000000      1.00000000      1.00000000      1.00000000      1.00000000      1.00000000      1.00000000      1.00000000      1.00000000      1.00000000      1.00000000      1.00000000      1.00000000      1.00000000      1.00000000
      1.00000000      1.00000000      1.00000000      1.00000000      1.00000000      1.00000000      1.00000000      1.00000000      1.00000000      1.00000000      1.00000000      1.00000000      1.00000000      1.00000000      1.00000000      1.00000000      1.00000000      1.00000000      1.00000000      1.00000000
      1.00000000      1.00000000      1.00000000      1.00000000      1.00000000      1.00000000      1.00000000      1.00000000      1.00000000      1.00000000      1.00000000      1.00000000      1.00000000      1.00000000      1.00000000      1.00000000      1.00000000      1.00000000      1.00000000      1.00000000
      1.00000000      1.00000000      1.00000000      1.00000000      1.00000000      1.00000000      1.00000000      1.00000000      1.00000000      1.00000000      1.00000000      1.00000000      1.00000000      1.00000000      1.00000000      1.00000000</v>
    <i name="NUPDOWN">     -1.00000000</i>
    <i type="logical" name="LSORBIT"> F  </i>
    <v name="SAXIS">      0.00000000      0.00000000      1.00000000</v>
    <i type="logical" name="LSPIRAL"> F  </i>
    <v name="QSPIRAL">      0.00000000      0.00000000      0.00000000</v>
    <i type="logical" name="LZEROZ"> F  </i>
   </separator>
   <separator name="electronic exchange-correlation" >
    <i type="logical" name="LASPH"> F  </i>
    <i type="logical" name="LMETAGGA"> F  </i>
   </separator>
   <separator name="electronic convergence" >
    <i type="int" name="NELM">    60</i>
    <i type="int" name="NELMDL">    -5</i>
    <i type="int" name="NELMIN">     5</i>
    <i name="ENINI">    213.27600000</i>
    <separator name="electronic convergence detail" >
     <i type="logical" name="LDIAG"> T  </i>
     <i type="logical" name="LSUBROT"> F  </i>
     <i name="WEIMIN">      0.00000000</i>
     <i name="EBREAK">      0.00000000</i>
     <i name="DEPER">      0.30000000</i>
     <i type="int" name="NRMM">     4</i>
     <i name="TIME">      0.40000000</i>
    </separator>
   </separator>
   <separator name="electronic mixer" >
    <i name="AMIX">      0.40000000</i>
    <i name="BMIX">      1.00000000</i>
    <i name="AMIN">      0.10000000</i>
    <i name="AMIX_MAG">      1.60000000</i>
    <i name="BMIX_MAG">      1.00000000</i>
    <separator name="electronic mixer details" >
     <i type="int" name="IMIX">     4</i>
     <i type="logical" name="MIXFIRST"> F  </i>
     <i type="int" name="MAXMIX">   -45</i>
     <i name="WC">    100.00000000</i>
     <i type="int" name="INIMIX">     1</i>
     <i type="int" name="MIXPRE">     1</i>
     <i type="int" name="MREMOVE">     5</i>
    </separator>
   </separator>
   <separator name="electronic dipolcorrection" >
    <i type="logical" name="LDIPOL"> F  </i>
    <i type="logical" name="LMONO"> F  </i>
    <i type="int" name="IDIPOL">     0</i>
    <i name="EPSILON">      1.00000000</i>
    <v name="DIPOL">   -100.00000000   -100.00000000   -100.00000000</v>
    <i name="EFIELD">      0.00000000</i>
   </separator>
  </separator>
  <separator name="grids" >
   <i type="int" name="NGX">    80</i>
   <i type="int" name="NGY">    80</i>
   <i type="int" name="NGZ">    80</i>
   <i type="int" name="NGXF">   160</i>
   <i type="int" name="NGYF">   160</i>
   <i type="int" name="NGZF">   160</i>
   <i type="logical" name="ADDGRID"> F  </i>
  </separator>
  <separator name="ionic" >
   <i type="int" name="NSW">     0</i>
   <i type="int" name="IBRION">    -1</i>
   <i type="int" name="ISIF">     2</i>
   <i name="PSTRESS">      0.00000000</i>
   <i name="EDIFFG">      0.00001000</i>
   <i type="int" name="NFREE">     0</i>
   <i name="POTIM">      0.50000000</i>
   <i name="SMASS">     -3.00000000</i>
   <i name="SCALEE">      1.00000000</i>
  </separator>
  <separator name="ionic md" >
   <i name="TEBEG">      0.00010000</i>
   <i name="TEEND">      0.00010000</i>
   <i type="int" name="NBLOCK">     1</i>
   <i type="int" name="KBLOCK">     1</i>
   <i type="int" name="NPACO">   256</i>
   <i name="APACO">     16.00000000</i>
  </separator>
  <separator name="symmetry" >
   <i type="int" name="ISYM">     2</i>
   <i name="SYMPREC">      0.00001000</i>
  </separator>
  <separator name="dos" >
   <i type="logical" name="LORBIT"> F  </i>
   <v name="RWIGS">     -1.00000000     -1.00000000</v>
   <i type="int" name="NEDOS">   301</i>
   <i name="EMIN">     10.00000000</i>
   <i name="EMAX">    -10.00000000</i>
   <i name="EFERMI">      0.00000000</i>
  </separator>
  <separator name="writing" >
   <i type="int" name="NWRITE">     2</i>
   <i type="logical" name="LWAVE"> T  </i>
   <i type="logical" name="LCHARG"> T  </i>
   <i type="logical" name="LPARD"> F  </i>
   <i type="logical" name="LVTOT"> F  </i>
   <i type="logical" name="LVHAR"> F  </i>
   <i type="logical" name="LELF"> F  </i>
   <i type="logical" name="LOPTICS"> F  </i>
   <v name="STM">      0.00000000      0.00000000      0.00000000      0.00000000      0.00000000      0.00000000      0.00000000</v>
  </separator>
  <separator name="performance" >
   <i type="int" name="NPAR">    20</i>
   <i type="int" name="NSIM">     4</i>
   <i type="int" name="NBLK">    -1</i>
   <i type="logical" name="LPLANE"> T  </i>
   <i type="logical" name="LSCALAPACK"> T  </i>
   <i type="logical" name="LSCAAWARE"> F  </i>
   <i type="logical" name="LSCALU"> F  </i>
   <i type="logical" name="LASYNC"> F  </i>
   <i type="logical" name="LORBITALREAL"> F  </i>
  </separator>
  <separator name="miscellaneous" >
   <i type="int" name="IDIOT">     3</i>
   <i type="logical" name="LMUSIC"> F  </i>
   <v name="POMASS">    192.22000000    101.07000000</v>
   <v name="DARWINR">      0.00000000      0.00000000</v>
   <v name="DARWINV">      1.00000000      1.00000000</v>
   <i type="logical" name="LCORR"> T  </i>
  </separator>
  <i type="logical" name="GGA_COMPAT"> T  </i>
  <i type="logical" name="LBERRY"> F  </i>
  <i type="int" name="ICORELEVEL">     0</i>
  <i type="logical" name="LDAU"> F  </i>
  <i type="int" name="I_CONSTRAINED_M">     0</i>
  <separator name="electronic exchange-correlation" >
   <i type="string" name="GGA">--</i>
   <i type="int" name="VOSKOWN">     0</i>
   <i type="logical" name="LHFCALC"> F  </i>
   <i type="string" name="PRECFOCK"></i>
   <i type="logical" name="LSYMGRAD"> F  </i>
   <i type="logical" name="LHFONE"> F  </i>
   <i type="logical" name="LRHFCALC"> F  </i>
   <i type="logical" name="LTHOMAS"> F  </i>
   <i type="logical" name="LMODELHF"> F  </i>
   <i name="ENCUT4O">     -1.00000000</i>
   <i type="int" name="EXXOEP">     0</i>
   <i type="int" name="FOURORBIT">     0</i>
   <i name="AEXX">      0.00000000</i>
   <i name="HFALPHA">      0.00000000</i>
   <i name="MCALPHA">      0.00000000</i>
   <i name="ALDAX">      1.00000000</i>
   <i name="AGGAX">      1.00000000</i>
   <i name="ALDAC">      1.00000000</i>
   <i name="AGGAC">      1.00000000</i>
   <i type="int" name="NKREDX">     1</i>
   <i type="int" name="NKREDY">     1</i>
   <i type="int" name="NKREDZ">     1</i>
   <i type="logical" name="SHIFTRED"> F  </i>
   <i type="logical" name="ODDONLY"> F  </i>
   <i type="logical" name="EVENONLY"> F  </i>
   <i type="int" name="LMAXFOCK">     0</i>
   <i type="int" name="NMAXFOCKAE">     0</i>
   <i type="logical" name="LFOCKAEDFT"> F  </i>
   <i name="HFSCREEN">      0.00000000</i>
   <i name="HFSCREENC">      0.00000000</i>
   <i type="int" name="NBANDSGWLOW">     0</i>
  </separator>
  <separator name="vdW DFT" >
   <i type="logical" name="LUSE_VDW"> F  </i>
   <i name="Zab_VDW">     -0.84910000</i>
   <i name="PARAM1">      0.12340000</i>
   <i name="PARAM2">      1.00000000</i>
   <i name="PARAM3">      0.00000000</i>
  </separator>
  <separator name="model GW" >
   <i type="int" name="MODEL_GW">     0</i>
   <i name="MODEL_EPS0">      8.51523704</i>
   <i name="MODEL_ALPHA">      1.00000000</i>
  </separator>
  <separator name="linear response parameters" >
   <i type="logical" name="LEPSILON"> F  </i>
   <i type="logical" name="LRPA"> F  </i>
   <i type="logical" name="LNABLA"> F  </i>
   <i type="logical" name="LVEL"> F  </i>
   <i type="int" name="KINTER">     0</i>
   <i name="CSHIFT">      0.10000000</i>
   <i name="OMEGAMAX">     -1.00000000</i>
   <i name="DEG_THRESHOLD">      0.00200000</i>
  </separator>
  <separator name="orbital magnetization" >
   <i type="logical" name="NUCIND"> F  </i>
   <v name="MAGPOS">      0.00000000      0.00000000      0.00000000</v>
   <i type="logical" name="LNICSALL"> T  </i>
   <i type="logical" name="ORBITALMAG"> F  </i>
   <i type="logical" name="LMAGBLOCH"> F  </i>
   <i type="logical" name="LCHIMAG"> F  </i>
   <i type="logical" name="LGAUGE"> T  </i>
   <i type="int" name="MAGATOM">     0</i>
   <v name="MAGDIPOL">      0.00000000      0.00000000      0.00000000</v>
   <v name="AVECCONST">      0.00000000      0.00000000      0.00000000</v>
  </separator>
  <separator name="response functions" >
   <i type="logical" name="LADDER"> F  </i>
   <i type="logical" name="LFXC"> F  </i>
   <i type="logical" name="LHARTREE"> T  </i>
   <i type="int" name="IBSE">     0</i>
   <v type="int" name="KPOINT">    -1     0     0     0</v>
   <i type="logical" name="LTCTE"> F  </i>
   <i type="logical" name="LTETE"> F  </i>
   <i type="logical" name="LTRIPLET"> F  </i>
   <i type="logical" name="LFXCEPS"> F  </i>
   <i type="logical" name="LFXHEG"> F  </i>
   <i type="int" name="NATURALO">     0</i>
   <i type="logical" name="L2ORDER"> F  </i>
   <i type="logical" name="LUSEW"> F  </i>
   <i name="ENCUTGW">     -2.00000000</i>
   <i name="ENCUTGWSOFT">     -2.00000000</i>
   <i name="ENCUTLF">     -1.00000000</i>
   <i type="int" name="LMAXMP2">    -1</i>
   <i name="SCISSOR">      0.00000000</i>
   <i type="int" name="NOMEGA">     0</i>
   <i type="int" name="NOMEGAR">     0</i>
   <i type="int" name="NBANDSGW">    -1</i>
   <i type="int" name="NBANDSO">    -1</i>
   <i type="int" name="NBANDSV">    -1</i>
   <i type="int" name="NELM">     1</i>
   <i type="int" name="NELMHF">     1</i>
   <i type="int" name="DIM">     3</i>
   <i type="int" name="ANTIRES">     0</i>
   <i name="OMEGAMAX">    -30.00000000</i>
   <i name="OMEGAMIN">    -30.00000000</i>
   <i name="OMEGATL">   -200.00000000</i>
   <i type="int" name="OMEGAGRID">     0</i>
   <i name="CSHIFT">     -0.10000000</i>
   <i type="logical" name="SELFENERGY"> F  </i>
   <i type="logical" name="LSPECTRAL"> F  </i>
   <i type="logical" name="LSPECTRALGW"> F  </i>
   <i type="logical" name="LSINGLES"> F  </i>
   <i type="logical" name="LFERMIGW"> F  </i>
   <i type="logical" name="ODDONLYGW"> F  </i>
   <i type="logical" name="EVENONLYGW"> F  </i>
   <i type="int" name="NKREDLFX">     1</i>
   <i type="int" name="NKREDLFY">     1</i>
   <i type="int" name="NKREDLFZ">     1</i>
   <i type="int" name="MAXMEM">  1800</i>
   <i type="int" name="TELESCOPE">     0</i>
   <i type="int" name="TAUPAR">     1</i>
   <i type="int" name="OMEGAPAR">    -1</i>
   <i name="LAMBDA">      1.00000000</i>
  </separator>
  <separator name="External order field" >
   <i name="OFIELD_KAPPA">      0.00000000</i>
   <v name="OFIELD_K">      0.00000000      0.00000000      0.00000000</v>
   <i name="OFIELD_Q6_NEAR">      0.00000000</i>
   <i name="OFIELD_Q6_FAR">      0.00000000</i>
   <i name="OFIELD_A">      0.00000000</i>
  </separator>
 </parameters>
 <atominfo>
  <atoms>     256 </atoms>
  <types>       2 </types>
  <array name="atoms" >
   <dimension dim="1">ion</dimension>
   <field type="string">element</field>
   <field type="int">atomtype</field>
   <set>
    <rc><c>Ir</c><c>   1</c></rc>
    <rc><c>Ir</c><c>   1</c></rc>
    <rc><c>Ir</c><c>   1</c></rc>
    <rc><c>Ir</c><c>   1</c></rc>
    <rc><c>Ir</c><c>   1</c></rc>
    <rc><c>Ir</c><c>   1</c></rc>
    <rc><c>Ir</c><c>   1</c></rc>
    <rc><c>Ir</c><c>   1</c></rc>
    <rc><c>Ir</c><c>   1</c></rc>
    <rc><c>Ir</c><c>   1</c></rc>
    <rc><c>Ir</c><c>   1</c></rc>
    <rc><c>Ir</c><c>   1</c></rc>
    <rc><c>Ir</c><c>   1</c></rc>
    <rc><c>Ir</c><c>   1</c></rc>
    <rc><c>Ir</c><c>   1</c></rc>
    <rc><c>Ir</c><c>   1</c></rc>
    <rc><c>Ir</c><c>   1</c></rc>
    <rc><c>Ir</c><c>   1</c></rc>
    <rc><c>Ir</c><c>   1</c></rc>
    <rc><c>Ir</c><c>   1</c></rc>
    <rc><c>Ir</c><c>   1</c></rc>
    <rc><c>Ir</c><c>   1</c></rc>
    <rc><c>Ir</c><c>   1</c></rc>
    <rc><c>Ir</c><c>   1</c></rc>
    <rc><c>Ir</c><c>   1</c></rc>
    <rc><c>Ir</c><c>   1</c></rc>
    <rc><c>Ir</c><c>   1</c></rc>
    <rc><c>Ir</c><c>   1</c></rc>
    <rc><c>Ir</c><c>   1</c></rc>
    <rc><c>Ir</c><c>   1</c></rc>
    <rc><c>Ir</c><c>   1</c></rc>
    <rc><c>Ir</c><c>   1</c></rc>
    <rc><c>Ir</c><c>   1</c></rc>
    <rc><c>Ir</c><c>   1</c></rc>
    <rc><c>Ir</c><c>   1</c></rc>
    <rc><c>Ir</c><c>   1</c></rc>
    <rc><c>Ir</c><c>   1</c></rc>
    <rc><c>Ir</c><c>   1</c></rc>
    <rc><c>Ir</c><c>   1</c></rc>
    <rc><c>Ir</c><c>   1</c></rc>
    <rc><c>Ir</c><c>   1</c></rc>
    <rc><c>Ir</c><c>   1</c></rc>
    <rc><c>Ir</c><c>   1</c></rc>
    <rc><c>Ir</c><c>   1</c></rc>
    <rc><c>Ir</c><c>   1</c></rc>
    <rc><c>Ir</c><c>   1</c></rc>
    <rc><c>Ir</c><c>   1</c></rc>
    <rc><c>Ir</c><c>   1</c></rc>
    <rc><c>Ir</c><c>   1</c></rc>
    <rc><c>Ir</c><c>   1</c></rc>
    <rc><c>Ir</c><c>   1</c></rc>
    <rc><c>Ir</c><c>   1</c></rc>
    <rc><c>Ir</c><c>   1</c></rc>
    <rc><c>Ir</c><c>   1</c></rc>
    <rc><c>Ir</c><c>   1</c></rc>
    <rc><c>Ir</c><c>   1</c></rc>
    <rc><c>Ir</c><c>   1</c></rc>
    <rc><c>Ir</c><c>   1</c></rc>
    <rc><c>Ir</c><c>   1</c></rc>
    <rc><c>Ir</c><c>   1</c></rc>
    <rc><c>Ir</c><c>   1</c></rc>
    <rc><c>Ir</c><c>   1</c></rc>
    <rc><c>Ir</c><c>   1</c></rc>
    <rc><c>Ir</c><c>   1</c></rc>
    <rc><c>Ir</c><c>   1</c></rc>
    <rc><c>Ir</c><c>   1</c></rc>
    <rc><c>Ir</c><c>   1</c></rc>
    <rc><c>Ir</c><c>   1</c></rc>
    <rc><c>Ir</c><c>   1</c></rc>
    <rc><c>Ir</c><c>   1</c></rc>
    <rc><c>Ir</c><c>   1</c></rc>
    <rc><c>Ir</c><c>   1</c></rc>
    <rc><c>Ir</c><c>   1</c></rc>
    <rc><c>Ir</c><c>   1</c></rc>
    <rc><c>Ir</c><c>   1</c></rc>
    <rc><c>Ir</c><c>   1</c></rc>
    <rc><c>Ir</c><c>   1</c></rc>
    <rc><c>Ir</c><c>   1</c></rc>
    <rc><c>Ir</c><c>   1</c></rc>
    <rc><c>Ir</c><c>   1</c></rc>
    <rc><c>Ir</c><c>   1</c></rc>
    <rc><c>Ir</c><c>   1</c></rc>
    <rc><c>Ir</c><c>   1</c></rc>
    <rc><c>Ir</c><c>   1</c></rc>
    <rc><c>Ir</c><c>   1</c></rc>
    <rc><c>Ir</c><c>   1</c></rc>
    <rc><c>Ir</c><c>   1</c></rc>
    <rc><c>Ir</c><c>   1</c></rc>
    <rc><c>Ir</c><c>   1</c></rc>
    <rc><c>Ir</c><c>   1</c></rc>
    <rc><c>Ir</c><c>   1</c></rc>
    <rc><c>Ir</c><c>   1</c></rc>
    <rc><c>Ir</c><c>   1</c></rc>
    <rc><c>Ir</c><c>   1</c></rc>
    <rc><c>Ir</c><c>   1</c></rc>
    <rc><c>Ir</c><c>   1</c></rc>
    <rc><c>Ir</c><c>   1</c></rc>
    <rc><c>Ir</c><c>   1</c></rc>
    <rc><c>Ir</c><c>   1</c></rc>
    <rc><c>Ir</c><c>   1</c></rc>
    <rc><c>Ir</c><c>   1</c></rc>
    <rc><c>Ir</c><c>   1</c></rc>
    <rc><c>Ir</c><c>   1</c></rc>
    <rc><c>Ir</c><c>   1</c></rc>
    <rc><c>Ir</c><c>   1</c></rc>
    <rc><c>Ir</c><c>   1</c></rc>
    <rc><c>Ir</c><c>   1</c></rc>
    <rc><c>Ir</c><c>   1</c></rc>
    <rc><c>Ir</c><c>   1</c></rc>
    <rc><c>Ir</c><c>   1</c></rc>
    <rc><c>Ir</c><c>   1</c></rc>
    <rc><c>Ir</c><c>   1</c></rc>
    <rc><c>Ir</c><c>   1</c></rc>
    <rc><c>Ir</c><c>   1</c></rc>
    <rc><c>Ir</c><c>   1</c></rc>
    <rc><c>Ir</c><c>   1</c></rc>
    <rc><c>Ir</c><c>   1</c></rc>
    <rc><c>Ir</c><c>   1</c></rc>
    <rc><c>Ir</c><c>   1</c></rc>
    <rc><c>Ir</c><c>   1</c></rc>
    <rc><c>Ir</c><c>   1</c></rc>
    <rc><c>Ir</c><c>   1</c></rc>
    <rc><c>Ir</c><c>   1</c></rc>
    <rc><c>Ir</c><c>   1</c></rc>
    <rc><c>Ir</c><c>   1</c></rc>
    <rc><c>Ir</c><c>   1</c></rc>
    <rc><c>Ir</c><c>   1</c></rc>
    <rc><c>Ir</c><c>   1</c></rc>
    <rc><c>Ru</c><c>   2</c></rc>
    <rc><c>Ru</c><c>   2</c></rc>
    <rc><c>Ru</c><c>   2</c></rc>
    <rc><c>Ru</c><c>   2</c></rc>
    <rc><c>Ru</c><c>   2</c></rc>
    <rc><c>Ru</c><c>   2</c></rc>
    <rc><c>Ru</c><c>   2</c></rc>
    <rc><c>Ru</c><c>   2</c></rc>
    <rc><c>Ru</c><c>   2</c></rc>
    <rc><c>Ru</c><c>   2</c></rc>
    <rc><c>Ru</c><c>   2</c></rc>
    <rc><c>Ru</c><c>   2</c></rc>
    <rc><c>Ru</c><c>   2</c></rc>
    <rc><c>Ru</c><c>   2</c></rc>
    <rc><c>Ru</c><c>   2</c></rc>
    <rc><c>Ru</c><c>   2</c></rc>
    <rc><c>Ru</c><c>   2</c></rc>
    <rc><c>Ru</c><c>   2</c></rc>
    <rc><c>Ru</c><c>   2</c></rc>
    <rc><c>Ru</c><c>   2</c></rc>
    <rc><c>Ru</c><c>   2</c></rc>
    <rc><c>Ru</c><c>   2</c></rc>
    <rc><c>Ru</c><c>   2</c></rc>
    <rc><c>Ru</c><c>   2</c></rc>
    <rc><c>Ru</c><c>   2</c></rc>
    <rc><c>Ru</c><c>   2</c></rc>
    <rc><c>Ru</c><c>   2</c></rc>
    <rc><c>Ru</c><c>   2</c></rc>
    <rc><c>Ru</c><c>   2</c></rc>
    <rc><c>Ru</c><c>   2</c></rc>
    <rc><c>Ru</c><c>   2</c></rc>
    <rc><c>Ru</c><c>   2</c></rc>
    <rc><c>Ru</c><c>   2</c></rc>
    <rc><c>Ru</c><c>   2</c></rc>
    <rc><c>Ru</c><c>   2</c></rc>
    <rc><c>Ru</c><c>   2</c></rc>
    <rc><c>Ru</c><c>   2</c></rc>
    <rc><c>Ru</c><c>   2</c></rc>
    <rc><c>Ru</c><c>   2</c></rc>
    <rc><c>Ru</c><c>   2</c></rc>
    <rc><c>Ru</c><c>   2</c></rc>
    <rc><c>Ru</c><c>   2</c></rc>
    <rc><c>Ru</c><c>   2</c></rc>
    <rc><c>Ru</c><c>   2</c></rc>
    <rc><c>Ru</c><c>   2</c></rc>
    <rc><c>Ru</c><c>   2</c></rc>
    <rc><c>Ru</c><c>   2</c></rc>
    <rc><c>Ru</c><c>   2</c></rc>
    <rc><c>Ru</c><c>   2</c></rc>
    <rc><c>Ru</c><c>   2</c></rc>
    <rc><c>Ru</c><c>   2</c></rc>
    <rc><c>Ru</c><c>   2</c></rc>
    <rc><c>Ru</c><c>   2</c></rc>
    <rc><c>Ru</c><c>   2</c></rc>
    <rc><c>Ru</c><c>   2</c></rc>
    <rc><c>Ru</c><c>   2</c></rc>
    <rc><c>Ru</c><c>   2</c></rc>
    <rc><c>Ru</c><c>   2</c></rc>
    <rc><c>Ru</c><c>   2</c></rc>
    <rc><c>Ru</c><c>   2</c></rc>
    <rc><c>Ru</c><c>   2</c></rc>
    <rc><c>Ru</c><c>   2</c></rc>
    <rc><c>Ru</c><c>   2</c></rc>
    <rc><c>Ru</c><c>   2</c></rc>
    <rc><c>Ru</c><c>   2</c></rc>
    <rc><c>Ru</c><c>   2</c></rc>
    <rc><c>Ru</c><c>   2</c></rc>
    <rc><c>Ru</c><c>   2</c></rc>
    <rc><c>Ru</c><c>   2</c></rc>
    <rc><c>Ru</c><c>   2</c></rc>
    <rc><c>Ru</c><c>   2</c></rc>
    <rc><c>Ru</c><c>   2</c></rc>
    <rc><c>Ru</c><c>   2</c></rc>
    <rc><c>Ru</c><c>   2</c></rc>
    <rc><c>Ru</c><c>   2</c></rc>
    <rc><c>Ru</c><c>   2</c></rc>
    <rc><c>Ru</c><c>   2</c></rc>
    <rc><c>Ru</c><c>   2</c></rc>
    <rc><c>Ru</c><c>   2</c></rc>
    <rc><c>Ru</c><c>   2</c></rc>
    <rc><c>Ru</c><c>   2</c></rc>
    <rc><c>Ru</c><c>   2</c></rc>
    <rc><c>Ru</c><c>   2</c></rc>
    <rc><c>Ru</c><c>   2</c></rc>
    <rc><c>Ru</c><c>   2</c></rc>
    <rc><c>Ru</c><c>   2</c></rc>
    <rc><c>Ru</c><c>   2</c></rc>
    <rc><c>Ru</c><c>   2</c></rc>
    <rc><c>Ru</c><c>   2</c></rc>
    <rc><c>Ru</c><c>   2</c></rc>
    <rc><c>Ru</c><c>   2</c></rc>
    <rc><c>Ru</c><c>   2</c></rc>
    <rc><c>Ru</c><c>   2</c></rc>
    <rc><c>Ru</c><c>   2</c></rc>
    <rc><c>Ru</c><c>   2</c></rc>
    <rc><c>Ru</c><c>   2</c></rc>
    <rc><c>Ru</c><c>   2</c></rc>
    <rc><c>Ru</c><c>   2</c></rc>
    <rc><c>Ru</c><c>   2</c></rc>
    <rc><c>Ru</c><c>   2</c></rc>
    <rc><c>Ru</c><c>   2</c></rc>
    <rc><c>Ru</c><c>   2</c></rc>
    <rc><c>Ru</c><c>   2</c></rc>
    <rc><c>Ru</c><c>   2</c></rc>
    <rc><c>Ru</c><c>   2</c></rc>
    <rc><c>Ru</c><c>   2</c></rc>
    <rc><c>Ru</c><c>   2</c></rc>
    <rc><c>Ru</c><c>   2</c></rc>
    <rc><c>Ru</c><c>   2</c></rc>
    <rc><c>Ru</c><c>   2</c></rc>
    <rc><c>Ru</c><c>   2</c></rc>
    <rc><c>Ru</c><c>   2</c></rc>
    <rc><c>Ru</c><c>   2</c></rc>
    <rc><c>Ru</c><c>   2</c></rc>
    <rc><c>Ru</c><c>   2</c></rc>
    <rc><c>Ru</c><c>   2</c></rc>
    <rc><c>Ru</c><c>   2</c></rc>
    <rc><c>Ru</c><c>   2</c></rc>
    <rc><c>Ru</c><c>   2</c></rc>
    <rc><c>Ru</c><c>   2</c></rc>
    <rc><c>Ru</c><c>   2</c></rc>
    <rc><c>Ru</c><c>   2</c></rc>
    <rc><c>Ru</c><c>   2</c></rc>
    <rc><c>Ru</c><c>   2</c></rc>
    <rc><c>Ru</c><c>   2</c></rc>
    <rc><c>Ru</c><c>   2</c></rc>
    <rc><c>Ru</c><c>   2</c></rc>
    <rc><c>Ru</c><c>   2</c></rc>
   </set>
  </array>
  <array name="atomtypes" >
   <dimension dim="1">type</dimension>
   <field type="int">atomspertype</field>
   <field type="string">element</field>
   <field>mass</field>
   <field>valence</field>
   <field type="string">pseudopotential</field>
   <set>
    <rc><c> 128</c><c>Ir</c><c>    192.22000000</c><c>      9.00000000</c><c> PAW_PBE Ir 06Sep2000                   </c></rc>
    <rc><c> 128</c><c>Ru</c><c>    101.07000000</c><c>      8.00000000</c><c> PAW_PBE Ru 06Sep2000                   </c></rc>
   </set>
  </array>
 </atominfo>
 <structure name="initialpos" >
  <crystal>
   <varray name="basis" >
    <v>       0.00188000      15.37080000       0.00140000 </v>
    <v>       0.00152000      -0.00140000     -15.37218000 </v>
    <v>     -15.37636000      -0.00188000       0.00151000 </v>
   </varray>
   <i name="volume">   3633.16780401 </i>
   <varray name="rec_basis" >
    <v>      -0.00000795       0.06505842      -0.00000593 </v>
    <v>      -0.00000639       0.00000593      -0.06505258 </v>
    <v>      -0.06503490       0.00000795      -0.00000643 </v>
   </varray>
  </crystal>
  <varray name="positions" >
   <v>       0.12544250       0.12495750       0.00137500 </v>
   <v>       0.25023500       0.87425500       0.37476000 </v>
   <v>       0.50095250       0.12407750       0.62474500 </v>
   <v>       0.37553250       0.12507750       0.50016500 </v>
   <v>       0.24973750       0.12571750       0.37459500 </v>
   <v>       0.37600500       0.00007500       0.37466000 </v>
   <v>       0.25039000       0.00088000       0.24854000 </v>
   <v>       0.37534750       0.24987750       0.37305500 </v>
   <v>       0.49970000       0.00076500       0.24985000 </v>
   <v>       0.25027250       0.00022250       0.00012500 </v>
   <v>       0.62466750       0.24912250       0.37463500 </v>
   <v>       0.37446000       0.12498500       0.00162000 </v>
   <v>       0.49907250       0.37499750       0.12491500 </v>
   <v>       0.49965250       0.24988250       0.00137500 </v>
   <v>       0.37398000       0.25085000       0.87599000 </v>
   <v>       0.62457250       0.37420750       0.24977500 </v>
   <v>       0.37544250       0.37495750       0.50137500 </v>
   <v>       0.50023500       0.12425500       0.87476000 </v>
   <v>       0.75095250       0.37407750       0.12474500 </v>
   <v>       0.62553250       0.37507750       0.00016500 </v>
   <v>       0.49973750       0.37571750       0.87459500 </v>
   <v>       0.62600500       0.25007500       0.87466000 </v>
   <v>       0.50039000       0.25088000       0.74854000 </v>
   <v>       0.62534750       0.49987750       0.87305500 </v>
   <v>       0.74970000       0.25076500       0.74985000 </v>
   <v>       0.50027250       0.25022250       0.50012500 </v>
   <v>       0.87466750       0.49912250       0.87463500 </v>
   <v>       0.62446000       0.37498500       0.50162000 </v>
   <v>       0.74907250       0.62499750       0.62491500 </v>
   <v>       0.74965250       0.49988250       0.50137500 </v>
   <v>       0.62398000       0.50085000       0.37599000 </v>
   <v>       0.87457250       0.62420750       0.74977500 </v>
   <v>       0.62544250       0.12495750       0.00137500 </v>
   <v>       0.75023500       0.87425500       0.37476000 </v>
   <v>       0.00095250       0.12407750       0.62474500 </v>
   <v>       0.87553250       0.12507750       0.50016500 </v>
   <v>       0.74973750       0.12571750       0.37459500 </v>
   <v>       0.87600500       0.00007500       0.37466000 </v>
   <v>       0.75039000       0.00088000       0.24854000 </v>
   <v>       0.87534750       0.24987750       0.37305500 </v>
   <v>       0.99970000       0.00076500       0.24985000 </v>
   <v>       0.75027250       0.00022250       0.00012500 </v>
   <v>       0.12466500       0.24652000       0.37463000 </v>
   <v>       0.87445750       0.12498750       0.00161500 </v>
   <v>       0.99907250       0.37499750       0.12491500 </v>
   <v>       0.99965250       0.24988250       0.00137500 </v>
   <v>       0.87398000       0.25085000       0.87599000 </v>
   <v>       0.12457250       0.37420750       0.24977500 </v>
   <v>       0.12544250       0.62495750       0.00137500 </v>
   <v>       0.25023500       0.37425500       0.37476000 </v>
   <v>       0.50095250       0.62407750       0.62474500 </v>
   <v>       0.37553250       0.62507750       0.50016500 </v>
   <v>       0.24973750       0.62571750       0.37459500 </v>
   <v>       0.37600500       0.50007500       0.37466000 </v>
   <v>       0.25039000       0.50088000       0.24854000 </v>
   <v>       0.37534750       0.74987750       0.37305500 </v>
   <v>       0.49970000       0.50076500       0.24985000 </v>
   <v>       0.25027250       0.50022250       0.00012500 </v>
   <v>       0.62466750       0.74912250       0.37463500 </v>
   <v>       0.37446000       0.62498500       0.00162000 </v>
   <v>       0.49907250       0.87499750       0.12491500 </v>
   <v>       0.49965250       0.74988250       0.00137500 </v>
   <v>       0.37397750       0.75084750       0.87598500 </v>
   <v>       0.62457250       0.87420750       0.24977500 </v>
   <v>       0.87544250       0.37495750       0.50137500 </v>
   <v>       0.00023500       0.12425500       0.87476000 </v>
   <v>       0.25095250       0.37407750       0.12474500 </v>
   <v>       0.12553250       0.37507750       0.00016500 </v>
   <v>       0.99973750       0.37571750       0.87459500 </v>
   <v>       0.12600500       0.25007500       0.87466000 </v>
   <v>       0.00039000       0.25088000       0.74854000 </v>
   <v>       0.12534750       0.49987750       0.87305500 </v>
   <v>       0.24970000       0.25076500       0.74985000 </v>
   <v>       0.00027250       0.25022250       0.50012500 </v>
   <v>       0.37466750       0.49912250       0.87463500 </v>
   <v>       0.12446000       0.37498500       0.50162000 </v>
   <v>       0.24907250       0.62499750       0.62491500 </v>
   <v>       0.24965250       0.49988250       0.50137500 </v>
   <v>       0.12397750       0.50084750       0.37598500 </v>
   <v>       0.37457250       0.62420750       0.74977500 </v>
   <v>       0.37544250       0.87495750       0.50137500 </v>
   <v>       0.50023500       0.62425500       0.87476000 </v>
   <v>       0.75095250       0.87407750       0.12474500 </v>
   <v>       0.62553250       0.87507750       0.00016500 </v>
   <v>       0.49973750       0.87571750       0.87459500 </v>
   <v>       0.62600250       0.75007250       0.87465500 </v>
   <v>       0.50039000       0.75088000       0.74854000 </v>
   <v>       0.62534750       0.99987750       0.87305500 </v>
   <v>       0.74970000       0.75076500       0.74985000 </v>
   <v>       0.50027250       0.75022250       0.50012500 </v>
   <v>       0.87466750       0.99912250       0.87463500 </v>
   <v>       0.62446000       0.87498500       0.50162000 </v>
   <v>       0.74907250       0.12499750       0.62491500 </v>
   <v>       0.74965250       0.99988250       0.50137500 </v>
   <v>       0.62397750       0.00084750       0.37598500 </v>
   <v>       0.87457250       0.12420750       0.74977500 </v>
   <v>       0.62544250       0.62495750       0.00137500 </v>
   <v>       0.75023500       0.37425500       0.37476000 </v>
   <v>       0.00095250       0.62407750       0.62474500 </v>
   <v>       0.87553250       0.62507750       0.50016500 </v>
   <v>       0.74973750       0.62571750       0.37459500 </v>
   <v>       0.87600500       0.50007500       0.37466000 </v>
   <v>       0.75039000       0.50088000       0.24854000 </v>
   <v>       0.87534750       0.74987750       0.37305500 </v>
   <v>       0.99970000       0.50076500       0.24985000 </v>
   <v>       0.75027250       0.50022250       0.00012500 </v>
   <v>       0.12466750       0.74912250       0.37463500 </v>
   <v>       0.87445750       0.62498750       0.00161500 </v>
   <v>       0.99907250       0.87499750       0.12491500 </v>
   <v>       0.99965250       0.74988250       0.00137500 </v>
   <v>       0.87398000       0.75085000       0.87599000 </v>
   <v>       0.12457250       0.87420750       0.24977500 </v>
   <v>       0.87544250       0.87495750       0.50137500 </v>
   <v>       0.00023500       0.62425500       0.87476000 </v>
   <v>       0.25095000       0.87407500       0.12474000 </v>
   <v>       0.12553250       0.87507750       0.00016500 </v>
   <v>       0.99973750       0.87571750       0.87459500 </v>
   <v>       0.12600250       0.75007250       0.87465500 </v>
   <v>       0.00039000       0.75088000       0.74854000 </v>
   <v>       0.12534750       0.99987750       0.87305500 </v>
   <v>       0.24970000       0.75076500       0.74985000 </v>
   <v>       0.00027250       0.75022250       0.50012500 </v>
   <v>       0.37466750       0.99912250       0.87463500 </v>
   <v>       0.12446000       0.87498500       0.50162000 </v>
   <v>       0.24907250       0.12499750       0.62491500 </v>
   <v>       0.24965250       0.99988250       0.50137500 </v>
   <v>       0.12397750       0.00084750       0.37598500 </v>
   <v>       0.37457250       0.12420750       0.74977500 </v>
   <v>       0.25026250       0.24934750       0.24886500 </v>
   <v>       0.37540000       0.99901500       0.62581000 </v>
   <v>       0.25026250       0.24988250       0.99990500 </v>
   <v>       0.37536500       0.37434000       0.25012000 </v>
   <v>       0.12452500       0.00102500       0.12470000 </v>
   <v>       0.62450750       0.12506750       0.49982500 </v>
   <v>       0.50015250       0.12515750       0.37466500 </v>
   <v>       0.37555250       0.12560250       0.24861500 </v>
   <v>       0.24996250       0.12589750       0.12593500 </v>
   <v>       0.37545500       0.00032500       0.12460000 </v>
   <v>       0.49970750       0.24909250       0.24996500 </v>
   <v>       0.37461750       0.87555250       0.74886500 </v>
   <v>       0.37463500       0.24969000       0.12600000 </v>
   <v>       0.50001500       0.12515000       0.12596000 </v>
   <v>       0.49971750       0.00013750       0.00129500 </v>
   <v>       0.24985750       0.12477250       0.87470500 </v>
   <v>       0.50026250       0.49934750       0.74886500 </v>
   <v>       0.62540000       0.24901500       0.12581000 </v>
   <v>       0.50026250       0.49988250       0.49990500 </v>
   <v>       0.62536500       0.62434000       0.75012000 </v>
   <v>       0.37452500       0.25102500       0.62470000 </v>
   <v>       0.87450750       0.37506750       0.99982500 </v>
   <v>       0.75015250       0.37515750       0.87466500 </v>
   <v>       0.62555250       0.37560250       0.74861500 </v>
   <v>       0.49996250       0.37589750       0.62593500 </v>
   <v>       0.62545500       0.25032500       0.62460000 </v>
   <v>       0.74970750       0.49909250       0.74996500 </v>
   <v>       0.62461750       0.12555250       0.24886500 </v>
   <v>       0.62463250       0.49969250       0.62599500 </v>
   <v>       0.75001500       0.37515000       0.62596000 </v>
   <v>       0.74971750       0.25013750       0.50129500 </v>
   <v>       0.49985750       0.37477250       0.37470500 </v>
   <v>       0.75026250       0.24934750       0.24886500 </v>
   <v>       0.87540000       0.99901500       0.62581000 </v>
   <v>       0.75026250       0.24988250       0.99990500 </v>
   <v>       0.87536500       0.37434000       0.25012000 </v>
   <v>       0.62452500       0.00102500       0.12470000 </v>
   <v>       0.12450750       0.12506750       0.49982500 </v>
   <v>       0.00015250       0.12515750       0.37466500 </v>
   <v>       0.87555250       0.12560250       0.24861500 </v>
   <v>       0.74996250       0.12589750       0.12593500 </v>
   <v>       0.87545500       0.00032500       0.12460000 </v>
   <v>       0.99970750       0.24909250       0.24996500 </v>
   <v>       0.87461750       0.87555250       0.74886500 </v>
   <v>       0.87463250       0.24969250       0.12599500 </v>
   <v>       0.00001500       0.12515000       0.12596000 </v>
   <v>       0.99971750       0.00013750       0.00129500 </v>
   <v>       0.74985750       0.12477250       0.87470500 </v>
   <v>       0.25026250       0.74934750       0.24886500 </v>
   <v>       0.37540000       0.49901500       0.62581000 </v>
   <v>       0.25026250       0.74988250       0.99990500 </v>
   <v>       0.37536500       0.87434000       0.25012000 </v>
   <v>       0.12452500       0.50102500       0.12470000 </v>
   <v>       0.62450750       0.62506750       0.49982500 </v>
   <v>       0.50015250       0.62515750       0.37466500 </v>
   <v>       0.37555250       0.62560250       0.24861500 </v>
   <v>       0.24996250       0.62589750       0.12593500 </v>
   <v>       0.37545500       0.50032500       0.12460000 </v>
   <v>       0.49970750       0.74909250       0.24996500 </v>
   <v>       0.37461750       0.37555250       0.74886500 </v>
   <v>       0.37463500       0.74969000       0.12600000 </v>
   <v>       0.50001500       0.62515000       0.12596000 </v>
   <v>       0.49971750       0.50013750       0.00129500 </v>
   <v>       0.24985750       0.62477250       0.87470500 </v>
   <v>       0.00026250       0.49934750       0.74886500 </v>
   <v>       0.12540000       0.24901500       0.12581000 </v>
   <v>       0.00026250       0.49988250       0.49990500 </v>
   <v>       0.12536500       0.62434000       0.75012000 </v>
   <v>       0.87452500       0.25102500       0.62470000 </v>
   <v>       0.37450750       0.37506750       0.99982500 </v>
   <v>       0.25015250       0.37515750       0.87466500 </v>
   <v>       0.12555250       0.37560250       0.74861500 </v>
   <v>       0.99996250       0.37589750       0.62593500 </v>
   <v>       0.12545500       0.25032500       0.62460000 </v>
   <v>       0.24970750       0.49909250       0.74996500 </v>
   <v>       0.12461750       0.12555250       0.24886500 </v>
   <v>       0.12463250       0.49969250       0.62599500 </v>
   <v>       0.25001500       0.37515000       0.62596000 </v>
   <v>       0.24971750       0.25013750       0.50129500 </v>
   <v>       0.99985750       0.37477250       0.37470500 </v>
   <v>       0.50026250       0.99934750       0.74886500 </v>
   <v>       0.62540000       0.74901500       0.12581000 </v>
   <v>       0.50026250       0.99988250       0.49990500 </v>
   <v>       0.62536500       0.12434000       0.75012000 </v>
   <v>       0.37452500       0.75102500       0.62470000 </v>
   <v>       0.87450750       0.87506750       0.99982500 </v>
   <v>       0.75015250       0.87515750       0.87466500 </v>
   <v>       0.62555250       0.87560250       0.74861500 </v>
   <v>       0.49996250       0.87589750       0.62593500 </v>
   <v>       0.62545500       0.75032500       0.62460000 </v>
   <v>       0.74970750       0.99909250       0.74996500 </v>
   <v>       0.62461750       0.62555250       0.24886500 </v>
   <v>       0.62463250       0.99969250       0.62599500 </v>
   <v>       0.75001500       0.87515000       0.62596000 </v>
   <v>       0.74971750       0.75013750       0.50129500 </v>
   <v>       0.49985750       0.87477250       0.37470500 </v>
   <v>       0.75026250       0.74934750       0.24886500 </v>
   <v>       0.87540000       0.49901500       0.62581000 </v>
   <v>       0.75026250       0.74988250       0.99990500 </v>
   <v>       0.87536500       0.87434000       0.25012000 </v>
   <v>       0.62452500       0.50102500       0.12470000 </v>
   <v>       0.12450750       0.62506750       0.49982500 </v>
   <v>       0.00015250       0.62515750       0.37466500 </v>
   <v>       0.87555250       0.62560250       0.24861500 </v>
   <v>       0.74996250       0.62589750       0.12593500 </v>
   <v>       0.87545500       0.50032500       0.12460000 </v>
   <v>       0.99970750       0.74909250       0.24996500 </v>
   <v>       0.87461750       0.37555250       0.74886500 </v>
   <v>       0.87463250       0.74969250       0.12599500 </v>
   <v>       0.00001500       0.62515000       0.12596000 </v>
   <v>       0.99971750       0.50013750       0.00129500 </v>
   <v>       0.74985750       0.62477250       0.87470500 </v>
   <v>       0.00026250       0.99934750       0.74886500 </v>
   <v>       0.12540000       0.74901500       0.12581000 </v>
   <v>       0.00026250       0.99988250       0.49990500 </v>
   <v>       0.12536500       0.12434000       0.75012000 </v>
   <v>       0.87452500       0.75102500       0.62470000 </v>
   <v>       0.37450750       0.87506750       0.99982500 </v>
   <v>       0.25015250       0.87515750       0.87466500 </v>
   <v>       0.12555250       0.87560250       0.74861500 </v>
   <v>       0.99996250       0.87589750       0.62593500 </v>
   <v>       0.12545500       0.75032500       0.62460000 </v>
   <v>       0.24970750       0.99909250       0.74996500 </v>
   <v>       0.12461750       0.62555250       0.24886500 </v>
   <v>       0.12463500       0.99969000       0.62600000 </v>
   <v>       0.25001250       0.87514750       0.62596500 </v>
   <v>       0.24971750       0.75013750       0.50129500 </v>
   <v>       0.99985750       0.87477250       0.37470500 </v>
  </varray>
 </structure>
 <calculation>
  <scstep>
   <time name="dav"> 1186.42 1210.80</time>
   <time name="total"> 1186.67 1211.05</time>
   <energy>
    <i name="alphaZ">  17816.49363791 </i>
    <i name="ewald">-159091.21340312 </i>
    <i name="hartreedc"> -10357.26461160 </i>
    <i name="XCdc">  -6288.29169522 </i>
    <i name="pawpsdc"> 107387.23103886 </i>
    <i name="pawaedc"> -95870.62587529 </i>
    <i name="eentropy">      0.00052888 </i>
    <i name="bandstr">  27752.54776479 </i>
    <i name="atom"> 129934.13886476 </i>
    <i name="e_fr_energy">  11283.01624995 </i>
    <i name="e_wo_entrp">  11283.01572108 </i>
    <i name="e_0_energy">  11283.01607366 </i>
   </energy>
  </scstep>
  <scstep>
   <time name="dav"> 1187.92 1212.62</time>
   <time name="total"> 1187.94 1212.64</time>
   <energy>
    <i name="e_fr_energy">  -1438.91240453 </i>
    <i name="e_wo_entrp">  -1438.91158188 </i>
    <i name="e_0_energy">  -1438.91213032 </i>
   </energy>
  </scstep>
  <scstep>
   <time name="dav"> 1569.55 1602.24</time>
   <time name="total"> 1569.57 1602.26</time>
   <energy>
    <i name="e_fr_energy">  -2410.94411059 </i>
    <i name="e_wo_entrp">  -2410.93182317 </i>
    <i name="e_0_energy">  -2410.94001478 </i>
   </energy>
  </scstep>
  <scstep>
   <time name="dav"> 1535.54 1568.47</time>
   <time name="total"> 1535.56 1568.49</time>
   <energy>
    <i name="e_fr_energy">  -2482.27064123 </i>
    <i name="e_wo_entrp">  -2482.27057513 </i>
    <i name="e_0_energy">  -2482.27061919 </i>
   </energy>
  </scstep>
  <scstep>
   <time name="dav"> 1610.15 1642.95</time>
   <time name="total"> 1641.23 1674.67</time>
   <energy>
    <i name="e_fr_energy">  -2485.11019332 </i>
    <i name="e_wo_entrp">  -2485.11044754 </i>
    <i name="e_0_energy">  -2485.11027806 </i>
   </energy>
  </scstep>
  <scstep>
   <time name="diag">  121.75  124.28</time>
   <time name="diis">  574.32  587.38</time>
   <time name="orth">   41.78   42.76</time>
   <time name="total">  769.62  786.58</time>
   <energy>
    <i name="e_fr_energy">  -2416.40506321 </i>
    <i name="e_wo_entrp">  -2416.40347201 </i>
    <i name="e_0_energy">  -2416.40453281 </i>
   </energy>
  </scstep>
  <scstep>
   <time name="diag">  122.52  124.90</time>
   <time name="diis">  529.39  541.60</time>
   <time name="orth">   41.72   42.49</time>
   <time name="total">  724.98  741.17</time>
   <energy>
    <i name="e_fr_energy">  -2369.98918364 </i>
    <i name="e_wo_entrp">  -2369.96854733 </i>
    <i name="e_0_energy">  -2369.98230487 </i>
   </energy>
  </scstep>
  <scstep>
   <time name="diag">  122.63  124.45</time>
   <time name="diis">  529.61  541.37</time>
   <time name="orth">   42.00   42.56</time>
   <time name="total">  725.93  740.56</time>
   <energy>
    <i name="e_fr_energy">  -2339.86429526 </i>
    <i name="e_wo_entrp">  -2339.86029058 </i>
    <i name="e_0_energy">  -2339.86296037 </i>
   </energy>
  </scstep>
  <scstep>
   <time name="diag">  122.18  124.33</time>
   <time name="diis">  535.97  548.39</time>
   <time name="orth">   41.54   42.29</time>
   <time name="total">  731.06  746.95</time>
   <energy>
    <i name="e_fr_energy">  -2315.61930807 </i>
    <i name="e_wo_entrp">  -2315.65335240 </i>
    <i name="e_0_energy">  -2315.63065618 </i>
   </energy>
  </scstep>
  <scstep>
   <time name="diag">  122.61  124.33</time>
   <time name="diis">  733.94  750.29</time>
   <time name="orth">   42.08   42.92</time>
   <time name="total">  930.11  949.69</time>
   <energy>
    <i name="e_fr_energy">  -2315.40020558 </i>
    <i name="e_wo_entrp">  -2315.42140057 </i>
    <i name="e_0_energy">  -2315.40727058 </i>
   </energy>
  </scstep>
  <scstep>
   <time name="diag">  122.29  124.30</time>
   <time name="diis">  642.04  655.79</time>
   <time name="orth">   41.98   42.67</time>
   <time name="total">  837.90  854.87</time>
   <energy>
    <i name="e_fr_energy">  -2315.14636742 </i>
    <i name="e_wo_entrp">  -2315.16540204 </i>
    <i name="e_0_energy">  -2315.15271229 </i>
   </energy>
  </scstep>
  <scstep>
   <time name="diag">  122.80  124.49</time>
   <time name="diis">  655.88  671.54</time>
   <time name="orth">   41.91   42.49</time>
   <time name="total">  852.12  870.69</time>
   <energy>
    <i name="e_fr_energy">  -2314.90639356 </i>
    <i name="e_wo_entrp">  -2314.92598658 </i>
    <i name="e_0_energy">  -2314.91292457 </i>
   </energy>
  </scstep>
  <scstep>
   <time name="diag">  122.77  125.06</time>
   <time name="diis">  620.91  629.18</time>
   <time name="orth">   42.12   42.61</time>
   <time name="total">  817.40  828.92</time>
   <energy>
    <i name="e_fr_energy">  -2314.77777751 </i>
    <i name="e_wo_entrp">  -2314.79900347 </i>
    <i name="e_0_energy">  -2314.78485283 </i>
   </energy>
  </scstep>
  <scstep>
   <time name="diag">  123.56  124.82</time>
   <time name="diis">  608.14  617.27</time>
   <time name="orth">   42.24   42.58</time>
   <time name="total">  805.65  816.88</time>
   <energy>
    <i name="e_fr_energy">  -2314.74476148 </i>
    <i name="e_wo_entrp">  -2314.76986263 </i>
    <i name="e_0_energy">  -2314.75312853 </i>
   </energy>
  </scstep>
  <scstep>
   <time name="diag">  123.44  124.57</time>
   <time name="diis">  647.07  656.30</time>
   <time name="orth">   42.08   42.73</time>
   <time name="total">  844.21  855.62</time>
   <energy>
    <i name="e_fr_energy">  -2314.72780128 </i>
    <i name="e_wo_entrp">  -2314.75257617 </i>
    <i name="e_0_energy">  -2314.73605957 </i>
   </energy>
  </scstep>
  <scstep>
   <time name="diag">  122.75  124.15</time>
   <time name="diis">  636.11  645.09</time>
   <time name="orth">   42.08   42.72</time>
   <time name="total">  832.46  844.05</time>
   <energy>
    <i name="e_fr_energy">  -2314.71483317 </i>
    <i name="e_wo_entrp">  -2314.73911657 </i>
    <i name="e_0_energy">  -2314.72292763 </i>
   </energy>
  </scstep>
  <scstep>
   <time name="diag">  122.87  124.47</time>
   <time name="diis">  641.50  650.93</time>
   <time name="orth">   42.30   42.61</time>
   <time name="total">  838.07  850.07</time>
   <energy>
    <i name="e_fr_energy">  -2314.71152818 </i>
    <i name="e_wo_entrp">  -2314.73466100 </i>
    <i name="e_0_energy">  -2314.71923912 </i>
   </energy>
  </scstep>
  <scstep>
   <time name="diag">  122.68  124.08</time>
   <time name="diis">  723.18  734.62</time>
   <time name="orth">   42.40   42.65</time>
   <time name="total">  919.87  933.48</time>
   <energy>
    <i name="e_fr_energy">  -2314.71252674 </i>
    <i name="e_wo_entrp">  -2314.73489687 </i>
    <i name="e_0_energy">  -2314.71998345 </i>
   </energy>
  </scstep>
  <scstep>
   <time name="diag">  122.93  124.32</time>
   <time name="diis">  749.38  758.82</time>
   <time name="orth">   42.19   42.46</time>
   <time name="total">  945.98  957.58</time>
   <energy>
    <i name="e_fr_energy">  -2314.71234791 </i>
    <i name="e_wo_entrp">  -2314.73459229 </i>
    <i name="e_0_energy">  -2314.71976270 </i>
   </energy>
  </scstep>
  <scstep>
   <time name="diag">  123.35  124.23</time>
   <time name="diis">  615.42  624.49</time>
   <time name="orth">   42.22   42.78</time>
   <time name="total">  812.62  823.61</time>
   <energy>
    <i name="e_fr_energy">  -2314.71158140 </i>
    <i name="e_wo_entrp">  -2314.73404564 </i>
    <i name="e_0_energy">  -2314.71906948 </i>
   </energy>
  </scstep>
  <scstep>
   <time name="diag">  123.61  124.71</time>
   <time name="diis">  663.99  672.78</time>
   <time name="orth">   42.66   43.01</time>
   <time name="total">  862.15  872.68</time>
   <energy>
    <i name="e_fr_energy">  -2314.71116088 </i>
    <i name="e_wo_entrp">  -2314.73408319 </i>
    <i name="e_0_energy">  -2314.71880165 </i>
   </energy>
  </scstep>
  <scstep>
   <time name="diag">  123.06  124.34</time>
   <time name="diis">  754.62  765.01</time>
   <time name="orth">   42.63   42.85</time>
   <time name="total">  920.55  932.44</time>
   <energy>
    <i name="alphaZ">  17816.49363791 </i>
    <i name="ewald">-159091.21340312 </i>
    <i name="hartreedc">  -7946.86651855 </i>
    <i name="XCdc">  -6308.14365729 </i>
    <i name="pawpsdc"> 121857.25923862 </i>
    <i name="pawaedc">-111029.50916317 </i>
    <i name="eentropy">      0.02298932 </i>
    <i name="bandstr">  12453.10687602 </i>
    <i name="atom"> 129934.13886476 </i>
    <i name="e_fr_energy">  -2314.71113551 </i>
    <i name="e_wo_entrp">  -2314.73412483 </i>
    <i name="e_0_energy">  -2314.71879862 </i>
   </energy>
  </scstep>
  <structure>
   <crystal>
    <varray name="basis" >
     <v>       0.00188000      15.37080000       0.00140000 </v>
     <v>       0.00152000      -0.00140000     -15.37218000 </v>
     <v>     -15.37636000      -0.00188000       0.00151000 </v>
    </varray>
    <i name="volume">   3633.16780401 </i>
    <varray name="rec_basis" >
     <v>      -0.00000795       0.06505842      -0.00000593 </v>
     <v>      -0.00000639       0.00000593      -0.06505258 </v>
     <v>      -0.06503490       0.00000795      -0.00000643 </v>
    </varray>
   </crystal>
   <varray name="positions" >
    <v>       0.12544250       0.12495750       0.00137500 </v>
    <v>       0.25023500       0.87425500       0.37476000 </v>
    <v>       0.50095250       0.12407750       0.62474500 </v>
    <v>       0.37553250       0.12507750       0.50016500 </v>
    <v>       0.24973750       0.12571750       0.37459500 </v>
    <v>       0.37600500       0.00007500       0.37466000 </v>
    <v>       0.25039000       0.00088000       0.24854000 </v>
    <v>       0.37534750       0.24987750       0.37305500 </v>
    <v>       0.49970000       0.00076500       0.24985000 </v>
    <v>       0.25027250       0.00022250       0.00012500 </v>
    <v>       0.62466750       0.24912250       0.37463500 </v>
    <v>       0.37446000       0.12498500       0.00162000 </v>
    <v>       0.49907250       0.37499750       0.12491500 </v>
    <v>       0.49965250       0.24988250       0.00137500 </v>
    <v>       0.37398000       0.25085000       0.87599000 </v>
    <v>       0.62457250       0.37420750       0.24977500 </v>
    <v>       0.37544250       0.37495750       0.50137500 </v>
    <v>       0.50023500       0.12425500       0.87476000 </v>
    <v>       0.75095250       0.37407750       0.12474500 </v>
    <v>       0.62553250       0.37507750       0.00016500 </v>
    <v>       0.49973750       0.37571750       0.87459500 </v>
    <v>       0.62600500       0.25007500       0.87466000 </v>
    <v>       0.50039000       0.25088000       0.74854000 </v>
    <v>       0.62534750       0.49987750       0.87305500 </v>
    <v>       0.74970000       0.25076500       0.74985000 </v>
    <v>       0.50027250       0.25022250       0.50012500 </v>
    <v>       0.87466750       0.49912250       0.87463500 </v>
    <v>       0.62446000       0.37498500       0.50162000 </v>
    <v>       0.74907250       0.62499750       0.62491500 </v>
    <v>       0.74965250       0.49988250       0.50137500 </v>
    <v>       0.62398000       0.50085000       0.37599000 </v>
    <v>       0.87457250       0.62420750       0.74977500 </v>
    <v>       0.62544250       0.12495750       0.00137500 </v>
    <v>       0.75023500       0.87425500       0.37476000 </v>
    <v>       0.00095250       0.12407750       0.62474500 </v>
    <v>       0.87553250       0.12507750       0.50016500 </v>
    <v>       0.74973750       0.12571750       0.37459500 </v>
    <v>       0.87600500       0.00007500       0.37466000 </v>
    <v>       0.75039000       0.00088000       0.24854000 </v>
    <v>       0.87534750       0.24987750       0.37305500 </v>
    <v>       0.99970000       0.00076500       0.24985000 </v>
    <v>       0.75027250       0.00022250       0.00012500 </v>
    <v>       0.12466500       0.24652000       0.37463000 </v>
    <v>       0.87445750       0.12498750       0.00161500 </v>
    <v>       0.99907250       0.37499750       0.12491500 </v>
    <v>       0.99965250       0.24988250       0.00137500 </v>
    <v>       0.87398000       0.25085000       0.87599000 </v>
    <v>       0.12457250       0.37420750       0.24977500 </v>
    <v>       0.12544250       0.62495750       0.00137500 </v>
    <v>       0.25023500       0.37425500       0.37476000 </v>
    <v>       0.50095250       0.62407750       0.62474500 </v>
    <v>       0.37553250       0.62507750       0.50016500 </v>
    <v>       0.24973750       0.62571750       0.37459500 </v>
    <v>       0.37600500       0.50007500       0.37466000 </v>
    <v>       0.25039000       0.50088000       0.24854000 </v>
    <v>       0.37534750       0.74987750       0.37305500 </v>
    <v>       0.49970000       0.50076500       0.24985000 </v>
    <v>       0.25027250       0.50022250       0.00012500 </v>
    <v>       0.62466750       0.74912250       0.37463500 </v>
    <v>       0.37446000       0.62498500       0.00162000 </v>
    <v>       0.49907250       0.87499750       0.12491500 </v>
    <v>       0.49965250       0.74988250       0.00137500 </v>
    <v>       0.37397750       0.75084750       0.87598500 </v>
    <v>       0.62457250       0.87420750       0.24977500 </v>
    <v>       0.87544250       0.37495750       0.50137500 </v>
    <v>       0.00023500       0.12425500       0.87476000 </v>
    <v>       0.25095250       0.37407750       0.12474500 </v>
    <v>       0.12553250       0.37507750       0.00016500 </v>
    <v>       0.99973750       0.37571750       0.87459500 </v>
    <v>       0.12600500       0.25007500       0.87466000 </v>
    <v>       0.00039000       0.25088000       0.74854000 </v>
    <v>       0.12534750       0.49987750       0.87305500 </v>
    <v>       0.24970000       0.25076500       0.74985000 </v>
    <v>       0.00027250       0.25022250       0.50012500 </v>
    <v>       0.37466750       0.49912250       0.87463500 </v>
    <v>       0.12446000       0.37498500       0.50162000 </v>
    <v>       0.24907250       0.62499750       0.62491500 </v>
    <v>       0.24965250       0.49988250       0.50137500 </v>
    <v>       0.12397750       0.50084750       0.37598500 </v>
    <v>       0.37457250       0.62420750       0.74977500 </v>
    <v>       0.37544250       0.87495750       0.50137500 </v>
    <v>       0.50023500       0.62425500       0.87476000 </v>
    <v>       0.75095250       0.87407750       0.12474500 </v>
    <v>       0.62553250       0.87507750       0.00016500 </v>
    <v>       0.49973750       0.87571750       0.87459500 </v>
    <v>       0.62600250       0.75007250       0.87465500 </v>
    <v>       0.50039000       0.75088000       0.74854000 </v>
    <v>       0.62534750       0.99987750       0.87305500 </v>
    <v>       0.74970000       0.75076500       0.74985000 </v>
    <v>       0.50027250       0.75022250       0.50012500 </v>
    <v>       0.87466750       0.99912250       0.87463500 </v>
    <v>       0.62446000       0.87498500       0.50162000 </v>
    <v>       0.74907250       0.12499750       0.62491500 </v>
    <v>       0.74965250       0.99988250       0.50137500 </v>
    <v>       0.62397750       0.00084750       0.37598500 </v>
    <v>       0.87457250       0.12420750       0.74977500 </v>
    <v>       0.62544250       0.62495750       0.00137500 </v>
    <v>       0.75023500       0.37425500       0.37476000 </v>
    <v>       0.00095250       0.62407750       0.62474500 </v>
    <v>       0.87553250       0.62507750       0.50016500 </v>
    <v>       0.74973750       0.62571750       0.37459500 </v>
    <v>       0.87600500       0.50007500       0.37466000 </v>
    <v>       0.75039000       0.50088000       0.24854000 </v>
    <v>       0.87534750       0.74987750       0.37305500 </v>
    <v>       0.99970000       0.50076500       0.24985000 </v>
    <v>       0.75027250       0.50022250       0.00012500 </v>
    <v>       0.12466750       0.74912250       0.37463500 </v>
    <v>       0.87445750       0.62498750       0.00161500 </v>
    <v>       0.99907250       0.87499750       0.12491500 </v>
    <v>       0.99965250       0.74988250       0.00137500 </v>
    <v>       0.87398000       0.75085000       0.87599000 </v>
    <v>       0.12457250       0.87420750       0.24977500 </v>
    <v>       0.87544250       0.87495750       0.50137500 </v>
    <v>       0.00023500       0.62425500       0.87476000 </v>
    <v>       0.25095000       0.87407500       0.12474000 </v>
    <v>       0.12553250       0.87507750       0.00016500 </v>
    <v>       0.99973750       0.87571750       0.87459500 </v>
    <v>       0.12600250       0.75007250       0.87465500 </v>
    <v>       0.00039000       0.75088000       0.74854000 </v>
    <v>       0.12534750       0.99987750       0.87305500 </v>
    <v>       0.24970000       0.75076500       0.74985000 </v>
    <v>       0.00027250       0.75022250       0.50012500 </v>
    <v>       0.37466750       0.99912250       0.87463500 </v>
    <v>       0.12446000       0.87498500       0.50162000 </v>
    <v>       0.24907250       0.12499750       0.62491500 </v>
    <v>       0.24965250       0.99988250       0.50137500 </v>
    <v>       0.12397750       0.00084750       0.37598500 </v>
    <v>       0.37457250       0.12420750       0.74977500 </v>
    <v>       0.25026250       0.24934750       0.24886500 </v>
    <v>       0.37540000       0.99901500       0.62581000 </v>
    <v>       0.25026250       0.24988250       0.99990500 </v>
    <v>       0.37536500       0.37434000       0.25012000 </v>
    <v>       0.12452500       0.00102500       0.12470000 </v>
    <v>       0.62450750       0.12506750       0.49982500 </v>
    <v>       0.50015250       0.12515750       0.37466500 </v>
    <v>       0.37555250       0.12560250       0.24861500 </v>
    <v>       0.24996250       0.12589750       0.12593500 </v>
    <v>       0.37545500       0.00032500       0.12460000 </v>
    <v>       0.49970750       0.24909250       0.24996500 </v>
    <v>       0.37461750       0.87555250       0.74886500 </v>
    <v>       0.37463500       0.24969000       0.12600000 </v>
    <v>       0.50001500       0.12515000       0.12596000 </v>
    <v>       0.49971750       0.00013750       0.00129500 </v>
    <v>       0.24985750       0.12477250       0.87470500 </v>
    <v>       0.50026250       0.49934750       0.74886500 </v>
    <v>       0.62540000       0.24901500       0.12581000 </v>
    <v>       0.50026250       0.49988250       0.49990500 </v>
    <v>       0.62536500       0.62434000       0.75012000 </v>
    <v>       0.37452500       0.25102500       0.62470000 </v>
    <v>       0.87450750       0.37506750       0.99982500 </v>
    <v>       0.75015250       0.37515750       0.87466500 </v>
    <v>       0.62555250       0.37560250       0.74861500 </v>
    <v>       0.49996250       0.37589750       0.62593500 </v>
    <v>       0.62545500       0.25032500       0.62460000 </v>
    <v>       0.74970750       0.49909250       0.74996500 </v>
    <v>       0.62461750       0.12555250       0.24886500 </v>
    <v>       0.62463250       0.49969250       0.62599500 </v>
    <v>       0.75001500       0.37515000       0.62596000 </v>
    <v>       0.74971750       0.25013750       0.50129500 </v>
    <v>       0.49985750       0.37477250       0.37470500 </v>
    <v>       0.75026250       0.24934750       0.24886500 </v>
    <v>       0.87540000       0.99901500       0.62581000 </v>
    <v>       0.75026250       0.24988250       0.99990500 </v>
    <v>       0.87536500       0.37434000       0.25012000 </v>
    <v>       0.62452500       0.00102500       0.12470000 </v>
    <v>       0.12450750       0.12506750       0.49982500 </v>
    <v>       0.00015250       0.12515750       0.37466500 </v>
    <v>       0.87555250       0.12560250       0.24861500 </v>
    <v>       0.74996250       0.12589750       0.12593500 </v>
    <v>       0.87545500       0.00032500       0.12460000 </v>
    <v>       0.99970750       0.24909250       0.24996500 </v>
    <v>       0.87461750       0.87555250       0.74886500 </v>
    <v>       0.87463250       0.24969250       0.12599500 </v>
    <v>       0.00001500       0.12515000       0.12596000 </v>
    <v>       0.99971750       0.00013750       0.00129500 </v>
    <v>       0.74985750       0.12477250       0.87470500 </v>
    <v>       0.25026250       0.74934750       0.24886500 </v>
    <v>       0.37540000       0.49901500       0.62581000 </v>
    <v>       0.25026250       0.74988250       0.99990500 </v>
    <v>       0.37536500       0.87434000       0.25012000 </v>
    <v>       0.12452500       0.50102500       0.12470000 </v>
    <v>       0.62450750       0.62506750       0.49982500 </v>
    <v>       0.50015250       0.62515750       0.37466500 </v>
    <v>       0.37555250       0.62560250       0.24861500 </v>
    <v>       0.24996250       0.62589750       0.12593500 </v>
    <v>       0.37545500       0.50032500       0.12460000 </v>
    <v>       0.49970750       0.74909250       0.24996500 </v>
    <v>       0.37461750       0.37555250       0.74886500 </v>
    <v>       0.37463500       0.74969000       0.12600000 </v>
    <v>       0.50001500       0.62515000       0.12596000 </v>
    <v>       0.49971750       0.50013750       0.00129500 </v>
    <v>       0.24985750       0.62477250       0.87470500 </v>
    <v>       0.00026250       0.49934750       0.74886500 </v>
    <v>       0.12540000       0.24901500       0.12581000 </v>
    <v>       0.00026250       0.49988250       0.49990500 </v>
    <v>       0.12536500       0.62434000       0.75012000 </v>
    <v>       0.87452500       0.25102500       0.62470000 </v>
    <v>       0.37450750       0.37506750       0.99982500 </v>
    <v>       0.25015250       0.37515750       0.87466500 </v>
    <v>       0.12555250       0.37560250       0.74861500 </v>
    <v>       0.99996250       0.37589750       0.62593500 </v>
    <v>       0.12545500       0.25032500       0.62460000 </v>
    <v>       0.24970750       0.49909250       0.74996500 </v>
    <v>       0.12461750       0.12555250       0.24886500 </v>
    <v>       0.12463250       0.49969250       0.62599500 </v>
    <v>       0.25001500       0.37515000       0.62596000 </v>
    <v>       0.24971750       0.25013750       0.50129500 </v>
    <v>       0.99985750       0.37477250       0.37470500 </v>
    <v>       0.50026250       0.99934750       0.74886500 </v>
    <v>       0.62540000       0.74901500       0.12581000 </v>
    <v>       0.50026250       0.99988250       0.49990500 </v>
    <v>       0.62536500       0.12434000       0.75012000 </v>
    <v>       0.37452500       0.75102500       0.62470000 </v>
    <v>       0.87450750       0.87506750       0.99982500 </v>
    <v>       0.75015250       0.87515750       0.87466500 </v>
    <v>       0.62555250       0.87560250       0.74861500 </v>
    <v>       0.49996250       0.87589750       0.62593500 </v>
    <v>       0.62545500       0.75032500       0.62460000 </v>
    <v>       0.74970750       0.99909250       0.74996500 </v>
    <v>       0.62461750       0.62555250       0.24886500 </v>
    <v>       0.62463250       0.99969250       0.62599500 </v>
    <v>       0.75001500       0.87515000       0.62596000 </v>
    <v>       0.74971750       0.75013750       0.50129500 </v>
    <v>       0.49985750       0.87477250       0.37470500 </v>
    <v>       0.75026250       0.74934750       0.24886500 </v>
    <v>       0.87540000       0.49901500       0.62581000 </v>
    <v>       0.75026250       0.74988250       0.99990500 </v>
    <v>       0.87536500       0.87434000       0.25012000 </v>
    <v>       0.62452500       0.50102500       0.12470000 </v>
    <v>       0.12450750       0.62506750       0.49982500 </v>
    <v>       0.00015250       0.62515750       0.37466500 </v>
    <v>       0.87555250       0.62560250       0.24861500 </v>
    <v>       0.74996250       0.62589750       0.12593500 </v>
    <v>       0.87545500       0.50032500       0.12460000 </v>
    <v>       0.99970750       0.74909250       0.24996500 </v>
    <v>       0.87461750       0.37555250       0.74886500 </v>
    <v>       0.87463250       0.74969250       0.12599500 </v>
    <v>       0.00001500       0.62515000       0.12596000 </v>
    <v>       0.99971750       0.50013750       0.00129500 </v>
    <v>       0.74985750       0.62477250       0.87470500 </v>
    <v>       0.00026250       0.99934750       0.74886500 </v>
    <v>       0.12540000       0.74901500       0.12581000 </v>
    <v>       0.00026250       0.99988250       0.49990500 </v>
    <v>       0.12536500       0.12434000       0.75012000 </v>
    <v>       0.87452500       0.75102500       0.62470000 </v>
    <v>       0.37450750       0.87506750       0.99982500 </v>
    <v>       0.25015250       0.87515750       0.87466500 </v>
    <v>       0.12555250       0.87560250       0.74861500 </v>
    <v>       0.99996250       0.87589750       0.62593500 </v>
    <v>       0.12545500       0.75032500       0.62460000 </v>
    <v>       0.24970750       0.99909250       0.74996500 </v>
    <v>       0.12461750       0.62555250       0.24886500 </v>
    <v>       0.12463500       0.99969000       0.62600000 </v>
    <v>       0.25001250       0.87514750       0.62596500 </v>
    <v>       0.24971750       0.75013750       0.50129500 </v>
    <v>       0.99985750       0.87477250       0.37470500 </v>
   </varray>
  </structure>
  <varray name="forces" >
   <v>       0.01013762       0.00234956       0.00177220 </v>
   <v>      -0.00557769      -0.00196737       0.00028563 </v>
   <v>       0.01144579       0.00275558      -0.00096051 </v>
   <v>       0.00476874       0.00513201       0.00242730 </v>
   <v>       0.00783328       0.06814359       0.05074557 </v>
   <v>      -0.00093361       0.00848136       0.01243206 </v>
   <v>       0.00047884       0.00391499       0.00613227 </v>
   <v>      -0.00498191       0.00638852      -0.00765144 </v>
   <v>      -0.00875948      -0.00106391      -0.00821599 </v>
   <v>       0.00403309      -0.00108796      -0.00257086 </v>
   <v>      -0.00357547      -0.00232789       0.00534354 </v>
   <v>      -0.00653069      -0.00241008       0.00142485 </v>
   <v>      -0.00153447      -0.00412628       0.00849630 </v>
   <v>      -0.00573696       0.00039311       0.00041569 </v>
   <v>       0.00531831       0.00109821      -0.00448399 </v>
   <v>       0.00343837      -0.00168396       0.00101637 </v>
   <v>       0.00851496      -0.00087590       0.00543554 </v>
   <v>      -0.00566673      -0.00021812       0.00103213 </v>
   <v>       0.01039787       0.00378198      -0.00081945 </v>
   <v>       0.00112174       0.00060297      -0.00396434 </v>
   <v>       0.00851322       0.00143895      -0.00301667 </v>
   <v>      -0.00091583      -0.00359693      -0.00089482 </v>
   <v>      -0.00447058      -0.00236270      -0.00396885 </v>
   <v>      -0.00516148       0.00598045       0.00060550 </v>
   <v>      -0.00824969       0.00087804      -0.00719453 </v>
   <v>       0.00557929      -0.00166863      -0.00343158 </v>
   <v>      -0.00310195      -0.00204448       0.00503052 </v>
   <v>      -0.00710508      -0.00252147       0.00243507 </v>
   <v>      -0.00166729      -0.00510051       0.00968409 </v>
   <v>      -0.00613367      -0.00055912      -0.00111979 </v>
   <v>       0.00549758       0.00091368      -0.00353567 </v>
   <v>       0.00261142      -0.00168533       0.00114709 </v>
   <v>       0.01125557       0.00243611       0.00065149 </v>
   <v>      -0.00507009      -0.00457852       0.00536137 </v>
   <v>       0.00636412       0.00608346       0.00502835 </v>
   <v>       0.00543953      -0.00431496       0.00294329 </v>
   <v>       0.00855586       0.00377898      -0.00278131 </v>
   <v>      -0.00149909      -0.02047772       0.01884683 </v>
   <v>      -0.00500380      -0.00098955      -0.00521826 </v>
   <v>      -0.00484895       0.00540085      -0.00468775 </v>
   <v>      -0.00295157      -0.00431612       0.00339883 </v>
   <v>       0.00536167      -0.00104524      -0.00208790 </v>
   <v>       0.00352562      -0.00715171      -0.57048255 </v>
   <v>      -0.00777230      -0.00168231       0.00226031 </v>
   <v>      -0.00556611      -0.00834265       0.01413287 </v>
   <v>      -0.00626007       0.00068603      -0.00169005 </v>
   <v>       0.00527009       0.00094053      -0.00462605 </v>
   <v>      -0.04960336      -0.00001398       0.04193557 </v>
   <v>       0.00696147       0.00235411       0.00491738 </v>
   <v>      -0.00544512      -0.05069461       0.03967696 </v>
   <v>       0.01090475       0.00352079       0.00003886 </v>
   <v>       0.00068209       0.00224130      -0.00566255 </v>
   <v>       0.00817290       0.00302852      -0.00351917 </v>
   <v>      -0.00079893      -0.01430898       0.01125685 </v>
   <v>      -0.00857578      -0.00565150       0.00341511 </v>
   <v>      -0.00531483       0.00552191      -0.00382101 </v>
   <v>      -0.00796648       0.00223658      -0.00810419 </v>
   <v>       0.00670178      -0.00063769      -0.00255059 </v>
   <v>      -0.00315925      -0.00240891      -0.00681157 </v>
   <v>      -0.00584503      -0.00256515       0.00218517 </v>
   <v>      -0.00164701      -0.00513491       0.00954501 </v>
   <v>      -0.00548678       0.00003569      -0.00015946 </v>
   <v>       0.00394244       0.00125605      -0.00618912 </v>
   <v>       0.00360712      -0.00180418       0.00129225 </v>
   <v>       0.00743246       0.00658863       0.00630256 </v>
   <v>      -0.00558991      -0.00076494       0.00137433 </v>
   <v>       0.00684564       0.00809837       0.00523193 </v>
   <v>       0.00176146       0.00052888      -0.00370625 </v>
   <v>       0.00892223       0.00178369      -0.00288496 </v>
   <v>      -0.00077225      -0.00363814       0.00019134 </v>
   <v>      -0.00457250      -0.00175301      -0.00618359 </v>
   <v>      -0.00485389       0.00625798       0.00106300 </v>
   <v>      -0.00849522       0.00043711      -0.00891647 </v>
   <v>       0.00884480       0.00360759      -0.00253776 </v>
   <v>      -0.00350779      -0.00298957       0.00508794 </v>
   <v>       0.03139187      -0.00008517       0.03120845 </v>
   <v>      -0.00341461      -0.00458596       0.00717084 </v>
   <v>      -0.00175199      -0.00395023       0.00846515 </v>
   <v>       0.00389242       0.00244283       0.02376902 </v>
   <v>       0.00273835      -0.00211817       0.00096405 </v>
   <v>       0.01291318       0.00059478      -0.00076451 </v>
   <v>      -0.00555238      -0.00070830       0.00069577 </v>
   <v>       0.01055249       0.00348290      -0.00014966 </v>
   <v>       0.00158454       0.00080785      -0.00384317 </v>
   <v>       0.00865296       0.00208477      -0.00351436 </v>
   <v>      -0.00200695      -0.00320877      -0.00027084 </v>
   <v>      -0.00459559      -0.00198952      -0.00405477 </v>
   <v>      -0.00508073       0.00576404       0.00094685 </v>
   <v>      -0.00870470       0.00057692      -0.00734656 </v>
   <v>       0.00500852      -0.00120605      -0.00187361 </v>
   <v>      -0.00338746      -0.00281498       0.00505833 </v>
   <v>      -0.00690470      -0.00236639       0.00252866 </v>
   <v>      -0.00146120      -0.00465743       0.00850046 </v>
   <v>      -0.00520763       0.00100653      -0.00093572 </v>
   <v>       0.00405735       0.00148550      -0.00378130 </v>
   <v>       0.00357280      -0.00100515       0.00034342 </v>
   <v>       0.01163572       0.00228876       0.00054000 </v>
   <v>      -0.00546622      -0.00203738       0.00089091 </v>
   <v>       0.00888011       0.00357001      -0.00173047 </v>
   <v>       0.00101394      -0.00054131      -0.00540116 </v>
   <v>       0.00811127       0.00599491       0.00188425 </v>
   <v>      -0.00022244       0.01341490       0.01879614 </v>
   <v>      -0.00383763      -0.00320974      -0.00507783 </v>
   <v>      -0.00500472       0.00600281      -0.00349314 </v>
   <v>      -0.01256327       0.00336918       0.00102027 </v>
   <v>       0.00513864      -0.00087743      -0.00214561 </v>
   <v>      -0.00327945      -0.00235383       0.00801469 </v>
   <v>      -0.00759685      -0.00222367       0.00289778 </v>
   <v>      -0.00318455      -0.00469454       0.00748309 </v>
   <v>      -0.00565292       0.00050105       0.00033893 </v>
   <v>       0.00509986       0.00094538      -0.00602392 </v>
   <v>       0.00200169      -0.00192039      -0.00125524 </v>
   <v>       0.01250056       0.00324016      -0.00002259 </v>
[...]
       <r>     9.7494   243.8243  2303.5772 </r>
       <r>     9.7960   224.2676  2314.0280 </r>
       <r>     9.8426   219.4898  2324.2562 </r>
       <r>     9.8892   236.5809  2335.2809 </r>
       <r>     9.9358   264.1815  2347.5917 </r>
       <r>     9.9824   295.1085  2361.3438 </r>
       <r>    10.0290   327.2441  2376.5933 </r>
       <r>    10.0756   349.0946  2392.8611 </r>
       <r>    10.1222   346.3824  2409.0025 </r>
       <r>    10.1688   323.9626  2424.0992 </r>
       <r>    10.2154   310.1901  2438.5540 </r>
       <r>    10.2620   329.1130  2453.8907 </r>
       <r>    10.3086   387.1067  2471.9298 </r>
       <r>    10.3552   466.3085  2493.6598 </r>
       <r>    10.4018   518.4834  2517.8211 </r>
       <r>    10.4484   509.1342  2541.5467 </r>
       <r>    10.4950   450.5442  2562.5420 </r>
       <r>    10.5416   374.0002  2579.9704 </r>
       <r>    10.5882   302.1535  2594.0508 </r>
       <r>    10.6348   248.1905  2605.6164 </r>
       <r>    10.6814   212.2987  2615.5095 </r>
       <r>    10.7280   180.7396  2623.9320 </r>
       <r>    10.7746   141.8249  2630.5410 </r>
       <r>    10.8212    96.9651  2635.0596 </r>
       <r>    10.8678    56.2271  2637.6798 </r>
       <r>    10.9144    27.3439  2638.9540 </r>
       <r>    10.9610    10.6700  2639.4512 </r>
       <r>    11.0076     3.1763  2639.5992 </r>
       <r>    11.0542     1.5188  2639.6700 </r>
       <r>    11.1008     2.0040  2639.7634 </r>
       <r>    11.1474     1.8202  2639.8482 </r>
       <r>    11.1940     0.7619  2639.8837 </r>
       <r>    11.2406     0.0079  2639.8841 </r>
       <r>    11.2872    -0.1266  2639.8782 </r>
       <r>    11.3338    -0.0551  2639.8756 </r>
       <r>    11.3804    -0.0118  2639.8751 </r>
       <r>    11.4270    -0.0036  2639.8749 </r>
       <r>    11.4736    -0.0133  2639.8743 </r>
       <r>    11.5202    -0.0427  2639.8723 </r>
       <r>    11.5668    -0.0349  2639.8707 </r>
       <r>    11.6134     0.2039  2639.8802 </r>
       <r>    11.6600     0.7209  2639.9138 </r>
       <r>    11.7066     1.0260  2639.9616 </r>
       <r>    11.7532     0.7172  2639.9950 </r>
       <r>    11.7998     0.2010  2640.0044 </r>
       <r>    11.8464    -0.0355  2640.0027 </r>
       <r>    11.8930    -0.0424  2640.0007 </r>
       <r>    11.9396    -0.0131  2640.0001 </r>
       <r>    11.9862    -0.0021  2640.0000 </r>
       <r>    12.0328    -0.0002  2640.0000 </r>
       <r>    12.0794    -0.0000  2640.0000 </r>
       <r>    12.1260    -0.0000  2640.0000 </r>
       <r>    12.1726    -0.0000  2640.0000 </r>
       <r>    12.2192    -0.0000  2640.0000 </r>
       <r>    12.2658    -0.0000  2640.0000 </r>
       <r>    12.3124    -0.0000  2640.0000 </r>
       <r>    12.3590     0.0000  2640.0000 </r>
       <r>    12.4056     0.0000  2640.0000 </r>
       <r>    12.4522     0.0000  2640.0000 </r>
       <r>    12.4988     0.0000  2640.0000 </r>
       <r>    12.5454     0.0000  2640.0000 </r>
       <r>    12.5920     0.0000  2640.0000 </r>
       <r>    12.6386     0.0000  2640.0000 </r>
       <r>    12.6852     0.0000  2640.0000 </r>
      </set>
     </set>
    </array>
   </total>
  </dos>
 </calculation>
 <structure name="finalpos" >
  <crystal>
   <varray name="basis" >
    <v>       0.00188000      15.37080000       0.00140000 </v>
    <v>       0.00152000      -0.00140000     -15.37218000 </v>
    <v>     -15.37636000      -0.00188000       0.00151000 </v>
   </varray>
   <i name="volume">   3633.16780401 </i>
   <varray name="rec_basis" >
    <v>      -0.00000795       0.06505842      -0.00000593 </v>
    <v>      -0.00000639       0.00000593      -0.06505258 </v>
    <v>      -0.06503490       0.00000795      -0.00000643 </v>
   </varray>
  </crystal>
  <varray name="positions" >
   <v>       0.12544250       0.12495750       0.00137500 </v>
   <v>       0.25023500       0.87425500       0.37476000 </v>
   <v>       0.50095250       0.12407750       0.62474500 </v>
   <v>       0.37553250       0.12507750       0.50016500 </v>
   <v>       0.24973750       0.12571750       0.37459500 </v>
   <v>       0.37600500       0.00007500       0.37466000 </v>
   <v>       0.25039000       0.00088000       0.24854000 </v>
   <v>       0.37534750       0.24987750       0.37305500 </v>
   <v>       0.49970000       0.00076500       0.24985000 </v>
   <v>       0.25027250       0.00022250       0.00012500 </v>
   <v>       0.62466750       0.24912250       0.37463500 </v>
   <v>       0.37446000       0.12498500       0.00162000 </v>
   <v>       0.49907250       0.37499750       0.12491500 </v>
   <v>       0.49965250       0.24988250       0.00137500 </v>
   <v>       0.37398000       0.25085000       0.87599000 </v>
   <v>       0.62457250       0.37420750       0.24977500 </v>
   <v>       0.37544250       0.37495750       0.50137500 </v>
   <v>       0.50023500       0.12425500       0.87476000 </v>
   <v>       0.75095250       0.37407750       0.12474500 </v>
   <v>       0.62553250       0.37507750       0.00016500 </v>
   <v>       0.49973750       0.37571750       0.87459500 </v>
   <v>       0.62600500       0.25007500       0.87466000 </v>
   <v>       0.50039000       0.25088000       0.74854000 </v>
   <v>       0.62534750       0.49987750       0.87305500 </v>
   <v>       0.74970000       0.25076500       0.74985000 </v>
   <v>       0.50027250       0.25022250       0.50012500 </v>
   <v>       0.87466750       0.49912250       0.87463500 </v>
   <v>       0.62446000       0.37498500       0.50162000 </v>
   <v>       0.74907250       0.62499750       0.62491500 </v>
   <v>       0.74965250       0.49988250       0.50137500 </v>
   <v>       0.62398000       0.50085000       0.37599000 </v>
   <v>       0.87457250       0.62420750       0.74977500 </v>
   <v>       0.62544250       0.12495750       0.00137500 </v>
   <v>       0.75023500       0.87425500       0.37476000 </v>
   <v>       0.00095250       0.12407750       0.62474500 </v>
   <v>       0.87553250       0.12507750       0.50016500 </v>
   <v>       0.74973750       0.12571750       0.37459500 </v>
   <v>       0.87600500       0.00007500       0.37466000 </v>
   <v>       0.75039000       0.00088000       0.24854000 </v>
   <v>       0.87534750       0.24987750       0.37305500 </v>
   <v>       0.99970000       0.00076500       0.24985000 </v>
   <v>       0.75027250       0.00022250       0.00012500 </v>
   <v>       0.12466500       0.24652000       0.37463000 </v>
   <v>       0.87445750       0.12498750       0.00161500 </v>
   <v>       0.99907250       0.37499750       0.12491500 </v>
   <v>       0.99965250       0.24988250       0.00137500 </v>
   <v>       0.87398000       0.25085000       0.87599000 </v>
   <v>       0.12457250       0.37420750       0.24977500 </v>
   <v>       0.12544250       0.62495750       0.00137500 </v>
   <v>       0.25023500       0.37425500       0.37476000 </v>
   <v>       0.50095250       0.62407750       0.62474500 </v>
   <v>       0.37553250       0.62507750       0.50016500 </v>
   <v>       0.24973750       0.62571750       0.37459500 </v>
   <v>       0.37600500       0.50007500       0.37466000 </v>
   <v>       0.25039000       0.50088000       0.24854000 </v>
   <v>       0.37534750       0.74987750       0.37305500 </v>
   <v>       0.49970000       0.50076500       0.24985000 </v>
   <v>       0.25027250       0.50022250       0.00012500 </v>
   <v>       0.62466750       0.74912250       0.37463500 </v>
   <v>       0.37446000       0.62498500       0.00162000 </v>
   <v>       0.49907250       0.87499750       0.12491500 </v>
   <v>       0.49965250       0.74988250       0.00137500 </v>
   <v>       0.37397750       0.75084750       0.87598500 </v>
   <v>       0.62457250       0.87420750       0.24977500 </v>
   <v>       0.87544250       0.37495750       0.50137500 </v>
   <v>       0.00023500       0.12425500       0.87476000 </v>
   <v>       0.25095250       0.37407750       0.12474500 </v>
   <v>       0.12553250       0.37507750       0.00016500 </v>
   <v>       0.99973750       0.37571750       0.87459500 </v>
   <v>       0.12600500       0.25007500       0.87466000 </v>
   <v>       0.00039000       0.25088000       0.74854000 </v>
   <v>       0.12534750       0.49987750       0.87305500 </v>
   <v>       0.24970000       0.25076500       0.74985000 </v>
   <v>       0.00027250       0.25022250       0.50012500 </v>
   <v>       0.37466750       0.49912250       0.87463500 </v>
   <v>       0.12446000       0.37498500       0.50162000 </v>
   <v>       0.24907250       0.62499750       0.62491500 </v>
   <v>       0.24965250       0.49988250       0.50137500 </v>
   <v>       0.12397750       0.50084750       0.37598500 </v>
   <v>       0.37457250       0.62420750       0.74977500 </v>
   <v>       0.37544250       0.87495750       0.50137500 </v>
   <v>       0.50023500       0.62425500       0.87476000 </v>
   <v>       0.75095250       0.87407750       0.12474500 </v>
   <v>       0.62553250       0.87507750       0.00016500 </v>
   <v>       0.49973750       0.87571750       0.87459500 </v>
   <v>       0.62600250       0.75007250       0.87465500 </v>
   <v>       0.50039000       0.75088000       0.74854000 </v>
   <v>       0.62534750       0.99987750       0.87305500 </v>
   <v>       0.74970000       0.75076500       0.74985000 </v>
   <v>       0.50027250       0.75022250       0.50012500 </v>
   <v>       0.87466750       0.99912250       0.87463500 </v>
   <v>       0.62446000       0.87498500       0.50162000 </v>
   <v>       0.74907250       0.12499750       0.62491500 </v>
   <v>       0.74965250       0.99988250       0.50137500 </v>
   <v>       0.62397750       0.00084750       0.37598500 </v>
   <v>       0.87457250       0.12420750       0.74977500 </v>
   <v>       0.62544250       0.62495750       0.00137500 </v>
   <v>       0.75023500       0.37425500       0.37476000 </v>
   <v>       0.00095250       0.62407750       0.62474500 </v>
   <v>       0.87553250       0.62507750       0.50016500 </v>
   <v>       0.74973750       0.62571750       0.37459500 </v>
   <v>       0.87600500       0.50007500       0.37466000 </v>
   <v>       0.75039000       0.50088000       0.24854000 </v>
   <v>       0.87534750       0.74987750       0.37305500 </v>
   <v>       0.99970000       0.50076500       0.24985000 </v>
   <v>       0.75027250       0.50022250       0.00012500 </v>
   <v>       0.12466750       0.74912250       0.37463500 </v>
   <v>       0.87445750       0.62498750       0.00161500 </v>
   <v>       0.99907250       0.87499750       0.12491500 </v>
   <v>       0.99965250       0.74988250       0.00137500 </v>
   <v>       0.87398000       0.75085000       0.87599000 </v>
   <v>       0.12457250       0.87420750       0.24977500 </v>
   <v>       0.87544250       0.87495750       0.50137500 </v>
   <v>       0.00023500       0.62425500       0.87476000 </v>
   <v>       0.25095000       0.87407500       0.12474000 </v>
   <v>       0.12553250       0.87507750       0.00016500 </v>
   <v>       0.99973750       0.87571750       0.87459500 </v>
   <v>       0.12600250       0.75007250       0.87465500 </v>
   <v>       0.00039000       0.75088000       0.74854000 </v>
   <v>       0.12534750       0.99987750       0.87305500 </v>
   <v>       0.24970000       0.75076500       0.74985000 </v>
   <v>       0.00027250       0.75022250       0.50012500 </v>
   <v>       0.37466750       0.99912250       0.87463500 </v>
   <v>       0.12446000       0.87498500       0.50162000 </v>
   <v>       0.24907250       0.12499750       0.62491500 </v>
   <v>       0.24965250       0.99988250       0.50137500 </v>
   <v>       0.12397750       0.00084750       0.37598500 </v>
   <v>       0.37457250       0.12420750       0.74977500 </v>
   <v>       0.25026250       0.24934750       0.24886500 </v>
   <v>       0.37540000       0.99901500       0.62581000 </v>
   <v>       0.25026250       0.24988250       0.99990500 </v>
   <v>       0.37536500       0.37434000       0.25012000 </v>
   <v>       0.12452500       0.00102500       0.12470000 </v>
   <v>       0.62450750       0.12506750       0.49982500 </v>
   <v>       0.50015250       0.12515750       0.37466500 </v>
   <v>       0.37555250       0.12560250       0.24861500 </v>
   <v>       0.24996250       0.12589750       0.12593500 </v>
   <v>       0.37545500       0.00032500       0.12460000 </v>
   <v>       0.49970750       0.24909250       0.24996500 </v>
   <v>       0.37461750       0.87555250       0.74886500 </v>
   <v>       0.37463500       0.24969000       0.12600000 </v>
   <v>       0.50001500       0.12515000       0.12596000 </v>
   <v>       0.49971750       0.00013750       0.00129500 </v>
   <v>       0.24985750       0.12477250       0.87470500 </v>
   <v>       0.50026250       0.49934750       0.74886500 </v>
   <v>       0.62540000       0.24901500       0.12581000 </v>
   <v>       0.50026250       0.49988250       0.49990500 </v>
   <v>       0.62536500       0.62434000       0.75012000 </v>
   <v>       0.37452500       0.25102500       0.62470000 </v>
   <v>       0.87450750       0.37506750       0.99982500 </v>
   <v>       0.75015250       0.37515750       0.87466500 </v>
   <v>       0.62555250       0.37560250       0.74861500 </v>
   <v>       0.49996250       0.37589750       0.62593500 </v>
   <v>       0.62545500       0.25032500       0.62460000 </v>
   <v>       0.74970750       0.49909250       0.74996500 </v>
   <v>       0.62461750       0.12555250       0.24886500 </v>
   <v>       0.62463250       0.49969250       0.62599500 </v>
   <v>       0.75001500       0.37515000       0.62596000 </v>
   <v>       0.74971750       0.25013750       0.50129500 </v>
   <v>       0.49985750       0.37477250       0.37470500 </v>
   <v>       0.75026250       0.24934750       0.24886500 </v>
   <v>       0.87540000       0.99901500       0.62581000 </v>
   <v>       0.75026250       0.24988250       0.99990500 </v>
   <v>       0.87536500       0.37434000       0.25012000 </v>
   <v>       0.62452500       0.00102500       0.12470000 </v>
   <v>       0.12450750       0.12506750       0.49982500 </v>
   <v>       0.00015250       0.12515750       0.37466500 </v>
   <v>       0.87555250       0.12560250       0.24861500 </v>
   <v>       0.74996250       0.12589750       0.12593500 </v>
   <v>       0.87545500       0.00032500       0.12460000 </v>
   <v>       0.99970750       0.24909250       0.24996500 </v>
   <v>       0.87461750       0.87555250       0.74886500 </v>
   <v>       0.87463250       0.24969250       0.12599500 </v>
   <v>       0.00001500       0.12515000       0.12596000 </v>
   <v>       0.99971750       0.00013750       0.00129500 </v>
   <v>       0.74985750       0.12477250       0.87470500 </v>
   <v>       0.25026250       0.74934750       0.24886500 </v>
   <v>       0.37540000       0.49901500       0.62581000 </v>
   <v>       0.25026250       0.74988250       0.99990500 </v>
   <v>       0.37536500       0.87434000       0.25012000 </v>
   <v>       0.12452500       0.50102500       0.12470000 </v>
   <v>       0.62450750       0.62506750       0.49982500 </v>
   <v>       0.50015250       0.62515750       0.37466500 </v>
   <v>       0.37555250       0.62560250       0.24861500 </v>
   <v>       0.24996250       0.62589750       0.12593500 </v>
   <v>       0.37545500       0.50032500       0.12460000 </v>
   <v>       0.49970750       0.74909250       0.24996500 </v>
   <v>       0.37461750       0.37555250       0.74886500 </v>
   <v>       0.37463500       0.74969000       0.12600000 </v>
   <v>       0.50001500       0.62515000       0.12596000 </v>
   <v>       0.49971750       0.50013750       0.00129500 </v>
   <v>       0.24985750       0.62477250       0.87470500 </v>
   <v>       0.00026250       0.49934750       0.74886500 </v>
   <v>       0.12540000       0.24901500       0.12581000 </v>
   <v>       0.00026250       0.49988250       0.49990500 </v>
   <v>       0.12536500       0.62434000       0.75012000 </v>
   <v>       0.87452500       0.25102500       0.62470000 </v>
   <v>       0.37450750       0.37506750       0.99982500 </v>
   <v>       0.25015250       0.37515750       0.87466500 </v>
   <v>       0.12555250       0.37560250       0.74861500 </v>
   <v>       0.99996250       0.37589750       0.62593500 </v>
   <v>       0.12545500       0.25032500       0.62460000 </v>
   <v>       0.24970750       0.49909250       0.74996500 </v>
   <v>       0.12461750       0.12555250       0.24886500 </v>
   <v>       0.12463250       0.49969250       0.62599500 </v>
   <v>       0.25001500       0.37515000       0.62596000 </v>
   <v>       0.24971750       0.25013750       0.50129500 </v>
   <v>       0.99985750       0.37477250       0.37470500 </v>
   <v>       0.50026250       0.99934750       0.74886500 </v>
   <v>       0.62540000       0.74901500       0.12581000 </v>
   <v>       0.50026250       0.99988250       0.49990500 </v>
   <v>       0.62536500       0.12434000       0.75012000 </v>
   <v>       0.37452500       0.75102500       0.62470000 </v>
   <v>       0.87450750       0.87506750       0.99982500 </v>
   <v>       0.75015250       0.87515750       0.87466500 </v>
   <v>       0.62555250       0.87560250       0.74861500 </v>
   <v>       0.49996250       0.87589750       0.62593500 </v>
   <v>       0.62545500       0.75032500       0.62460000 </v>
   <v>       0.74970750       0.99909250       0.74996500 </v>
   <v>       0.62461750       0.62555250       0.24886500 </v>
   <v>       0.62463250       0.99969250       0.62599500 </v>
   <v>       0.75001500       0.87515000       0.62596000 </v>
   <v>       0.74971750       0.75013750       0.50129500 </v>
   <v>       0.49985750       0.87477250       0.37470500 </v>
   <v>       0.75026250       0.74934750       0.24886500 </v>
   <v>       0.87540000       0.49901500       0.62581000 </v>
   <v>       0.75026250       0.74988250       0.99990500 </v>
   <v>       0.87536500       0.87434000       0.25012000 </v>
   <v>       0.62452500       0.50102500       0.12470000 </v>
   <v>       0.12450750       0.62506750       0.49982500 </v>
   <v>       0.00015250       0.62515750       0.37466500 </v>
   <v>       0.87555250       0.62560250       0.24861500 </v>
   <v>       0.74996250       0.62589750       0.12593500 </v>
   <v>       0.87545500       0.50032500       0.12460000 </v>
   <v>       0.99970750       0.74909250       0.24996500 </v>
   <v>       0.87461750       0.37555250       0.74886500 </v>
   <v>       0.87463250       0.74969250       0.12599500 </v>
   <v>       0.00001500       0.62515000       0.12596000 </v>
   <v>       0.99971750       0.50013750       0.00129500 </v>
   <v>       0.74985750       0.62477250       0.87470500 </v>
   <v>       0.00026250       0.99934750       0.74886500 </v>
   <v>       0.12540000       0.74901500       0.12581000 </v>
   <v>       0.00026250       0.99988250       0.49990500 </v>
   <v>       0.12536500       0.12434000       0.75012000 </v>
   <v>       0.87452500       0.75102500       0.62470000 </v>
   <v>       0.37450750       0.87506750       0.99982500 </v>
   <v>       0.25015250       0.87515750       0.87466500 </v>
   <v>       0.12555250       0.87560250       0.74861500 </v>
   <v>       0.99996250       0.87589750       0.62593500 </v>
   <v>       0.12545500       0.75032500       0.62460000 </v>
   <v>       0.24970750       0.99909250       0.74996500 </v>
   <v>       0.12461750       0.62555250       0.24886500 </v>
   <v>       0.12463500       0.99969000       0.62600000 </v>
   <v>       0.25001250       0.87514750       0.62596500 </v>
   <v>       0.24971750       0.75013750       0.50129500 </v>
   <v>       0.99985750       0.87477250       0.37470500 </v>
  </varray>
 </structure>
</modeling>
