 256 256   0   0
  0.1418917E+02  0.1588033E-08  0.1692661E-08  0.1693229E-08  0.5000000E-15
  1.000000000000000E-004
  CAR 
 Ir_Ru                                   
     14.27378981     -1.29193805  301      9.45691303      1.00000000
     -1.292  0.0000E+00  0.0000E+00
     -1.240  0.0000E+00  0.0000E+00
     -1.188  0.0000E+00  0.0000E+00
     -1.136 -0.2787E-30 -0.1446E-31
     -1.084 -0.1276E-26 -0.6621E-28
     -1.033 -0.3395E-23 -0.1762E-24
     -0.981 -0.5247E-20 -0.2724E-21
     -0.929 -0.4706E-17 -0.2445E-18
     -0.877 -0.2388E-14 -0.1241E-15
     -0.825 -0.7114E-12 -0.3704E-13
     -0.773 -0.1229E-09 -0.6411E-11
     -0.721 -0.1221E-07 -0.6398E-09
     -0.669 -0.6950E-06 -0.3670E-07
     -0.617 -0.2255E-04 -0.1207E-05
     -0.566 -0.4138E-03 -0.2268E-04
     -0.514 -0.4254E-02 -0.2434E-03
     -0.462 -0.2424E-01 -0.1501E-02
     -0.410 -0.7507E-01 -0.5397E-02
     -0.358 -0.1020E+00 -0.1069E-01
     -0.306  0.2045E+00 -0.7715E-04
     -0.254  0.1635E+01  0.8476E-01
     -0.202  0.4393E+01  0.3127E+00
     -0.150  0.6353E+01  0.6423E+00
     -0.099  0.6424E+01  0.9757E+00
     -0.047  0.6959E+01  0.1337E+01
      0.005  0.8852E+01  0.1796E+01
      0.057  0.1117E+02  0.2376E+01
      0.109  0.1361E+02  0.3082E+01
      0.161  0.1435E+02  0.3826E+01
      0.213  0.1171E+02  0.4434E+01
      0.265  0.1006E+02  0.4956E+01
      0.317  0.1423E+02  0.5694E+01
      0.368  0.2032E+02  0.6748E+01
      0.420  0.2253E+02  0.7918E+01
      0.472  0.2273E+02  0.9097E+01
      0.524  0.2351E+02  0.1032E+02
      0.576  0.2252E+02  0.1149E+02
      0.628  0.2044E+02  0.1255E+02
      0.680  0.2100E+02  0.1364E+02
      0.732  0.2038E+02  0.1469E+02
      0.783  0.1461E+02  0.1545E+02
      0.835  0.8895E+01  0.1591E+02
      0.887  0.8037E+01  0.1633E+02
      0.939  0.1171E+02  0.1694E+02
      0.991  0.1894E+02  0.1792E+02
      1.043  0.2787E+02  0.1937E+02
      1.095  0.3333E+02  0.2110E+02
      1.147  0.3304E+02  0.2281E+02
      1.199  0.2883E+02  0.2431E+02
      1.250  0.2287E+02  0.2549E+02
      1.302  0.1947E+02  0.2650E+02
      1.354  0.2162E+02  0.2762E+02
      1.406  0.2714E+02  0.2903E+02
      1.458  0.3038E+02  0.3061E+02
      1.510  0.2984E+02  0.3216E+02
      1.562  0.2931E+02  0.3368E+02
      1.614  0.3041E+02  0.3526E+02
      1.666  0.3113E+02  0.3687E+02
      1.717  0.3198E+02  0.3853E+02
      1.769  0.3492E+02  0.4034E+02
      1.821  0.3902E+02  0.4237E+02
      1.873  0.4540E+02  0.4472E+02
      1.925  0.5452E+02  0.4755E+02
      1.977  0.5928E+02  0.5063E+02
      2.029  0.5482E+02  0.5347E+02
      2.081  0.5054E+02  0.5609E+02
      2.133  0.6142E+02  0.5928E+02
      2.184  0.8659E+02  0.6377E+02
      2.236  0.1085E+03  0.6940E+02
      2.288  0.1196E+03  0.7561E+02
      2.340  0.1258E+03  0.8213E+02
      2.392  0.1316E+03  0.8896E+02
      2.444  0.1375E+03  0.9610E+02
      2.496  0.1471E+03  0.1037E+03
      2.548  0.1642E+03  0.1122E+03
      2.599  0.1828E+03  0.1217E+03
      2.651  0.1948E+03  0.1318E+03
      2.703  0.2066E+03  0.1426E+03
      2.755  0.2235E+03  0.1542E+03
      2.807  0.2306E+03  0.1661E+03
      2.859  0.2243E+03  0.1778E+03
      2.911  0.2274E+03  0.1896E+03
      2.963  0.2449E+03  0.2023E+03
      3.015  0.2579E+03  0.2156E+03
      3.066  0.2602E+03  0.2291E+03
      3.118  0.2607E+03  0.2427E+03
      3.170  0.2639E+03  0.2564E+03
      3.222  0.2727E+03  0.2705E+03
      3.274  0.2878E+03  0.2854E+03
      3.326  0.3073E+03  0.3014E+03
      3.378  0.3244E+03  0.3182E+03
      3.430  0.3307E+03  0.3354E+03
      3.482  0.3276E+03  0.3524E+03
      3.533  0.3211E+03  0.3690E+03
      3.585  0.3179E+03  0.3855E+03
      3.637  0.3166E+03  0.4020E+03
      3.689  0.3112E+03  0.4181E+03
      3.741  0.3053E+03  0.4339E+03
      3.793  0.3012E+03  0.4496E+03
      3.845  0.2970E+03  0.4650E+03
      3.897  0.2934E+03  0.4802E+03
      3.949  0.2888E+03  0.4952E+03
      4.000  0.2766E+03  0.5095E+03
      4.052  0.2667E+03  0.5234E+03
      4.104  0.2753E+03  0.5377E+03
      4.156  0.2937E+03  0.5529E+03
      4.208  0.3025E+03  0.5686E+03
      4.260  0.3050E+03  0.5844E+03
      4.312  0.3119E+03  0.6006E+03
      4.364  0.3184E+03  0.6171E+03
      4.415  0.3211E+03  0.6338E+03
      4.467  0.3237E+03  0.6506E+03
      4.519  0.3212E+03  0.6672E+03
      4.571  0.3097E+03  0.6833E+03
      4.623  0.2972E+03  0.6987E+03
      4.675  0.2934E+03  0.7140E+03
      4.727  0.2982E+03  0.7294E+03
      4.779  0.3059E+03  0.7453E+03
      4.831  0.3176E+03  0.7618E+03
      4.882  0.3312E+03  0.7790E+03
      4.934  0.3376E+03  0.7965E+03
      4.986  0.3449E+03  0.8144E+03
      5.038  0.3580E+03  0.8329E+03
      5.090  0.3655E+03  0.8519E+03
      5.142  0.3642E+03  0.8708E+03
      5.194  0.3554E+03  0.8892E+03
      5.246  0.3353E+03  0.9066E+03
      5.298  0.3031E+03  0.9224E+03
      5.349  0.2622E+03  0.9360E+03
      5.401  0.2189E+03  0.9473E+03
      5.453  0.1847E+03  0.9569E+03
      5.505  0.1726E+03  0.9659E+03
      5.557  0.1889E+03  0.9757E+03
      5.609  0.2268E+03  0.9874E+03
      5.661  0.2749E+03  0.1002E+04
      5.713  0.3250E+03  0.1019E+04
      5.765  0.3673E+03  0.1038E+04
      5.816  0.3950E+03  0.1058E+04
      5.868  0.4102E+03  0.1079E+04
      5.920  0.4191E+03  0.1101E+04
      5.972  0.4258E+03  0.1123E+04
      6.024  0.4282E+03  0.1145E+04
      6.076  0.4166E+03  0.1167E+04
      6.128  0.3923E+03  0.1187E+04
      6.180  0.3720E+03  0.1207E+04
      6.231  0.3611E+03  0.1225E+04
      6.283  0.3552E+03  0.1244E+04
      6.335  0.3562E+03  0.1262E+04
      6.387  0.3690E+03  0.1282E+04
      6.439  0.3820E+03  0.1301E+04
      6.491  0.3845E+03  0.1321E+04
      6.543  0.3914E+03  0.1342E+04
      6.595  0.4094E+03  0.1363E+04
      6.647  0.4238E+03  0.1385E+04
      6.698  0.4283E+03  0.1407E+04
      6.750  0.4256E+03  0.1429E+04
      6.802  0.4136E+03  0.1451E+04
      6.854  0.3925E+03  0.1471E+04
      6.906  0.3737E+03  0.1490E+04
      6.958  0.3666E+03  0.1509E+04
      7.010  0.3636E+03  0.1528E+04
      7.062  0.3676E+03  0.1547E+04
      7.114  0.3905E+03  0.1568E+04
      7.165  0.4145E+03  0.1589E+04
      7.217  0.4223E+03  0.1611E+04
      7.269  0.4224E+03  0.1633E+04
      7.321  0.4138E+03  0.1654E+04
      7.373  0.3886E+03  0.1675E+04
      7.425  0.3590E+03  0.1693E+04
      7.477  0.3403E+03  0.1711E+04
      7.529  0.3329E+03  0.1728E+04
      7.581  0.3291E+03  0.1745E+04
      7.632  0.3174E+03  0.1762E+04
      7.684  0.2960E+03  0.1777E+04
      7.736  0.2777E+03  0.1791E+04
      7.788  0.2689E+03  0.1805E+04
      7.840  0.2638E+03  0.1819E+04
      7.892  0.2577E+03  0.1832E+04
      7.944  0.2486E+03  0.1845E+04
      7.996  0.2429E+03  0.1858E+04
      8.047  0.2432E+03  0.1871E+04
      8.099  0.2394E+03  0.1883E+04
      8.151  0.2314E+03  0.1895E+04
      8.203  0.2290E+03  0.1907E+04
      8.255  0.2334E+03  0.1919E+04
      8.307  0.2377E+03  0.1931E+04
      8.359  0.2391E+03  0.1944E+04
      8.411  0.2370E+03  0.1956E+04
      8.463  0.2290E+03  0.1968E+04
      8.514  0.2187E+03  0.1979E+04
      8.566  0.2123E+03  0.1990E+04
      8.618  0.2073E+03  0.2001E+04
      8.670  0.2000E+03  0.2011E+04
      8.722  0.1916E+03  0.2021E+04
      8.774  0.1833E+03  0.2031E+04
      8.826  0.1794E+03  0.2040E+04
      8.878  0.1878E+03  0.2050E+04
      8.930  0.2124E+03  0.2061E+04
      8.981  0.2352E+03  0.2073E+04
      9.033  0.2365E+03  0.2085E+04
      9.085  0.2237E+03  0.2097E+04
      9.137  0.2068E+03  0.2108E+04
      9.189  0.1875E+03  0.2117E+04
      9.241  0.1789E+03  0.2127E+04
      9.293  0.1967E+03  0.2137E+04
      9.345  0.2277E+03  0.2149E+04
      9.397  0.2428E+03  0.2161E+04
      9.448  0.2429E+03  0.2174E+04
      9.500  0.2449E+03  0.2187E+04
      9.552  0.2445E+03  0.2199E+04
      9.604  0.2460E+03  0.2212E+04
      9.656  0.2735E+03  0.2226E+04
      9.708  0.3167E+03  0.2243E+04
      9.760  0.3354E+03  0.2260E+04
      9.812  0.3265E+03  0.2277E+04
      9.864  0.3167E+03  0.2293E+04
      9.915  0.3153E+03  0.2310E+04
      9.967  0.3215E+03  0.2327E+04
     10.019  0.3424E+03  0.2344E+04
     10.071  0.3790E+03  0.2364E+04
     10.123  0.4123E+03  0.2385E+04
     10.175  0.4281E+03  0.2408E+04
     10.227  0.4359E+03  0.2430E+04
     10.279  0.4482E+03  0.2453E+04
     10.330  0.4664E+03  0.2478E+04
     10.382  0.4844E+03  0.2503E+04
     10.434  0.4943E+03  0.2528E+04
     10.486  0.4866E+03  0.2554E+04
     10.538  0.4504E+03  0.2577E+04
     10.590  0.3918E+03  0.2597E+04
     10.642  0.3248E+03  0.2614E+04
     10.694  0.2439E+03  0.2627E+04
     10.746  0.1449E+03  0.2634E+04
     10.797  0.5462E+02  0.2637E+04
     10.849  0.5218E+01  0.2637E+04
     10.901 -0.5668E+01  0.2637E+04
     10.953 -0.2942E+01  0.2637E+04
     11.005 -0.6799E+00  0.2637E+04
     11.057 -0.9213E-01  0.2637E+04
     11.109 -0.8791E-02  0.2637E+04
     11.161 -0.6666E-02  0.2637E+04
     11.213 -0.2935E-01  0.2637E+04
     11.264 -0.3976E-01  0.2637E+04
     11.316  0.1610E+00  0.2637E+04
     11.368  0.6613E+00  0.2637E+04
     11.420  0.8977E+00  0.2637E+04
     11.472  0.5036E+00  0.2637E+04
     11.524  0.6374E-01  0.2637E+04
     11.576 -0.4616E-01  0.2637E+04
     11.628 -0.2017E-01  0.2637E+04
     11.680 -0.3517E-02  0.2637E+04
     11.731 -0.2826E-02  0.2637E+04
     11.783 -0.2037E-01  0.2637E+04
     11.835 -0.7537E-01  0.2637E+04
     11.887 -0.4529E-01  0.2637E+04
     11.939  0.4972E+00  0.2637E+04
     11.991  0.1520E+01  0.2637E+04
     12.043  0.1984E+01  0.2637E+04
     12.095  0.1547E+01  0.2637E+04
     12.146  0.1002E+01  0.2637E+04
     12.198  0.9185E+00  0.2637E+04
     12.250  0.1640E+01  0.2638E+04
     12.302  0.3127E+01  0.2638E+04
     12.354  0.3982E+01  0.2638E+04
     12.406  0.3361E+01  0.2638E+04
     12.458  0.2438E+01  0.2638E+04
     12.510  0.2119E+01  0.2638E+04
     12.562  0.2215E+01  0.2638E+04
     12.613  0.2410E+01  0.2639E+04
     12.665  0.3191E+01  0.2639E+04
     12.717  0.4222E+01  0.2639E+04
     12.769  0.3816E+01  0.2639E+04
     12.821  0.2569E+01  0.2639E+04
     12.873  0.2342E+01  0.2639E+04
     12.925  0.2432E+01  0.2640E+04
     12.977  0.1788E+01  0.2640E+04
     13.029  0.1143E+01  0.2640E+04
     13.080  0.9028E+00  0.2640E+04
     13.132  0.8430E+00  0.2640E+04
     13.184  0.9617E+00  0.2640E+04
     13.236  0.1079E+01  0.2640E+04
     13.288  0.1034E+01  0.2640E+04
     13.340  0.6577E+00  0.2640E+04
     13.392  0.1623E+00  0.2640E+04
     13.444 -0.4167E-01  0.2640E+04
     13.496 -0.3255E-01  0.2640E+04
     13.547 -0.7206E-02  0.2640E+04
     13.599 -0.7667E-03  0.2640E+04
     13.651 -0.4345E-04  0.2640E+04
     13.703 -0.1364E-05  0.2640E+04
     13.755 -0.2418E-07  0.2640E+04
     13.807 -0.2445E-09  0.2640E+04
     13.859 -0.1419E-11  0.2640E+04
     13.911 -0.4755E-14  0.2640E+04
     13.962  0.0000E+00  0.2640E+04
     14.014  0.0000E+00  0.2640E+04
     14.066  0.0000E+00  0.2640E+04
     14.118  0.0000E+00  0.2640E+04
     14.170  0.0000E+00  0.2640E+04
     14.222  0.0000E+00  0.2640E+04
     14.274  0.0000E+00  0.2640E+04
