<?xml version="1.0" encoding="ISO-8859-1"?>
<modeling>
 <generator>
  <i name="program" type="string">vasp </i>
  <i name="version" type="string">5.4.1  </i>
  <i name="subversion" type="string">24Jun15 (build Feb 03 2017 16:24:58) complex                          parallel </i>
  <i name="platform" type="string">IFC91_ompi </i>
  <i name="date" type="string">2018 07 11 </i>
  <i name="time" type="string">18:26:02 </i>
 </generator>
 <incar>
  <i type="string" name="SYSTEM"> Ir_Ru</i>
  <i type="int" name="ISTART">     0</i>
  <i type="string" name="PREC">accurate</i>
  <i type="string" name="ALGO"> Very_Fast</i>
  <i type="int" name="ICHARG">     2</i>
  <i type="int" name="NELMIN">     5</i>
  <i type="int" name="IBRION">    -1</i>
  <i name="EDIFFG">      0.00001000</i>
  <i type="int" name="ISIF">     2</i>
  <i type="string" name="LREAL"> AUTO</i>
  <i type="int" name="ISMEAR">     1</i>
  <i name="SIGMA">      0.10000000</i>
  <v type="int" name="KPOINT_BSE">    -1     0     0     0</v>
 </incar>
 <kpoints>
  <generation param="Gamma">
   <v type="int" name="divisions">       4        3        3 </v>
   <v name="usershift">      0.00000000       0.00000000       0.00000000 </v>
   <v name="genvec1">      0.25000000      -0.00000000      -0.00000000 </v>
   <v name="genvec2">      0.00000000       0.33333333       0.00000000 </v>
   <v name="genvec3">     -0.00000000      -0.00000000       0.33333333 </v>
   <v name="shift">      0.00000000       0.00000000       0.00000000 </v>
  </generation>
  <varray name="kpointlist" >
   <v>       0.00000000       0.00000000       0.00000000 </v>
   <v>       0.25000000       0.00000000      -0.00000000 </v>
   <v>       0.50000000       0.00000000      -0.00000000 </v>
   <v>       0.00000000       0.33333333       0.00000000 </v>
   <v>       0.25000000       0.33333333       0.00000000 </v>
   <v>       0.50000000       0.33333333       0.00000000 </v>
   <v>      -0.25000000       0.33333333       0.00000000 </v>
   <v>       0.00000000      -0.00000000       0.33333333 </v>
   <v>       0.25000000      -0.00000000       0.33333333 </v>
   <v>       0.50000000       0.00000000       0.33333333 </v>
   <v>      -0.25000000       0.00000000       0.33333333 </v>
   <v>       0.00000000       0.33333333       0.33333333 </v>
   <v>       0.25000000       0.33333333       0.33333333 </v>
   <v>       0.50000000       0.33333333       0.33333333 </v>
   <v>      -0.25000000       0.33333333       0.33333333 </v>
   <v>       0.00000000      -0.33333333       0.33333333 </v>
   <v>       0.25000000      -0.33333333       0.33333333 </v>
   <v>       0.50000000      -0.33333333       0.33333333 </v>
   <v>      -0.25000000      -0.33333333       0.33333333 </v>
  </varray>
  <varray name="weights" >
   <v>       0.02777778 </v>
   <v>       0.05555556 </v>
   <v>       0.02777778 </v>
   <v>       0.05555556 </v>
   <v>       0.05555556 </v>
   <v>       0.05555556 </v>
   <v>       0.05555556 </v>
   <v>       0.05555556 </v>
   <v>       0.05555556 </v>
   <v>       0.05555556 </v>
   <v>       0.05555556 </v>
   <v>       0.05555556 </v>
   <v>       0.05555556 </v>
   <v>       0.05555556 </v>
   <v>       0.05555556 </v>
   <v>       0.05555556 </v>
   <v>       0.05555556 </v>
   <v>       0.05555556 </v>
   <v>       0.05555556 </v>
  </varray>
 </kpoints>
 <parameters>
  <separator name="general" >
   <i type="string" name="SYSTEM">Ir_Ru</i>
   <i type="logical" name="LCOMPAT"> F  </i>
  </separator>
  <separator name="electronic" >
   <i type="string" name="PREC">accura</i>
   <i name="ENMAX">    213.27600000</i>
   <i name="ENAUG">    333.49400000</i>
   <i name="EDIFF">      0.00010000</i>
   <i type="int" name="IALGO">    48</i>
   <i type="int" name="IWAVPR">    10</i>
   <i type="int" name="NBANDS">  1320</i>
   <i name="NELECT">   2176.00000000</i>
   <i type="int" name="TURBO">     0</i>
   <i type="int" name="IRESTART">     0</i>
   <i type="int" name="NREBOOT">     0</i>
   <i type="int" name="NMIN">     0</i>
   <i name="EREF">      0.00000000</i>
   <separator name="electronic smearing" >
    <i type="int" name="ISMEAR">     1</i>
    <i name="SIGMA">      0.10000000</i>
    <i name="KSPACING">      0.50000000</i>
    <i type="logical" name="KGAMMA"> T  </i>
   </separator>
   <separator name="electronic projectors" >
    <i type="logical" name="LREAL"> T  </i>
    <v name="ROPT">     -0.00025000     -0.00025000</v>
    <i type="int" name="LMAXPAW">  -100</i>
    <i type="int" name="LMAXMIX">     2</i>
    <i type="logical" name="NLSPLINE"> F  </i>
   </separator>
   <separator name="electronic startup" >
    <i type="int" name="ISTART">     0</i>
    <i type="int" name="ICHARG">     2</i>
    <i type="int" name="INIWAV">     1</i>
   </separator>
   <separator name="electronic spin" >
    <i type="int" name="ISPIN">     1</i>
    <i type="logical" name="LNONCOLLINEAR"> F  </i>
    <v name="MAGMOM">      1.00000000      1.00000000      1.00000000      1.00000000      1.00000000      1.00000000      1.00000000      1.00000000      1.00000000      1.00000000      1.00000000      1.00000000      1.00000000      1.00000000      1.00000000      1.00000000      1.00000000      1.00000000      1.00000000      1.00000000
      1.00000000      1.00000000      1.00000000      1.00000000      1.00000000      1.00000000      1.00000000      1.00000000      1.00000000      1.00000000      1.00000000      1.00000000      1.00000000      1.00000000      1.00000000      1.00000000      1.00000000      1.00000000      1.00000000      1.00000000
      1.00000000      1.00000000      1.00000000      1.00000000      1.00000000      1.00000000      1.00000000      1.00000000      1.00000000      1.00000000      1.00000000      1.00000000      1.00000000      1.00000000      1.00000000      1.00000000      1.00000000      1.00000000      1.00000000      1.00000000
      1.00000000      1.00000000      1.00000000      1.00000000      1.00000000      1.00000000      1.00000000      1.00000000      1.00000000      1.00000000      1.00000000      1.00000000      1.00000000      1.00000000      1.00000000      1.00000000      1.00000000      1.00000000      1.00000000      1.00000000
      1.00000000      1.00000000      1.00000000      1.00000000      1.00000000      1.00000000      1.00000000      1.00000000      1.00000000      1.00000000      1.00000000      1.00000000      1.00000000      1.00000000      1.00000000      1.00000000      1.00000000      1.00000000      1.00000000      1.00000000
      1.00000000      1.00000000      1.00000000      1.00000000      1.00000000      1.00000000      1.00000000      1.00000000      1.00000000      1.00000000      1.00000000      1.00000000      1.00000000      1.00000000      1.00000000      1.00000000      1.00000000      1.00000000      1.00000000      1.00000000
      1.00000000      1.00000000      1.00000000      1.00000000      1.00000000      1.00000000      1.00000000      1.00000000      1.00000000      1.00000000      1.00000000      1.00000000      1.00000000      1.00000000      1.00000000      1.00000000      1.00000000      1.00000000      1.00000000      1.00000000
      1.00000000      1.00000000      1.00000000      1.00000000      1.00000000      1.00000000      1.00000000      1.00000000      1.00000000      1.00000000      1.00000000      1.00000000      1.00000000      1.00000000      1.00000000      1.00000000      1.00000000      1.00000000      1.00000000      1.00000000
      1.00000000      1.00000000      1.00000000      1.00000000      1.00000000      1.00000000      1.00000000      1.00000000      1.00000000      1.00000000      1.00000000      1.00000000      1.00000000      1.00000000      1.00000000      1.00000000      1.00000000      1.00000000      1.00000000      1.00000000
      1.00000000      1.00000000      1.00000000      1.00000000      1.00000000      1.00000000      1.00000000      1.00000000      1.00000000      1.00000000      1.00000000      1.00000000      1.00000000      1.00000000      1.00000000      1.00000000      1.00000000      1.00000000      1.00000000      1.00000000
      1.00000000      1.00000000      1.00000000      1.00000000      1.00000000      1.00000000      1.00000000      1.00000000      1.00000000      1.00000000      1.00000000      1.00000000      1.00000000      1.00000000      1.00000000      1.00000000      1.00000000      1.00000000      1.00000000      1.00000000
      1.00000000      1.00000000      1.00000000      1.00000000      1.00000000      1.00000000      1.00000000      1.00000000      1.00000000      1.00000000      1.00000000      1.00000000      1.00000000      1.00000000      1.00000000      1.00000000      1.00000000      1.00000000      1.00000000      1.00000000
      1.00000000      1.00000000      1.00000000      1.00000000      1.00000000      1.00000000      1.00000000      1.00000000      1.00000000      1.00000000      1.00000000      1.00000000      1.00000000      1.00000000      1.00000000      1.00000000</v>
    <i name="NUPDOWN">     -1.00000000</i>
    <i type="logical" name="LSORBIT"> F  </i>
    <v name="SAXIS">      0.00000000      0.00000000      1.00000000</v>
    <i type="logical" name="LSPIRAL"> F  </i>
    <v name="QSPIRAL">      0.00000000      0.00000000      0.00000000</v>
    <i type="logical" name="LZEROZ"> F  </i>
   </separator>
   <separator name="electronic exchange-correlation" >
    <i type="logical" name="LASPH"> F  </i>
    <i type="logical" name="LMETAGGA"> F  </i>
   </separator>
   <separator name="electronic convergence" >
    <i type="int" name="NELM">    60</i>
    <i type="int" name="NELMDL">   -12</i>
    <i type="int" name="NELMIN">     5</i>
    <i name="ENINI">    213.27600000</i>
    <separator name="electronic convergence detail" >
     <i type="logical" name="LDIAG"> T  </i>
     <i type="logical" name="LSUBROT"> F  </i>
     <i name="WEIMIN">      0.00000000</i>
     <i name="EBREAK">      0.00000000</i>
     <i name="DEPER">      0.30000000</i>
     <i type="int" name="NRMM">     4</i>
     <i name="TIME">      0.40000000</i>
    </separator>
   </separator>
   <separator name="electronic mixer" >
    <i name="AMIX">      0.40000000</i>
    <i name="BMIX">      1.00000000</i>
    <i name="AMIN">      0.10000000</i>
    <i name="AMIX_MAG">      1.60000000</i>
    <i name="BMIX_MAG">      1.00000000</i>
    <separator name="electronic mixer details" >
     <i type="int" name="IMIX">     4</i>
     <i type="logical" name="MIXFIRST"> F  </i>
     <i type="int" name="MAXMIX">   -45</i>
     <i name="WC">    100.00000000</i>
     <i type="int" name="INIMIX">     1</i>
     <i type="int" name="MIXPRE">     1</i>
     <i type="int" name="MREMOVE">     5</i>
    </separator>
   </separator>
   <separator name="electronic dipolcorrection" >
    <i type="logical" name="LDIPOL"> F  </i>
    <i type="logical" name="LMONO"> F  </i>
    <i type="int" name="IDIPOL">     0</i>
    <i name="EPSILON">      1.00000000</i>
    <v name="DIPOL">   -100.00000000   -100.00000000   -100.00000000</v>
    <i name="EFIELD">      0.00000000</i>
   </separator>
  </separator>
  <separator name="grids" >
   <i type="int" name="NGX">    80</i>
   <i type="int" name="NGY">    84</i>
   <i type="int" name="NGZ">    84</i>
   <i type="int" name="NGXF">   160</i>
   <i type="int" name="NGYF">   168</i>
   <i type="int" name="NGZF">   168</i>
   <i type="logical" name="ADDGRID"> F  </i>
  </separator>
  <separator name="ionic" >
   <i type="int" name="NSW">     0</i>
   <i type="int" name="IBRION">    -1</i>
   <i type="int" name="ISIF">     2</i>
   <i name="PSTRESS">      0.00000000</i>
   <i name="EDIFFG">      0.00001000</i>
   <i type="int" name="NFREE">     0</i>
   <i name="POTIM">      0.50000000</i>
   <i name="SMASS">     -3.00000000</i>
   <i name="SCALEE">      1.00000000</i>
  </separator>
  <separator name="ionic md" >
   <i name="TEBEG">      0.00010000</i>
   <i name="TEEND">      0.00010000</i>
   <i type="int" name="NBLOCK">     1</i>
   <i type="int" name="KBLOCK">     1</i>
   <i type="int" name="NPACO">   256</i>
   <i name="APACO">     16.00000000</i>
  </separator>
  <separator name="symmetry" >
   <i type="int" name="ISYM">     2</i>
   <i name="SYMPREC">      0.00001000</i>
  </separator>
  <separator name="dos" >
   <i type="logical" name="LORBIT"> F  </i>
   <v name="RWIGS">     -1.00000000     -1.00000000</v>
   <i type="int" name="NEDOS">   301</i>
   <i name="EMIN">     10.00000000</i>
   <i name="EMAX">    -10.00000000</i>
   <i name="EFERMI">      0.00000000</i>
  </separator>
  <separator name="writing" >
   <i type="int" name="NWRITE">     2</i>
   <i type="logical" name="LWAVE"> T  </i>
   <i type="logical" name="LCHARG"> T  </i>
   <i type="logical" name="LPARD"> F  </i>
   <i type="logical" name="LVTOT"> F  </i>
   <i type="logical" name="LVHAR"> F  </i>
   <i type="logical" name="LELF"> F  </i>
   <i type="logical" name="LOPTICS"> F  </i>
   <v name="STM">      0.00000000      0.00000000      0.00000000      0.00000000      0.00000000      0.00000000      0.00000000</v>
  </separator>
  <separator name="performance" >
   <i type="int" name="NPAR">    20</i>
   <i type="int" name="NSIM">     4</i>
   <i type="int" name="NBLK">    -1</i>
   <i type="logical" name="LPLANE"> T  </i>
   <i type="logical" name="LSCALAPACK"> T  </i>
   <i type="logical" name="LSCAAWARE"> F  </i>
   <i type="logical" name="LSCALU"> F  </i>
   <i type="logical" name="LASYNC"> F  </i>
   <i type="logical" name="LORBITALREAL"> F  </i>
  </separator>
  <separator name="miscellaneous" >
   <i type="int" name="IDIOT">     3</i>
   <i type="logical" name="LMUSIC"> F  </i>
   <v name="POMASS">    192.22000000    101.07000000</v>
   <v name="DARWINR">      0.00000000      0.00000000</v>
   <v name="DARWINV">      1.00000000      1.00000000</v>
   <i type="logical" name="LCORR"> T  </i>
  </separator>
  <i type="logical" name="GGA_COMPAT"> T  </i>
  <i type="logical" name="LBERRY"> F  </i>
  <i type="int" name="ICORELEVEL">     0</i>
  <i type="logical" name="LDAU"> F  </i>
  <i type="int" name="I_CONSTRAINED_M">     0</i>
  <separator name="electronic exchange-correlation" >
   <i type="string" name="GGA">--</i>
   <i type="int" name="VOSKOWN">     0</i>
   <i type="logical" name="LHFCALC"> F  </i>
   <i type="string" name="PRECFOCK"></i>
   <i type="logical" name="LSYMGRAD"> F  </i>
   <i type="logical" name="LHFONE"> F  </i>
   <i type="logical" name="LRHFCALC"> F  </i>
   <i type="logical" name="LTHOMAS"> F  </i>
   <i type="logical" name="LMODELHF"> F  </i>
   <i name="ENCUT4O">     -1.00000000</i>
   <i type="int" name="EXXOEP">     0</i>
   <i type="int" name="FOURORBIT">     0</i>
   <i name="AEXX">      0.00000000</i>
   <i name="HFALPHA">      0.00000000</i>
   <i name="MCALPHA">      0.00000000</i>
   <i name="ALDAX">      1.00000000</i>
   <i name="AGGAX">      1.00000000</i>
   <i name="ALDAC">      1.00000000</i>
   <i name="AGGAC">      1.00000000</i>
   <i type="int" name="NKREDX">     1</i>
   <i type="int" name="NKREDY">     1</i>
   <i type="int" name="NKREDZ">     1</i>
   <i type="logical" name="SHIFTRED"> F  </i>
   <i type="logical" name="ODDONLY"> F  </i>
   <i type="logical" name="EVENONLY"> F  </i>
   <i type="int" name="LMAXFOCK">     0</i>
   <i type="int" name="NMAXFOCKAE">     0</i>
   <i type="logical" name="LFOCKAEDFT"> F  </i>
   <i name="HFSCREEN">      0.00000000</i>
   <i name="HFSCREENC">      0.00000000</i>
   <i type="int" name="NBANDSGWLOW">     0</i>
  </separator>
  <separator name="vdW DFT" >
   <i type="logical" name="LUSE_VDW"> F  </i>
   <i name="Zab_VDW">     -0.84910000</i>
   <i name="PARAM1">      0.12340000</i>
   <i name="PARAM2">      1.00000000</i>
   <i name="PARAM3">      0.00000000</i>
  </separator>
  <separator name="model GW" >
   <i type="int" name="MODEL_GW">     0</i>
   <i name="MODEL_EPS0">      8.51350379</i>
   <i name="MODEL_ALPHA">      1.00000000</i>
  </separator>
  <separator name="linear response parameters" >
   <i type="logical" name="LEPSILON"> F  </i>
   <i type="logical" name="LRPA"> F  </i>
   <i type="logical" name="LNABLA"> F  </i>
   <i type="logical" name="LVEL"> F  </i>
   <i type="int" name="KINTER">     0</i>
   <i name="CSHIFT">      0.10000000</i>
   <i name="OMEGAMAX">     -1.00000000</i>
   <i name="DEG_THRESHOLD">      0.00200000</i>
  </separator>
  <separator name="orbital magnetization" >
   <i type="logical" name="NUCIND"> F  </i>
   <v name="MAGPOS">      0.00000000      0.00000000      0.00000000</v>
   <i type="logical" name="LNICSALL"> T  </i>
   <i type="logical" name="ORBITALMAG"> F  </i>
   <i type="logical" name="LMAGBLOCH"> F  </i>
   <i type="logical" name="LCHIMAG"> F  </i>
   <i type="logical" name="LGAUGE"> T  </i>
   <i type="int" name="MAGATOM">     0</i>
   <v name="MAGDIPOL">      0.00000000      0.00000000      0.00000000</v>
   <v name="AVECCONST">      0.00000000      0.00000000      0.00000000</v>
  </separator>
  <separator name="response functions" >
   <i type="logical" name="LADDER"> F  </i>
   <i type="logical" name="LFXC"> F  </i>
   <i type="logical" name="LHARTREE"> T  </i>
   <i type="int" name="IBSE">     0</i>
   <v type="int" name="KPOINT">    -1     0     0     0</v>
   <i type="logical" name="LTCTE"> F  </i>
   <i type="logical" name="LTETE"> F  </i>
   <i type="logical" name="LTRIPLET"> F  </i>
   <i type="logical" name="LFXCEPS"> F  </i>
   <i type="logical" name="LFXHEG"> F  </i>
   <i type="int" name="NATURALO">     0</i>
   <i type="logical" name="L2ORDER"> F  </i>
   <i type="logical" name="LUSEW"> F  </i>
   <i name="ENCUTGW">     -2.00000000</i>
   <i name="ENCUTGWSOFT">     -2.00000000</i>
   <i name="ENCUTLF">     -1.00000000</i>
   <i type="int" name="LMAXMP2">    -1</i>
   <i name="SCISSOR">      0.00000000</i>
   <i type="int" name="NOMEGA">     0</i>
   <i type="int" name="NOMEGAR">     0</i>
   <i type="int" name="NBANDSGW">    -1</i>
   <i type="int" name="NBANDSO">    -1</i>
   <i type="int" name="NBANDSV">    -1</i>
   <i type="int" name="NELM">     1</i>
   <i type="int" name="NELMHF">     1</i>
   <i type="int" name="DIM">     3</i>
   <i type="int" name="ANTIRES">     0</i>
   <i name="OMEGAMAX">    -30.00000000</i>
   <i name="OMEGAMIN">    -30.00000000</i>
   <i name="OMEGATL">   -200.00000000</i>
   <i type="int" name="OMEGAGRID">     0</i>
   <i name="CSHIFT">     -0.10000000</i>
   <i type="logical" name="SELFENERGY"> F  </i>
   <i type="logical" name="LSPECTRAL"> F  </i>
   <i type="logical" name="LSPECTRALGW"> F  </i>
   <i type="logical" name="LSINGLES"> F  </i>
   <i type="logical" name="LFERMIGW"> F  </i>
   <i type="logical" name="ODDONLYGW"> F  </i>
   <i type="logical" name="EVENONLYGW"> F  </i>
   <i type="int" name="NKREDLFX">     1</i>
   <i type="int" name="NKREDLFY">     1</i>
   <i type="int" name="NKREDLFZ">     1</i>
   <i type="int" name="MAXMEM">  1800</i>
   <i type="int" name="TELESCOPE">     0</i>
   <i type="int" name="TAUPAR">     1</i>
   <i type="int" name="OMEGAPAR">    -1</i>
   <i name="LAMBDA">      1.00000000</i>
  </separator>
  <separator name="External order field" >
   <i name="OFIELD_KAPPA">      0.00000000</i>
   <v name="OFIELD_K">      0.00000000      0.00000000      0.00000000</v>
   <i name="OFIELD_Q6_NEAR">      0.00000000</i>
   <i name="OFIELD_Q6_FAR">      0.00000000</i>
   <i name="OFIELD_A">      0.00000000</i>
  </separator>
 </parameters>
 <atominfo>
  <atoms>     256 </atoms>
  <types>       2 </types>
  <array name="atoms" >
   <dimension dim="1">ion</dimension>
   <field type="string">element</field>
   <field type="int">atomtype</field>
   <set>
    <rc><c>Ir</c><c>   1</c></rc>
    <rc><c>Ir</c><c>   1</c></rc>
    <rc><c>Ir</c><c>   1</c></rc>
    <rc><c>Ir</c><c>   1</c></rc>
    <rc><c>Ir</c><c>   1</c></rc>
    <rc><c>Ir</c><c>   1</c></rc>
    <rc><c>Ir</c><c>   1</c></rc>
    <rc><c>Ir</c><c>   1</c></rc>
    <rc><c>Ir</c><c>   1</c></rc>
    <rc><c>Ir</c><c>   1</c></rc>
    <rc><c>Ir</c><c>   1</c></rc>
    <rc><c>Ir</c><c>   1</c></rc>
    <rc><c>Ir</c><c>   1</c></rc>
    <rc><c>Ir</c><c>   1</c></rc>
    <rc><c>Ir</c><c>   1</c></rc>
    <rc><c>Ir</c><c>   1</c></rc>
    <rc><c>Ir</c><c>   1</c></rc>
    <rc><c>Ir</c><c>   1</c></rc>
    <rc><c>Ir</c><c>   1</c></rc>
    <rc><c>Ir</c><c>   1</c></rc>
    <rc><c>Ir</c><c>   1</c></rc>
    <rc><c>Ir</c><c>   1</c></rc>
    <rc><c>Ir</c><c>   1</c></rc>
    <rc><c>Ir</c><c>   1</c></rc>
    <rc><c>Ir</c><c>   1</c></rc>
    <rc><c>Ir</c><c>   1</c></rc>
    <rc><c>Ir</c><c>   1</c></rc>
    <rc><c>Ir</c><c>   1</c></rc>
    <rc><c>Ir</c><c>   1</c></rc>
    <rc><c>Ir</c><c>   1</c></rc>
    <rc><c>Ir</c><c>   1</c></rc>
    <rc><c>Ir</c><c>   1</c></rc>
    <rc><c>Ir</c><c>   1</c></rc>
    <rc><c>Ir</c><c>   1</c></rc>
    <rc><c>Ir</c><c>   1</c></rc>
    <rc><c>Ir</c><c>   1</c></rc>
    <rc><c>Ir</c><c>   1</c></rc>
    <rc><c>Ir</c><c>   1</c></rc>
    <rc><c>Ir</c><c>   1</c></rc>
    <rc><c>Ir</c><c>   1</c></rc>
    <rc><c>Ir</c><c>   1</c></rc>
    <rc><c>Ir</c><c>   1</c></rc>
    <rc><c>Ir</c><c>   1</c></rc>
    <rc><c>Ir</c><c>   1</c></rc>
    <rc><c>Ir</c><c>   1</c></rc>
    <rc><c>Ir</c><c>   1</c></rc>
    <rc><c>Ir</c><c>   1</c></rc>
    <rc><c>Ir</c><c>   1</c></rc>
    <rc><c>Ir</c><c>   1</c></rc>
    <rc><c>Ir</c><c>   1</c></rc>
    <rc><c>Ir</c><c>   1</c></rc>
    <rc><c>Ir</c><c>   1</c></rc>
    <rc><c>Ir</c><c>   1</c></rc>
    <rc><c>Ir</c><c>   1</c></rc>
    <rc><c>Ir</c><c>   1</c></rc>
    <rc><c>Ir</c><c>   1</c></rc>
    <rc><c>Ir</c><c>   1</c></rc>
    <rc><c>Ir</c><c>   1</c></rc>
    <rc><c>Ir</c><c>   1</c></rc>
    <rc><c>Ir</c><c>   1</c></rc>
    <rc><c>Ir</c><c>   1</c></rc>
    <rc><c>Ir</c><c>   1</c></rc>
    <rc><c>Ir</c><c>   1</c></rc>
    <rc><c>Ir</c><c>   1</c></rc>
    <rc><c>Ir</c><c>   1</c></rc>
    <rc><c>Ir</c><c>   1</c></rc>
    <rc><c>Ir</c><c>   1</c></rc>
    <rc><c>Ir</c><c>   1</c></rc>
    <rc><c>Ir</c><c>   1</c></rc>
    <rc><c>Ir</c><c>   1</c></rc>
    <rc><c>Ir</c><c>   1</c></rc>
    <rc><c>Ir</c><c>   1</c></rc>
    <rc><c>Ir</c><c>   1</c></rc>
    <rc><c>Ir</c><c>   1</c></rc>
    <rc><c>Ir</c><c>   1</c></rc>
    <rc><c>Ir</c><c>   1</c></rc>
    <rc><c>Ir</c><c>   1</c></rc>
    <rc><c>Ir</c><c>   1</c></rc>
    <rc><c>Ir</c><c>   1</c></rc>
    <rc><c>Ir</c><c>   1</c></rc>
    <rc><c>Ir</c><c>   1</c></rc>
    <rc><c>Ir</c><c>   1</c></rc>
    <rc><c>Ir</c><c>   1</c></rc>
    <rc><c>Ir</c><c>   1</c></rc>
    <rc><c>Ir</c><c>   1</c></rc>
    <rc><c>Ir</c><c>   1</c></rc>
    <rc><c>Ir</c><c>   1</c></rc>
    <rc><c>Ir</c><c>   1</c></rc>
    <rc><c>Ir</c><c>   1</c></rc>
    <rc><c>Ir</c><c>   1</c></rc>
    <rc><c>Ir</c><c>   1</c></rc>
    <rc><c>Ir</c><c>   1</c></rc>
    <rc><c>Ir</c><c>   1</c></rc>
    <rc><c>Ir</c><c>   1</c></rc>
    <rc><c>Ir</c><c>   1</c></rc>
    <rc><c>Ir</c><c>   1</c></rc>
    <rc><c>Ir</c><c>   1</c></rc>
    <rc><c>Ir</c><c>   1</c></rc>
    <rc><c>Ir</c><c>   1</c></rc>
    <rc><c>Ir</c><c>   1</c></rc>
    <rc><c>Ir</c><c>   1</c></rc>
    <rc><c>Ir</c><c>   1</c></rc>
    <rc><c>Ir</c><c>   1</c></rc>
    <rc><c>Ir</c><c>   1</c></rc>
    <rc><c>Ir</c><c>   1</c></rc>
    <rc><c>Ir</c><c>   1</c></rc>
    <rc><c>Ir</c><c>   1</c></rc>
    <rc><c>Ir</c><c>   1</c></rc>
    <rc><c>Ir</c><c>   1</c></rc>
    <rc><c>Ir</c><c>   1</c></rc>
    <rc><c>Ir</c><c>   1</c></rc>
    <rc><c>Ir</c><c>   1</c></rc>
    <rc><c>Ir</c><c>   1</c></rc>
    <rc><c>Ir</c><c>   1</c></rc>
    <rc><c>Ir</c><c>   1</c></rc>
    <rc><c>Ir</c><c>   1</c></rc>
    <rc><c>Ir</c><c>   1</c></rc>
    <rc><c>Ir</c><c>   1</c></rc>
    <rc><c>Ir</c><c>   1</c></rc>
    <rc><c>Ir</c><c>   1</c></rc>
    <rc><c>Ir</c><c>   1</c></rc>
    <rc><c>Ir</c><c>   1</c></rc>
    <rc><c>Ir</c><c>   1</c></rc>
    <rc><c>Ir</c><c>   1</c></rc>
    <rc><c>Ir</c><c>   1</c></rc>
    <rc><c>Ir</c><c>   1</c></rc>
    <rc><c>Ir</c><c>   1</c></rc>
    <rc><c>Ir</c><c>   1</c></rc>
    <rc><c>Ru</c><c>   2</c></rc>
    <rc><c>Ru</c><c>   2</c></rc>
    <rc><c>Ru</c><c>   2</c></rc>
    <rc><c>Ru</c><c>   2</c></rc>
    <rc><c>Ru</c><c>   2</c></rc>
    <rc><c>Ru</c><c>   2</c></rc>
    <rc><c>Ru</c><c>   2</c></rc>
    <rc><c>Ru</c><c>   2</c></rc>
    <rc><c>Ru</c><c>   2</c></rc>
    <rc><c>Ru</c><c>   2</c></rc>
    <rc><c>Ru</c><c>   2</c></rc>
    <rc><c>Ru</c><c>   2</c></rc>
    <rc><c>Ru</c><c>   2</c></rc>
    <rc><c>Ru</c><c>   2</c></rc>
    <rc><c>Ru</c><c>   2</c></rc>
    <rc><c>Ru</c><c>   2</c></rc>
    <rc><c>Ru</c><c>   2</c></rc>
    <rc><c>Ru</c><c>   2</c></rc>
    <rc><c>Ru</c><c>   2</c></rc>
    <rc><c>Ru</c><c>   2</c></rc>
    <rc><c>Ru</c><c>   2</c></rc>
    <rc><c>Ru</c><c>   2</c></rc>
    <rc><c>Ru</c><c>   2</c></rc>
    <rc><c>Ru</c><c>   2</c></rc>
    <rc><c>Ru</c><c>   2</c></rc>
    <rc><c>Ru</c><c>   2</c></rc>
    <rc><c>Ru</c><c>   2</c></rc>
    <rc><c>Ru</c><c>   2</c></rc>
    <rc><c>Ru</c><c>   2</c></rc>
    <rc><c>Ru</c><c>   2</c></rc>
    <rc><c>Ru</c><c>   2</c></rc>
    <rc><c>Ru</c><c>   2</c></rc>
    <rc><c>Ru</c><c>   2</c></rc>
    <rc><c>Ru</c><c>   2</c></rc>
    <rc><c>Ru</c><c>   2</c></rc>
    <rc><c>Ru</c><c>   2</c></rc>
    <rc><c>Ru</c><c>   2</c></rc>
    <rc><c>Ru</c><c>   2</c></rc>
    <rc><c>Ru</c><c>   2</c></rc>
    <rc><c>Ru</c><c>   2</c></rc>
    <rc><c>Ru</c><c>   2</c></rc>
    <rc><c>Ru</c><c>   2</c></rc>
    <rc><c>Ru</c><c>   2</c></rc>
    <rc><c>Ru</c><c>   2</c></rc>
    <rc><c>Ru</c><c>   2</c></rc>
    <rc><c>Ru</c><c>   2</c></rc>
    <rc><c>Ru</c><c>   2</c></rc>
    <rc><c>Ru</c><c>   2</c></rc>
    <rc><c>Ru</c><c>   2</c></rc>
    <rc><c>Ru</c><c>   2</c></rc>
    <rc><c>Ru</c><c>   2</c></rc>
    <rc><c>Ru</c><c>   2</c></rc>
    <rc><c>Ru</c><c>   2</c></rc>
    <rc><c>Ru</c><c>   2</c></rc>
    <rc><c>Ru</c><c>   2</c></rc>
    <rc><c>Ru</c><c>   2</c></rc>
    <rc><c>Ru</c><c>   2</c></rc>
    <rc><c>Ru</c><c>   2</c></rc>
    <rc><c>Ru</c><c>   2</c></rc>
    <rc><c>Ru</c><c>   2</c></rc>
    <rc><c>Ru</c><c>   2</c></rc>
    <rc><c>Ru</c><c>   2</c></rc>
    <rc><c>Ru</c><c>   2</c></rc>
    <rc><c>Ru</c><c>   2</c></rc>
    <rc><c>Ru</c><c>   2</c></rc>
    <rc><c>Ru</c><c>   2</c></rc>
    <rc><c>Ru</c><c>   2</c></rc>
    <rc><c>Ru</c><c>   2</c></rc>
    <rc><c>Ru</c><c>   2</c></rc>
    <rc><c>Ru</c><c>   2</c></rc>
    <rc><c>Ru</c><c>   2</c></rc>
    <rc><c>Ru</c><c>   2</c></rc>
    <rc><c>Ru</c><c>   2</c></rc>
    <rc><c>Ru</c><c>   2</c></rc>
    <rc><c>Ru</c><c>   2</c></rc>
    <rc><c>Ru</c><c>   2</c></rc>
    <rc><c>Ru</c><c>   2</c></rc>
    <rc><c>Ru</c><c>   2</c></rc>
    <rc><c>Ru</c><c>   2</c></rc>
    <rc><c>Ru</c><c>   2</c></rc>
    <rc><c>Ru</c><c>   2</c></rc>
    <rc><c>Ru</c><c>   2</c></rc>
    <rc><c>Ru</c><c>   2</c></rc>
    <rc><c>Ru</c><c>   2</c></rc>
    <rc><c>Ru</c><c>   2</c></rc>
    <rc><c>Ru</c><c>   2</c></rc>
    <rc><c>Ru</c><c>   2</c></rc>
    <rc><c>Ru</c><c>   2</c></rc>
    <rc><c>Ru</c><c>   2</c></rc>
    <rc><c>Ru</c><c>   2</c></rc>
    <rc><c>Ru</c><c>   2</c></rc>
    <rc><c>Ru</c><c>   2</c></rc>
    <rc><c>Ru</c><c>   2</c></rc>
    <rc><c>Ru</c><c>   2</c></rc>
    <rc><c>Ru</c><c>   2</c></rc>
    <rc><c>Ru</c><c>   2</c></rc>
    <rc><c>Ru</c><c>   2</c></rc>
    <rc><c>Ru</c><c>   2</c></rc>
    <rc><c>Ru</c><c>   2</c></rc>
    <rc><c>Ru</c><c>   2</c></rc>
    <rc><c>Ru</c><c>   2</c></rc>
    <rc><c>Ru</c><c>   2</c></rc>
    <rc><c>Ru</c><c>   2</c></rc>
    <rc><c>Ru</c><c>   2</c></rc>
    <rc><c>Ru</c><c>   2</c></rc>
    <rc><c>Ru</c><c>   2</c></rc>
    <rc><c>Ru</c><c>   2</c></rc>
    <rc><c>Ru</c><c>   2</c></rc>
    <rc><c>Ru</c><c>   2</c></rc>
    <rc><c>Ru</c><c>   2</c></rc>
    <rc><c>Ru</c><c>   2</c></rc>
    <rc><c>Ru</c><c>   2</c></rc>
    <rc><c>Ru</c><c>   2</c></rc>
    <rc><c>Ru</c><c>   2</c></rc>
    <rc><c>Ru</c><c>   2</c></rc>
    <rc><c>Ru</c><c>   2</c></rc>
    <rc><c>Ru</c><c>   2</c></rc>
    <rc><c>Ru</c><c>   2</c></rc>
    <rc><c>Ru</c><c>   2</c></rc>
    <rc><c>Ru</c><c>   2</c></rc>
    <rc><c>Ru</c><c>   2</c></rc>
    <rc><c>Ru</c><c>   2</c></rc>
    <rc><c>Ru</c><c>   2</c></rc>
    <rc><c>Ru</c><c>   2</c></rc>
    <rc><c>Ru</c><c>   2</c></rc>
    <rc><c>Ru</c><c>   2</c></rc>
    <rc><c>Ru</c><c>   2</c></rc>
    <rc><c>Ru</c><c>   2</c></rc>
   </set>
  </array>
  <array name="atomtypes" >
   <dimension dim="1">type</dimension>
   <field type="int">atomspertype</field>
   <field type="string">element</field>
   <field>mass</field>
   <field>valence</field>
   <field type="string">pseudopotential</field>
   <set>
    <rc><c> 128</c><c>Ir</c><c>    192.22000000</c><c>      9.00000000</c><c> PAW_PBE Ir 06Sep2000                   </c></rc>
    <rc><c> 128</c><c>Ru</c><c>    101.07000000</c><c>      8.00000000</c><c> PAW_PBE Ru 06Sep2000                   </c></rc>
   </set>
  </array>
 </atominfo>
 <structure name="initialpos" >
  <crystal>
   <varray name="basis" >
    <v>       5.48320000     -14.25407000       4.35211000 </v>
    <v>     -10.97158000      -9.50382000       8.70700000 </v>
    <v>     -10.97268000      -9.50770000      -8.71242000 </v>
   </varray>
   <i name="volume">   3632.42828475 </i>
   <varray name="rec_basis" >
    <v>       0.04558516      -0.05261718       0.00000884 </v>
    <v>      -0.04557998      -0.00000485       0.05741007 </v>
    <v>      -0.02278050      -0.02628868      -0.05739990 </v>
   </varray>
  </crystal>
  <varray name="positions" >
   <v>       0.24961500       0.25116000       0.87474750 </v>
   <v>       0.37462500       0.12471000       0.81183750 </v>
   <v>       0.06264000       0.31198500       0.84450000 </v>
   <v>       0.06345000       0.06286500       0.59341500 </v>
   <v>       0.43715000       0.43626500       0.65842500 </v>
   <v>       0.18774000       0.43608000       0.53137000 </v>
   <v>       0.43778500       0.19000000       0.40508750 </v>
   <v>       0.27102000       0.31327500       0.69738000 </v>
   <v>       0.39571500       0.18779500       0.63473250 </v>
   <v>       0.02156000       0.06211500       0.82305500 </v>
   <v>       0.08285000       0.37426000       0.66685000 </v>
   <v>       0.33244500       0.12499000       0.54249250 </v>
   <v>       0.27037500       0.06213000       0.44856250 </v>
   <v>       0.08317500       0.12555000       0.91594750 </v>
   <v>       0.45837000       0.49946000       0.47964000 </v>
   <v>       0.20886500       0.49992000       0.85301250 </v>
   <v>       0.24961500       0.75116000       0.87474750 </v>
   <v>       0.37462500       0.62471000       0.81183750 </v>
   <v>       0.06264000       0.81198500       0.84450000 </v>
   <v>       0.06345500       0.56286500       0.59341250 </v>
   <v>       0.43715000       0.93626500       0.65843000 </v>
   <v>       0.18774000       0.93608000       0.53136500 </v>
   <v>       0.43778500       0.69000000       0.40508750 </v>
   <v>       0.27102000       0.81327500       0.69738000 </v>
   <v>       0.39571500       0.68779500       0.63473250 </v>
   <v>       0.02156000       0.56211500       0.82305500 </v>
   <v>       0.08285000       0.87426000       0.66685000 </v>
   <v>       0.33244500       0.62499000       0.54249250 </v>
   <v>       0.27037500       0.56213000       0.44856250 </v>
   <v>       0.08317500       0.62555000       0.91594750 </v>
   <v>       0.45837000       0.99946000       0.47964000 </v>
   <v>       0.20886500       0.99992000       0.85301250 </v>
   <v>       0.24961500       0.25116000       0.37474750 </v>
   <v>       0.37462500       0.12471000       0.31183750 </v>
   <v>       0.06264000       0.31198500       0.34450000 </v>
   <v>       0.06345500       0.06286500       0.09341250 </v>
   <v>       0.43715000       0.43626500       0.15842500 </v>
   <v>       0.18774000       0.43608000       0.03137000 </v>
   <v>       0.43778500       0.19000000       0.90508750 </v>
   <v>       0.27102000       0.31327500       0.19738000 </v>
   <v>       0.39571500       0.18779500       0.13473250 </v>
   <v>       0.02156000       0.06211500       0.32305500 </v>
   <v>       0.08285000       0.37426000       0.16685000 </v>
   <v>       0.33244500       0.12499000       0.04249250 </v>
   <v>       0.27037500       0.06213000       0.94856250 </v>
   <v>       0.08317500       0.12555000       0.41594750 </v>
   <v>       0.45837000       0.49946000       0.97964000 </v>
   <v>       0.20886500       0.49992000       0.35301250 </v>
   <v>       0.74961500       0.25116000       0.62474750 </v>
   <v>       0.87462500       0.12471000       0.56183750 </v>
   <v>       0.56264000       0.31198500       0.59450000 </v>
   <v>       0.56345000       0.06286500       0.34341500 </v>
   <v>       0.93715000       0.43626500       0.40842500 </v>
   <v>       0.68774000       0.43608000       0.28137000 </v>
   <v>       0.93778500       0.19000000       0.15508750 </v>
   <v>       0.77102000       0.31327500       0.44738000 </v>
   <v>       0.89571500       0.18779500       0.38473250 </v>
   <v>       0.52156000       0.06211500       0.57305500 </v>
   <v>       0.58285000       0.37426000       0.41685000 </v>
   <v>       0.83244500       0.12499000       0.29249750 </v>
   <v>       0.77037500       0.06213000       0.19856250 </v>
   <v>       0.58317500       0.12555000       0.66594750 </v>
   <v>       0.95837000       0.49946000       0.22964000 </v>
   <v>       0.70886500       0.49992000       0.60301250 </v>
   <v>       0.24961500       0.75116000       0.37474750 </v>
   <v>       0.37462500       0.62471000       0.31183750 </v>
   <v>       0.06264000       0.81198500       0.34450000 </v>
   <v>       0.06345500       0.56286500       0.09341250 </v>
   <v>       0.43715000       0.93626500       0.15842500 </v>
   <v>       0.18774000       0.93608000       0.03137000 </v>
   <v>       0.43778500       0.69000000       0.90508750 </v>
   <v>       0.27102000       0.81327500       0.19738000 </v>
   <v>       0.39571500       0.68779500       0.13473250 </v>
   <v>       0.02156000       0.56211500       0.32305500 </v>
   <v>       0.08285000       0.87426000       0.16685000 </v>
   <v>       0.33244500       0.62499000       0.04249250 </v>
   <v>       0.27037500       0.56213000       0.94856250 </v>
   <v>       0.08317500       0.62555000       0.41594750 </v>
   <v>       0.45837000       0.99946000       0.97964000 </v>
   <v>       0.20886500       0.99992000       0.35301250 </v>
   <v>       0.74961500       0.75116000       0.62474750 </v>
   <v>       0.87462500       0.62471000       0.56183750 </v>
   <v>       0.56264000       0.81198500       0.59450000 </v>
   <v>       0.56345000       0.56286500       0.34341500 </v>
   <v>       0.93715000       0.93626500       0.40842500 </v>
   <v>       0.68774000       0.93608000       0.28136500 </v>
   <v>       0.93778500       0.69000000       0.15508750 </v>
   <v>       0.77102000       0.81327500       0.44738000 </v>
   <v>       0.89571500       0.68779500       0.38473250 </v>
   <v>       0.52156000       0.56211500       0.57305500 </v>
   <v>       0.58285000       0.87426000       0.41685000 </v>
   <v>       0.83244500       0.62499000       0.29249250 </v>
   <v>       0.77037500       0.56213000       0.19856250 </v>
   <v>       0.58317500       0.62555000       0.66594750 </v>
   <v>       0.95837000       0.99946000       0.22964000 </v>
   <v>       0.70886500       0.99992000       0.60301250 </v>
   <v>       0.74961500       0.25116000       0.12474750 </v>
   <v>       0.87462500       0.12471000       0.06183750 </v>
   <v>       0.56264000       0.31198500       0.09450000 </v>
   <v>       0.56345000       0.06286500       0.84341500 </v>
   <v>       0.93715000       0.43626500       0.90842500 </v>
   <v>       0.68774000       0.43608000       0.78137000 </v>
   <v>       0.93778500       0.19000000       0.65508750 </v>
   <v>       0.77102000       0.31327500       0.94738000 </v>
   <v>       0.89571500       0.18779500       0.88473250 </v>
   <v>       0.52156000       0.06211500       0.07305500 </v>
   <v>       0.58285000       0.37426000       0.91685000 </v>
   <v>       0.83244500       0.12499000       0.79249750 </v>
   <v>       0.77037500       0.06213000       0.69856250 </v>
   <v>       0.58317500       0.12555000       0.16594750 </v>
   <v>       0.96047500       0.49946000       0.73069250 </v>
   <v>       0.70886500       0.49992000       0.10301250 </v>
   <v>       0.74961500       0.75116000       0.12474750 </v>
   <v>       0.87462500       0.62471000       0.06183750 </v>
   <v>       0.56264000       0.81198500       0.09450000 </v>
   <v>       0.56345000       0.56286500       0.84341500 </v>
   <v>       0.93715000       0.93626500       0.90843000 </v>
   <v>       0.68774000       0.93608000       0.78137000 </v>
   <v>       0.93778500       0.69000000       0.65508750 </v>
   <v>       0.77102000       0.81327500       0.94738000 </v>
   <v>       0.89571500       0.68779500       0.88473250 </v>
   <v>       0.52156000       0.56211500       0.07305500 </v>
   <v>       0.58285000       0.87426000       0.91685000 </v>
   <v>       0.83244500       0.62499000       0.79249250 </v>
   <v>       0.77037500       0.56213000       0.69856250 </v>
   <v>       0.58317500       0.62555000       0.16594750 </v>
   <v>       0.95837000       0.99946000       0.72964000 </v>
   <v>       0.70886500       0.99992000       0.10301250 </v>
   <v>       0.12552000       0.37374500       0.43878000 </v>
   <v>       0.49955500       0.49856000       0.25097750 </v>
   <v>       0.18753000       0.18756000       0.77992000 </v>
   <v>       0.31234000       0.06179500       0.71926500 </v>
   <v>       0.12523500       0.12622500       0.68665250 </v>
   <v>       0.24965000       0.00016500       0.62632000 </v>
   <v>       0.37544000       0.37420500       0.56234500 </v>
   <v>       0.99989000       0.25085000       0.74831000 </v>
   <v>       0.31230000       0.31346000       0.46828500 </v>
   <v>       0.14612500       0.43832500       0.76050750 </v>
   <v>       0.20830000       0.24878000       0.60429000 </v>
   <v>       0.14574500       0.18778500       0.51141250 </v>
   <v>       0.39572500       0.43673000       0.38531750 </v>
   <v>       0.02141500       0.31227500       0.57284750 </v>
   <v>       0.33289000       0.37625500       0.79155500 </v>
   <v>       0.45828500       0.25070500       0.72884250 </v>
   <v>       0.12552000       0.87374500       0.43878000 </v>
   <v>       0.49955500       0.99856000       0.25097750 </v>
   <v>       0.18753000       0.68756000       0.77992000 </v>
   <v>       0.31234000       0.56179500       0.71926500 </v>
   <v>       0.12523500       0.62622500       0.68665250 </v>
   <v>       0.24965000       0.50016500       0.62632000 </v>
   <v>       0.37544000       0.87420500       0.56234500 </v>
   <v>       0.99989000       0.75085000       0.74831000 </v>
   <v>       0.31230000       0.81346000       0.46828500 </v>
   <v>       0.14612500       0.93832500       0.76050750 </v>
   <v>       0.20830000       0.74878000       0.60429000 </v>
   <v>       0.14574500       0.68778500       0.51141250 </v>
   <v>       0.39572500       0.93673000       0.38531750 </v>
   <v>       0.02141500       0.81227500       0.57284750 </v>
   <v>       0.33289000       0.87625500       0.79155500 </v>
   <v>       0.45828500       0.75070500       0.72884250 </v>
   <v>       0.12552000       0.37374500       0.93878000 </v>
   <v>       0.49955500       0.49856000       0.75097750 </v>
   <v>       0.18753000       0.18756000       0.27992000 </v>
   <v>       0.31234000       0.06179500       0.21926500 </v>
   <v>       0.12523500       0.12622500       0.18665250 </v>
   <v>       0.24965000       0.00016500       0.12632000 </v>
   <v>       0.37544000       0.37420500       0.06234500 </v>
   <v>       0.99989000       0.25085000       0.24831000 </v>
   <v>       0.31230000       0.31346000       0.96828500 </v>
   <v>       0.14612500       0.43832500       0.26050750 </v>
   <v>       0.20830000       0.24878000       0.10429000 </v>
   <v>       0.14574500       0.18778500       0.01141250 </v>
   <v>       0.39572500       0.43673000       0.88531750 </v>
   <v>       0.02141500       0.31227500       0.07284750 </v>
   <v>       0.33289000       0.37625500       0.29155500 </v>
   <v>       0.45828500       0.25070500       0.22884250 </v>
   <v>       0.62552000       0.37374500       0.18878000 </v>
   <v>       0.99955500       0.49856000       0.00097750 </v>
   <v>       0.68753000       0.18756000       0.52992000 </v>
   <v>       0.81234000       0.06179500       0.46926500 </v>
   <v>       0.62523500       0.12622500       0.43665250 </v>
   <v>       0.74965000       0.00016500       0.37632000 </v>
   <v>       0.87544000       0.37420500       0.31234500 </v>
   <v>       0.49989000       0.25085000       0.49831000 </v>
   <v>       0.81230000       0.31346000       0.21828500 </v>
   <v>       0.64612500       0.43832500       0.51050750 </v>
   <v>       0.70830000       0.24878000       0.35429000 </v>
   <v>       0.64574500       0.18778500       0.26141250 </v>
   <v>       0.89572500       0.43673000       0.13531750 </v>
   <v>       0.52141500       0.31227500       0.32284750 </v>
   <v>       0.83289000       0.37625500       0.54155500 </v>
   <v>       0.95828500       0.25070500       0.47884250 </v>
   <v>       0.12552000       0.87374500       0.93878000 </v>
   <v>       0.49955500       0.99856000       0.75097750 </v>
   <v>       0.18753000       0.68756000       0.27992000 </v>
   <v>       0.31234000       0.56179500       0.21926500 </v>
   <v>       0.12523500       0.62622500       0.18665250 </v>
   <v>       0.24965000       0.50016500       0.12632000 </v>
   <v>       0.37544000       0.87420500       0.06234500 </v>
   <v>       0.99989000       0.75085000       0.24831000 </v>
   <v>       0.31230000       0.81346000       0.96828500 </v>
   <v>       0.14612500       0.93832500       0.26050750 </v>
   <v>       0.20830000       0.74878000       0.10429000 </v>
   <v>       0.14574500       0.68778500       0.01141250 </v>
   <v>       0.39572500       0.93673000       0.88531750 </v>
   <v>       0.02141500       0.81227500       0.07284750 </v>
   <v>       0.33289000       0.87625500       0.29155500 </v>
   <v>       0.45828500       0.75070500       0.22884250 </v>
   <v>       0.62552000       0.87374500       0.18878000 </v>
   <v>       0.99955500       0.99856000       0.00097750 </v>
   <v>       0.68753000       0.68756000       0.52992000 </v>
   <v>       0.81234000       0.56179500       0.46926500 </v>
   <v>       0.62523500       0.62622500       0.43665250 </v>
   <v>       0.74965000       0.50016500       0.37632000 </v>
   <v>       0.87544000       0.87420500       0.31234500 </v>
   <v>       0.49989000       0.75085000       0.49831000 </v>
   <v>       0.81230000       0.81346000       0.21828500 </v>
   <v>       0.64612500       0.93832500       0.51050750 </v>
   <v>       0.70830000       0.74878000       0.35429000 </v>
   <v>       0.64574500       0.68778500       0.26141250 </v>
   <v>       0.89572500       0.93673000       0.13531750 </v>
   <v>       0.52141500       0.81227500       0.32284750 </v>
   <v>       0.83289000       0.87625500       0.54155500 </v>
   <v>       0.95828500       0.75070500       0.47884250 </v>
   <v>       0.62552000       0.37374500       0.68878000 </v>
   <v>       0.99955500       0.49856000       0.50097750 </v>
   <v>       0.68753000       0.18756000       0.02992000 </v>
   <v>       0.81234000       0.06179500       0.96926500 </v>
   <v>       0.62523500       0.12622500       0.93665250 </v>
   <v>       0.74965000       0.00016500       0.87632000 </v>
   <v>       0.87544000       0.37420500       0.81234500 </v>
   <v>       0.49989000       0.25085000       0.99831000 </v>
   <v>       0.81230000       0.31346000       0.71828500 </v>
   <v>       0.64612500       0.43832500       0.01050750 </v>
   <v>       0.70830000       0.24878000       0.85429000 </v>
   <v>       0.64574500       0.18778500       0.76141250 </v>
   <v>       0.89572500       0.43673000       0.63531750 </v>
   <v>       0.52141500       0.31227500       0.82284750 </v>
   <v>       0.83289000       0.37625500       0.04155500 </v>
   <v>       0.95828500       0.25070500       0.97884250 </v>
   <v>       0.62552000       0.87374500       0.68878000 </v>
   <v>       0.99955500       0.99856000       0.50097750 </v>
   <v>       0.68753000       0.68756000       0.02992000 </v>
   <v>       0.81234000       0.56179500       0.96926500 </v>
   <v>       0.62523500       0.62622500       0.93665250 </v>
   <v>       0.74965000       0.50016500       0.87632000 </v>
   <v>       0.87544000       0.87420500       0.81234500 </v>
   <v>       0.49989000       0.75085000       0.99831000 </v>
   <v>       0.81230000       0.81346000       0.71828500 </v>
   <v>       0.64612500       0.93832500       0.01050750 </v>
   <v>       0.70830000       0.74878000       0.85429000 </v>
   <v>       0.64574500       0.68778500       0.76141250 </v>
   <v>       0.89572500       0.93673000       0.63531750 </v>
   <v>       0.52141500       0.81227500       0.82284750 </v>
   <v>       0.83289000       0.87625500       0.04155500 </v>
   <v>       0.95828500       0.75070500       0.97884250 </v>
  </varray>
 </structure>
 <calculation>
  <scstep>
   <time name="diag">   66.95   68.74</time>
   <time name="diis">  155.30  159.28</time>
   <time name="orth">   22.44   22.92</time>
   <time name="total">  244.97  251.22</time>
   <energy>
    <i name="alphaZ">  17820.12086445 </i>
    <i name="ewald">-159082.40610250 </i>
    <i name="hartreedc"> -10367.46370322 </i>
    <i name="XCdc">  -6287.82013894 </i>
    <i name="pawpsdc"> 107387.23103886 </i>
    <i name="pawaedc"> -95870.62587529 </i>
    <i name="eentropy">      0.02665000 </i>
    <i name="bandstr">  30145.89876805 </i>
    <i name="atom"> 129934.13886476 </i>
    <i name="e_fr_energy">  13679.10036617 </i>
    <i name="e_wo_entrp">  13679.07371617 </i>
    <i name="e_0_energy">  13679.09148283 </i>
   </energy>
  </scstep>
  <scstep>
   <time name="diag">   67.02   68.26</time>
   <time name="diis">  155.22  159.31</time>
   <time name="orth">   22.05   22.14</time>
   <time name="total">  244.29  249.72</time>
   <energy>
    <i name="e_fr_energy">   1313.34726986 </i>
    <i name="e_wo_entrp">   1313.35963102 </i>
    <i name="e_0_energy">   1313.35139025 </i>
   </energy>
  </scstep>
  <scstep>
   <time name="diag">   67.26   68.67</time>
   <time name="diis">  155.74  159.37</time>
   <time name="orth">   21.66   22.15</time>
   <time name="total">  244.67  250.21</time>
   <energy>
    <i name="e_fr_energy">  -1045.67057352 </i>
    <i name="e_wo_entrp">  -1045.67944272 </i>
    <i name="e_0_energy">  -1045.67352992 </i>
   </energy>
  </scstep>
  <scstep>
   <time name="diag">   67.23   68.38</time>
   <time name="diis">  156.30  159.70</time>
   <time name="orth">   22.16   22.64</time>
   <time name="total">  245.70  250.73</time>
   <energy>
    <i name="e_fr_energy">  -1846.00394118 </i>
    <i name="e_wo_entrp">  -1845.99144822 </i>
    <i name="e_0_energy">  -1845.99977686 </i>
   </energy>
  </scstep>
  <scstep>
   <time name="diag">   66.67   67.95</time>
   <time name="diis">  155.21  159.44</time>
   <time name="orth">   21.62   21.92</time>
   <time name="total">  243.50  249.32</time>
   <energy>
    <i name="e_fr_energy">  -2129.11192146 </i>
    <i name="e_wo_entrp">  -2129.11342305 </i>
    <i name="e_0_energy">  -2129.11242199 </i>
   </energy>
  </scstep>
  <scstep>
   <time name="diag">   67.60   68.97</time>
   <time name="diis">  156.15  159.75</time>
   <time name="orth">   22.03   22.34</time>
   <time name="total">  245.79  251.07</time>
   <energy>
    <i name="e_fr_energy">  -2274.83204265 </i>
    <i name="e_wo_entrp">  -2274.83638136 </i>
    <i name="e_0_energy">  -2274.83348888 </i>
   </energy>
  </scstep>
  <scstep>
   <time name="diag">   66.72   68.24</time>
   <time name="diis">  155.25  159.37</time>
   <time name="orth">   22.05   22.61</time>
   <time name="total">  244.03  250.23</time>
   <energy>
    <i name="e_fr_energy">  -2352.69541287 </i>
    <i name="e_wo_entrp">  -2352.70129129 </i>
    <i name="e_0_energy">  -2352.69737234 </i>
   </energy>
  </scstep>
  <scstep>
   <time name="diag">   67.15   68.36</time>
   <time name="diis">  156.41  159.96</time>
   <time name="orth">   22.11   22.72</time>
   <time name="total">  245.68  251.05</time>
   <energy>
    <i name="e_fr_energy">  -2400.19232620 </i>
    <i name="e_wo_entrp">  -2400.19674287 </i>
    <i name="e_0_energy">  -2400.19379842 </i>
   </energy>
  </scstep>
  <scstep>
   <time name="diag">   66.97   68.17</time>
   <time name="diis">  430.77  441.44</time>
   <time name="orth">   21.82   21.92</time>
   <time name="total">  519.57  531.53</time>
   <energy>
    <i name="e_fr_energy">  -2479.08367757 </i>
    <i name="e_wo_entrp">  -2479.07642372 </i>
    <i name="e_0_energy">  -2479.08125962 </i>
   </energy>
  </scstep>
  <scstep>
   <time name="diag">   67.62   69.00</time>
   <time name="diis">  472.79  484.60</time>
   <time name="orth">   21.78   21.92</time>
   <time name="total">  562.20  575.53</time>
   <energy>
    <i name="e_fr_energy">  -2488.64160356 </i>
    <i name="e_wo_entrp">  -2488.62747149 </i>
    <i name="e_0_energy">  -2488.63689287 </i>
   </energy>
  </scstep>
  <scstep>
   <time name="diag">   67.73   69.15</time>
   <time name="diis">  459.67  470.41</time>
   <time name="orth">   22.01   22.55</time>
   <time name="total">  549.43  562.13</time>
   <energy>
    <i name="e_fr_energy">  -2490.88113872 </i>
    <i name="e_wo_entrp">  -2490.86869561 </i>
    <i name="e_0_energy">  -2490.87699102 </i>
   </energy>
  </scstep>
  <scstep>
   <time name="diag">   67.18   68.25</time>
   <time name="diis">  472.79  484.88</time>
   <time name="orth">   21.88   22.02</time>
   <time name="total">  579.99  593.67</time>
   <energy>
    <i name="e_fr_energy">  -2491.18766316 </i>
    <i name="e_wo_entrp">  -2491.17481324 </i>
    <i name="e_0_energy">  -2491.18337985 </i>
   </energy>
  </scstep>
  <scstep>
   <time name="diag">   67.24   68.54</time>
   <time name="diis">  342.58  351.01</time>
   <time name="orth">   22.12   22.65</time>
   <time name="total">  450.33  460.91</time>
   <energy>
    <i name="e_fr_energy">  -2413.68396946 </i>
    <i name="e_wo_entrp">  -2413.67698688 </i>
    <i name="e_0_energy">  -2413.68164194 </i>
   </energy>
  </scstep>
  <scstep>
   <time name="diag">   67.60   68.89</time>
   <time name="diis">  311.79  318.64</time>
   <time name="orth">   22.04   22.45</time>
   <time name="total">  419.56  428.83</time>
   <energy>
    <i name="e_fr_energy">  -2367.78714136 </i>
    <i name="e_wo_entrp">  -2367.79053973 </i>
    <i name="e_0_energy">  -2367.78827415 </i>
   </energy>
  </scstep>
  <scstep>
   <time name="diag">   67.23   68.16</time>
   <time name="diis">  319.20  327.40</time>
   <time name="orth">   22.11   22.69</time>
   <time name="total">  426.97  436.94</time>
   <energy>
    <i name="e_fr_energy">  -2335.63420740 </i>
    <i name="e_wo_entrp">  -2335.63036671 </i>
    <i name="e_0_energy">  -2335.63292717 </i>
   </energy>
  </scstep>
  <scstep>
   <time name="diag">   66.66   67.75</time>
   <time name="diis">  334.87  343.36</time>
   <time name="orth">   22.20   22.59</time>
   <time name="total">  442.11  452.36</time>
   <energy>
    <i name="e_fr_energy">  -2321.33665518 </i>
    <i name="e_wo_entrp">  -2321.33479854 </i>
    <i name="e_0_energy">  -2321.33603630 </i>
   </energy>
  </scstep>
  <scstep>
   <time name="diag">   67.46   68.99</time>
   <time name="diis">  439.63  450.17</time>
   <time name="orth">   21.87   22.08</time>
   <time name="total">  547.32  560.04</time>
   <energy>
    <i name="e_fr_energy">  -2321.54307083 </i>
    <i name="e_wo_entrp">  -2321.54499975 </i>
    <i name="e_0_energy">  -2321.54371380 </i>
   </energy>
  </scstep>
  <scstep>
   <time name="diag">   67.41   68.56</time>
   <time name="diis">  387.84  396.65</time>
   <time name="orth">   22.05   22.53</time>
   <time name="total">  495.49  506.42</time>
   <energy>
    <i name="e_fr_energy">  -2321.14011300 </i>
    <i name="e_wo_entrp">  -2321.14114126 </i>
    <i name="e_0_energy">  -2321.14045575 </i>
   </energy>
  </scstep>
  <scstep>
   <time name="diag">   67.26   68.71</time>
   <time name="diis">  356.18  365.04</time>
   <time name="orth">   21.96   22.54</time>
   <time name="total">  463.71  475.15</time>
   <energy>
    <i name="e_fr_energy">  -2320.74884001 </i>
    <i name="e_wo_entrp">  -2320.74657752 </i>
    <i name="e_0_energy">  -2320.74808585 </i>
   </energy>
  </scstep>
  <scstep>
   <time name="diag">   66.74   68.08</time>
   <time name="diis">  379.90  388.41</time>
   <time name="orth">   22.08   22.75</time>
   <time name="total">  487.00  497.83</time>
   <energy>
    <i name="e_fr_energy">  -2320.69859115 </i>
    <i name="e_wo_entrp">  -2320.69745034 </i>
    <i name="e_0_energy">  -2320.69821088 </i>
   </energy>
  </scstep>
  <scstep>
   <time name="diag">   67.85   69.20</time>
   <time name="diis">  376.86  385.15</time>
   <time name="orth">   22.59   22.93</time>
   <time name="total">  485.61  496.00</time>
   <energy>
    <i name="e_fr_energy">  -2320.66118785 </i>
    <i name="e_wo_entrp">  -2320.66107410 </i>
    <i name="e_0_energy">  -2320.66114993 </i>
   </energy>
  </scstep>
  <scstep>
   <time name="diag">   67.48   68.70</time>
   <time name="diis">  367.26  375.84</time>
   <time name="orth">   21.82   22.03</time>
   <time name="total">  474.75  485.22</time>
   <energy>
    <i name="e_fr_energy">  -2320.63526287 </i>
    <i name="e_wo_entrp">  -2320.63515917 </i>
    <i name="e_0_energy">  -2320.63522830 </i>
   </energy>
  </scstep>
  <scstep>
   <time name="diag">   67.03   68.29</time>
   <time name="diis">  402.14  411.71</time>
   <time name="orth">   22.17   22.56</time>
   <time name="total">  509.91  521.21</time>
   <energy>
    <i name="e_fr_energy">  -2320.62948321 </i>
    <i name="e_wo_entrp">  -2320.62931140 </i>
    <i name="e_0_energy">  -2320.62942594 </i>
   </energy>
  </scstep>
  <scstep>
   <time name="diag">   67.91   69.25</time>
   <time name="diis">  372.56  380.81</time>
   <time name="orth">   22.26   22.68</time>
   <time name="total">  480.95  491.43</time>
   <energy>
    <i name="e_fr_energy">  -2320.62582060 </i>
    <i name="e_wo_entrp">  -2320.62559901 </i>
    <i name="e_0_energy">  -2320.62574674 </i>
   </energy>
  </scstep>
  <scstep>
   <time name="diag">   66.93   68.20</time>
   <time name="diis">  393.88  403.69</time>
   <time name="orth">   22.32   22.80</time>
   <time name="total">  501.30  513.41</time>
   <energy>
    <i name="e_fr_energy">  -2320.62674845 </i>
    <i name="e_wo_entrp">  -2320.62647489 </i>
    <i name="e_0_energy">  -2320.62665726 </i>
   </energy>
  </scstep>
  <scstep>
   <time name="diag">   66.95   68.72</time>
   <time name="diis">  444.19  454.48</time>
   <time name="orth">   22.17   22.59</time>
   <time name="total">  551.44  564.60</time>
   <energy>
    <i name="e_fr_energy">  -2320.62692880 </i>
    <i name="e_wo_entrp">  -2320.62665425 </i>
    <i name="e_0_energy">  -2320.62683729 </i>
   </energy>
  </scstep>
  <scstep>
   <time name="diag">   67.29   68.25</time>
   <time name="diis">  361.12  369.49</time>
   <time name="orth">   21.95   22.31</time>
   <time name="total">  468.68  478.92</time>
   <energy>
    <i name="e_fr_energy">  -2320.62600949 </i>
    <i name="e_wo_entrp">  -2320.62574820 </i>
    <i name="e_0_energy">  -2320.62592239 </i>
   </energy>
  </scstep>
  <scstep>
   <time name="diag">   66.79   67.92</time>
   <time name="diis">  378.97  387.68</time>
   <time name="orth">   22.03   22.46</time>
   <time name="total">  486.26  496.68</time>
   <energy>
    <i name="e_fr_energy">  -2320.62543953 </i>
    <i name="e_wo_entrp">  -2320.62521395 </i>
    <i name="e_0_energy">  -2320.62536434 </i>
   </energy>
  </scstep>
  <scstep>
   <time name="diag">   66.83   67.97</time>
   <time name="diis">  430.91  440.48</time>
   <time name="orth">   21.92   22.18</time>
   <time name="total">  519.92  530.89</time>
   <energy>
    <i name="alphaZ">  17820.12086445 </i>
    <i name="ewald">-159082.40610250 </i>
    <i name="hartreedc">  -7962.76008426 </i>
    <i name="XCdc">  -6307.34978937 </i>
    <i name="pawpsdc"> 121925.63523088 </i>
    <i name="pawaedc">-111099.57438767 </i>
    <i name="eentropy">     -0.00021651 </i>
    <i name="bandstr">  12451.57025141 </i>
    <i name="atom"> 129934.13886476 </i>
    <i name="e_fr_energy">  -2320.62536883 </i>
    <i name="e_wo_entrp">  -2320.62515232 </i>
    <i name="e_0_energy">  -2320.62529666 </i>
   </energy>
  </scstep>
  <structure>
   <crystal>
    <varray name="basis" >
     <v>       5.48320000     -14.25407000       4.35211000 </v>
     <v>     -10.97158000      -9.50382000       8.70700000 </v>
     <v>     -10.97268000      -9.50770000      -8.71242000 </v>
    </varray>
    <i name="volume">   3632.42828475 </i>
    <varray name="rec_basis" >
     <v>       0.04558516      -0.05261718       0.00000884 </v>
     <v>      -0.04557998      -0.00000485       0.05741007 </v>
     <v>      -0.02278050      -0.02628868      -0.05739990 </v>
    </varray>
   </crystal>
   <varray name="positions" >
    <v>       0.24961500       0.25116000       0.87474750 </v>
    <v>       0.37462500       0.12471000       0.81183750 </v>
    <v>       0.06264000       0.31198500       0.84450000 </v>
    <v>       0.06345000       0.06286500       0.59341500 </v>
    <v>       0.43715000       0.43626500       0.65842500 </v>
    <v>       0.18774000       0.43608000       0.53137000 </v>
    <v>       0.43778500       0.19000000       0.40508750 </v>
    <v>       0.27102000       0.31327500       0.69738000 </v>
    <v>       0.39571500       0.18779500       0.63473250 </v>
    <v>       0.02156000       0.06211500       0.82305500 </v>
    <v>       0.08285000       0.37426000       0.66685000 </v>
    <v>       0.33244500       0.12499000       0.54249250 </v>
    <v>       0.27037500       0.06213000       0.44856250 </v>
    <v>       0.08317500       0.12555000       0.91594750 </v>
    <v>       0.45837000       0.49946000       0.47964000 </v>
    <v>       0.20886500       0.49992000       0.85301250 </v>
    <v>       0.24961500       0.75116000       0.87474750 </v>
    <v>       0.37462500       0.62471000       0.81183750 </v>
    <v>       0.06264000       0.81198500       0.84450000 </v>
    <v>       0.06345500       0.56286500       0.59341250 </v>
    <v>       0.43715000       0.93626500       0.65843000 </v>
    <v>       0.18774000       0.93608000       0.53136500 </v>
    <v>       0.43778500       0.69000000       0.40508750 </v>
    <v>       0.27102000       0.81327500       0.69738000 </v>
    <v>       0.39571500       0.68779500       0.63473250 </v>
    <v>       0.02156000       0.56211500       0.82305500 </v>
    <v>       0.08285000       0.87426000       0.66685000 </v>
    <v>       0.33244500       0.62499000       0.54249250 </v>
    <v>       0.27037500       0.56213000       0.44856250 </v>
    <v>       0.08317500       0.62555000       0.91594750 </v>
    <v>       0.45837000       0.99946000       0.47964000 </v>
    <v>       0.20886500       0.99992000       0.85301250 </v>
    <v>       0.24961500       0.25116000       0.37474750 </v>
    <v>       0.37462500       0.12471000       0.31183750 </v>
    <v>       0.06264000       0.31198500       0.34450000 </v>
    <v>       0.06345500       0.06286500       0.09341250 </v>
    <v>       0.43715000       0.43626500       0.15842500 </v>
    <v>       0.18774000       0.43608000       0.03137000 </v>
    <v>       0.43778500       0.19000000       0.90508750 </v>
    <v>       0.27102000       0.31327500       0.19738000 </v>
    <v>       0.39571500       0.18779500       0.13473250 </v>
    <v>       0.02156000       0.06211500       0.32305500 </v>
    <v>       0.08285000       0.37426000       0.16685000 </v>
    <v>       0.33244500       0.12499000       0.04249250 </v>
    <v>       0.27037500       0.06213000       0.94856250 </v>
    <v>       0.08317500       0.12555000       0.41594750 </v>
    <v>       0.45837000       0.49946000       0.97964000 </v>
    <v>       0.20886500       0.49992000       0.35301250 </v>
    <v>       0.74961500       0.25116000       0.62474750 </v>
    <v>       0.87462500       0.12471000       0.56183750 </v>
    <v>       0.56264000       0.31198500       0.59450000 </v>
    <v>       0.56345000       0.06286500       0.34341500 </v>
    <v>       0.93715000       0.43626500       0.40842500 </v>
    <v>       0.68774000       0.43608000       0.28137000 </v>
    <v>       0.93778500       0.19000000       0.15508750 </v>
    <v>       0.77102000       0.31327500       0.44738000 </v>
    <v>       0.89571500       0.18779500       0.38473250 </v>
    <v>       0.52156000       0.06211500       0.57305500 </v>
    <v>       0.58285000       0.37426000       0.41685000 </v>
    <v>       0.83244500       0.12499000       0.29249750 </v>
    <v>       0.77037500       0.06213000       0.19856250 </v>
    <v>       0.58317500       0.12555000       0.66594750 </v>
    <v>       0.95837000       0.49946000       0.22964000 </v>
    <v>       0.70886500       0.49992000       0.60301250 </v>
    <v>       0.24961500       0.75116000       0.37474750 </v>
    <v>       0.37462500       0.62471000       0.31183750 </v>
    <v>       0.06264000       0.81198500       0.34450000 </v>
    <v>       0.06345500       0.56286500       0.09341250 </v>
    <v>       0.43715000       0.93626500       0.15842500 </v>
    <v>       0.18774000       0.93608000       0.03137000 </v>
    <v>       0.43778500       0.69000000       0.90508750 </v>
    <v>       0.27102000       0.81327500       0.19738000 </v>
    <v>       0.39571500       0.68779500       0.13473250 </v>
    <v>       0.02156000       0.56211500       0.32305500 </v>
    <v>       0.08285000       0.87426000       0.16685000 </v>
    <v>       0.33244500       0.62499000       0.04249250 </v>
    <v>       0.27037500       0.56213000       0.94856250 </v>
    <v>       0.08317500       0.62555000       0.41594750 </v>
    <v>       0.45837000       0.99946000       0.97964000 </v>
    <v>       0.20886500       0.99992000       0.35301250 </v>
    <v>       0.74961500       0.75116000       0.62474750 </v>
    <v>       0.87462500       0.62471000       0.56183750 </v>
    <v>       0.56264000       0.81198500       0.59450000 </v>
    <v>       0.56345000       0.56286500       0.34341500 </v>
    <v>       0.93715000       0.93626500       0.40842500 </v>
    <v>       0.68774000       0.93608000       0.28136500 </v>
    <v>       0.93778500       0.69000000       0.15508750 </v>
    <v>       0.77102000       0.81327500       0.44738000 </v>
    <v>       0.89571500       0.68779500       0.38473250 </v>
    <v>       0.52156000       0.56211500       0.57305500 </v>
    <v>       0.58285000       0.87426000       0.41685000 </v>
    <v>       0.83244500       0.62499000       0.29249250 </v>
    <v>       0.77037500       0.56213000       0.19856250 </v>
    <v>       0.58317500       0.62555000       0.66594750 </v>
    <v>       0.95837000       0.99946000       0.22964000 </v>
    <v>       0.70886500       0.99992000       0.60301250 </v>
    <v>       0.74961500       0.25116000       0.12474750 </v>
    <v>       0.87462500       0.12471000       0.06183750 </v>
    <v>       0.56264000       0.31198500       0.09450000 </v>
    <v>       0.56345000       0.06286500       0.84341500 </v>
    <v>       0.93715000       0.43626500       0.90842500 </v>
    <v>       0.68774000       0.43608000       0.78137000 </v>
    <v>       0.93778500       0.19000000       0.65508750 </v>
    <v>       0.77102000       0.31327500       0.94738000 </v>
    <v>       0.89571500       0.18779500       0.88473250 </v>
    <v>       0.52156000       0.06211500       0.07305500 </v>
    <v>       0.58285000       0.37426000       0.91685000 </v>
    <v>       0.83244500       0.12499000       0.79249750 </v>
    <v>       0.77037500       0.06213000       0.69856250 </v>
    <v>       0.58317500       0.12555000       0.16594750 </v>
    <v>       0.96047500       0.49946000       0.73069250 </v>
    <v>       0.70886500       0.49992000       0.10301250 </v>
    <v>       0.74961500       0.75116000       0.12474750 </v>
    <v>       0.87462500       0.62471000       0.06183750 </v>
    <v>       0.56264000       0.81198500       0.09450000 </v>
    <v>       0.56345000       0.56286500       0.84341500 </v>
    <v>       0.93715000       0.93626500       0.90843000 </v>
    <v>       0.68774000       0.93608000       0.78137000 </v>
    <v>       0.93778500       0.69000000       0.65508750 </v>
    <v>       0.77102000       0.81327500       0.94738000 </v>
    <v>       0.89571500       0.68779500       0.88473250 </v>
    <v>       0.52156000       0.56211500       0.07305500 </v>
    <v>       0.58285000       0.87426000       0.91685000 </v>
    <v>       0.83244500       0.62499000       0.79249250 </v>
    <v>       0.77037500       0.56213000       0.69856250 </v>
    <v>       0.58317500       0.62555000       0.16594750 </v>
    <v>       0.95837000       0.99946000       0.72964000 </v>
    <v>       0.70886500       0.99992000       0.10301250 </v>
    <v>       0.12552000       0.37374500       0.43878000 </v>
    <v>       0.49955500       0.49856000       0.25097750 </v>
    <v>       0.18753000       0.18756000       0.77992000 </v>
    <v>       0.31234000       0.06179500       0.71926500 </v>
    <v>       0.12523500       0.12622500       0.68665250 </v>
    <v>       0.24965000       0.00016500       0.62632000 </v>
    <v>       0.37544000       0.37420500       0.56234500 </v>
    <v>       0.99989000       0.25085000       0.74831000 </v>
    <v>       0.31230000       0.31346000       0.46828500 </v>
    <v>       0.14612500       0.43832500       0.76050750 </v>
    <v>       0.20830000       0.24878000       0.60429000 </v>
    <v>       0.14574500       0.18778500       0.51141250 </v>
    <v>       0.39572500       0.43673000       0.38531750 </v>
    <v>       0.02141500       0.31227500       0.57284750 </v>
    <v>       0.33289000       0.37625500       0.79155500 </v>
    <v>       0.45828500       0.25070500       0.72884250 </v>
    <v>       0.12552000       0.87374500       0.43878000 </v>
    <v>       0.49955500       0.99856000       0.25097750 </v>
    <v>       0.18753000       0.68756000       0.77992000 </v>
    <v>       0.31234000       0.56179500       0.71926500 </v>
    <v>       0.12523500       0.62622500       0.68665250 </v>
    <v>       0.24965000       0.50016500       0.62632000 </v>
    <v>       0.37544000       0.87420500       0.56234500 </v>
    <v>       0.99989000       0.75085000       0.74831000 </v>
    <v>       0.31230000       0.81346000       0.46828500 </v>
    <v>       0.14612500       0.93832500       0.76050750 </v>
    <v>       0.20830000       0.74878000       0.60429000 </v>
    <v>       0.14574500       0.68778500       0.51141250 </v>
    <v>       0.39572500       0.93673000       0.38531750 </v>
    <v>       0.02141500       0.81227500       0.57284750 </v>
    <v>       0.33289000       0.87625500       0.79155500 </v>
    <v>       0.45828500       0.75070500       0.72884250 </v>
    <v>       0.12552000       0.37374500       0.93878000 </v>
    <v>       0.49955500       0.49856000       0.75097750 </v>
    <v>       0.18753000       0.18756000       0.27992000 </v>
    <v>       0.31234000       0.06179500       0.21926500 </v>
    <v>       0.12523500       0.12622500       0.18665250 </v>
    <v>       0.24965000       0.00016500       0.12632000 </v>
    <v>       0.37544000       0.37420500       0.06234500 </v>
    <v>       0.99989000       0.25085000       0.24831000 </v>
    <v>       0.31230000       0.31346000       0.96828500 </v>
    <v>       0.14612500       0.43832500       0.26050750 </v>
    <v>       0.20830000       0.24878000       0.10429000 </v>
    <v>       0.14574500       0.18778500       0.01141250 </v>
    <v>       0.39572500       0.43673000       0.88531750 </v>
    <v>       0.02141500       0.31227500       0.07284750 </v>
    <v>       0.33289000       0.37625500       0.29155500 </v>
    <v>       0.45828500       0.25070500       0.22884250 </v>
    <v>       0.62552000       0.37374500       0.18878000 </v>
    <v>       0.99955500       0.49856000       0.00097750 </v>
    <v>       0.68753000       0.18756000       0.52992000 </v>
    <v>       0.81234000       0.06179500       0.46926500 </v>
    <v>       0.62523500       0.12622500       0.43665250 </v>
    <v>       0.74965000       0.00016500       0.37632000 </v>
    <v>       0.87544000       0.37420500       0.31234500 </v>
    <v>       0.49989000       0.25085000       0.49831000 </v>
    <v>       0.81230000       0.31346000       0.21828500 </v>
    <v>       0.64612500       0.43832500       0.51050750 </v>
    <v>       0.70830000       0.24878000       0.35429000 </v>
    <v>       0.64574500       0.18778500       0.26141250 </v>
    <v>       0.89572500       0.43673000       0.13531750 </v>
    <v>       0.52141500       0.31227500       0.32284750 </v>
    <v>       0.83289000       0.37625500       0.54155500 </v>
    <v>       0.95828500       0.25070500       0.47884250 </v>
    <v>       0.12552000       0.87374500       0.93878000 </v>
    <v>       0.49955500       0.99856000       0.75097750 </v>
    <v>       0.18753000       0.68756000       0.27992000 </v>
    <v>       0.31234000       0.56179500       0.21926500 </v>
    <v>       0.12523500       0.62622500       0.18665250 </v>
    <v>       0.24965000       0.50016500       0.12632000 </v>
    <v>       0.37544000       0.87420500       0.06234500 </v>
    <v>       0.99989000       0.75085000       0.24831000 </v>
    <v>       0.31230000       0.81346000       0.96828500 </v>
    <v>       0.14612500       0.93832500       0.26050750 </v>
    <v>       0.20830000       0.74878000       0.10429000 </v>
    <v>       0.14574500       0.68778500       0.01141250 </v>
    <v>       0.39572500       0.93673000       0.88531750 </v>
    <v>       0.02141500       0.81227500       0.07284750 </v>
    <v>       0.33289000       0.87625500       0.29155500 </v>
    <v>       0.45828500       0.75070500       0.22884250 </v>
    <v>       0.62552000       0.87374500       0.18878000 </v>
    <v>       0.99955500       0.99856000       0.00097750 </v>
    <v>       0.68753000       0.68756000       0.52992000 </v>
    <v>       0.81234000       0.56179500       0.46926500 </v>
    <v>       0.62523500       0.62622500       0.43665250 </v>
    <v>       0.74965000       0.50016500       0.37632000 </v>
    <v>       0.87544000       0.87420500       0.31234500 </v>
    <v>       0.49989000       0.75085000       0.49831000 </v>
    <v>       0.81230000       0.81346000       0.21828500 </v>
    <v>       0.64612500       0.93832500       0.51050750 </v>
    <v>       0.70830000       0.74878000       0.35429000 </v>
    <v>       0.64574500       0.68778500       0.26141250 </v>
    <v>       0.89572500       0.93673000       0.13531750 </v>
    <v>       0.52141500       0.81227500       0.32284750 </v>
    <v>       0.83289000       0.87625500       0.54155500 </v>
    <v>       0.95828500       0.75070500       0.47884250 </v>
    <v>       0.62552000       0.37374500       0.68878000 </v>
    <v>       0.99955500       0.49856000       0.50097750 </v>
    <v>       0.68753000       0.18756000       0.02992000 </v>
    <v>       0.81234000       0.06179500       0.96926500 </v>
    <v>       0.62523500       0.12622500       0.93665250 </v>
    <v>       0.74965000       0.00016500       0.87632000 </v>
    <v>       0.87544000       0.37420500       0.81234500 </v>
    <v>       0.49989000       0.25085000       0.99831000 </v>
    <v>       0.81230000       0.31346000       0.71828500 </v>
    <v>       0.64612500       0.43832500       0.01050750 </v>
    <v>       0.70830000       0.24878000       0.85429000 </v>
    <v>       0.64574500       0.18778500       0.76141250 </v>
    <v>       0.89572500       0.43673000       0.63531750 </v>
    <v>       0.52141500       0.31227500       0.82284750 </v>
    <v>       0.83289000       0.37625500       0.04155500 </v>
    <v>       0.95828500       0.25070500       0.97884250 </v>
    <v>       0.62552000       0.87374500       0.68878000 </v>
    <v>       0.99955500       0.99856000       0.50097750 </v>
    <v>       0.68753000       0.68756000       0.02992000 </v>
    <v>       0.81234000       0.56179500       0.96926500 </v>
    <v>       0.62523500       0.62622500       0.93665250 </v>
    <v>       0.74965000       0.50016500       0.87632000 </v>
    <v>       0.87544000       0.87420500       0.81234500 </v>
    <v>       0.49989000       0.75085000       0.99831000 </v>
    <v>       0.81230000       0.81346000       0.71828500 </v>
    <v>       0.64612500       0.93832500       0.01050750 </v>
    <v>       0.70830000       0.74878000       0.85429000 </v>
    <v>       0.64574500       0.68778500       0.76141250 </v>
    <v>       0.89572500       0.93673000       0.63531750 </v>
    <v>       0.52141500       0.81227500       0.82284750 </v>
    <v>       0.83289000       0.87625500       0.04155500 </v>
    <v>       0.95828500       0.75070500       0.97884250 </v>
   </varray>
  </structure>
  <varray name="forces" >
   <v>       0.00456999       0.00515377       0.01241249 </v>
   <v>      -0.00825736       0.00208271       0.00033320 </v>
   <v>       0.03365159       0.00379396      -0.04456345 </v>
   <v>       0.01222998       0.00796499      -0.00270913 </v>
   <v>      -0.00310462       0.01576915      -0.00667031 </v>
   <v>      -0.00797455      -0.00007976       0.00175000 </v>
   <v>       0.00059447       0.00460898       0.00438478 </v>
   <v>       0.00068310      -0.02578305      -0.00235235 </v>
   <v>      -0.00455790      -0.01156187      -0.00114867 </v>
   <v>      -0.01041364      -0.00542963      -0.00367730 </v>
   <v>      -0.01118637      -0.00302800       0.00046631 </v>
   <v>      -0.00898630      -0.00659030      -0.00328950 </v>
   <v>       0.00372622      -0.00782625       0.00379571 </v>
   <v>       0.00525966      -0.02000194       0.00162480 </v>
   <v>      -0.00400758      -0.00027535       0.00247375 </v>
   <v>       0.01451984      -0.02468466       0.00306536 </v>
   <v>      -0.00161061       0.01149383       0.01087772 </v>
   <v>      -0.00936247      -0.00068894       0.00099120 </v>
   <v>       0.00088604       0.01936766      -0.00095531 </v>
   <v>       0.04392960      -0.00274874       0.03422226 </v>
   <v>      -0.00000578       0.01629615      -0.00540872 </v>
   <v>      -0.00945040       0.00019138      -0.00297160 </v>
   <v>      -0.00044765       0.00332193       0.00466762 </v>
   <v>      -0.00081480      -0.01457833      -0.00252187 </v>
   <v>       0.00308838      -0.02166903      -0.00086238 </v>
   <v>      -0.07247197      -0.08013029      -0.00215816 </v>
   <v>       0.01164848      -0.00551477       0.00001658 </v>
   <v>      -0.01045340      -0.00288202      -0.00396140 </v>
   <v>       0.00367616      -0.00752070       0.00340577 </v>
   <v>      -0.00149252      -0.02840185      -0.00092931 </v>
   <v>      -0.00314202       0.00109728       0.00161842 </v>
   <v>       0.01281114      -0.01129556       0.00272894 </v>
   <v>      -0.00013254       0.01003634       0.01274658 </v>
   <v>      -0.00914129       0.00093997       0.00032196 </v>
   <v>      -0.00176251       0.01888802       0.00089540 </v>
   <v>       0.01084134       0.00820683      -0.00083208 </v>
   <v>      -0.00122176       0.01617794      -0.00621955 </v>
   <v>      -0.00863853       0.00318176      -0.00236072 </v>
   <v>      -0.00222473       0.00297167       0.00500486 </v>
   <v>      -0.00085754      -0.01661198      -0.00270069 </v>
   <v>      -0.00296631      -0.01128434      -0.00137682 </v>
   <v>      -0.01067851      -0.00588775      -0.00194177 </v>
   <v>       0.01093597      -0.00483727       0.00088905 </v>
   <v>      -0.00984475      -0.00361249      -0.00285380 </v>
   <v>       0.00337913      -0.00734441       0.00540796 </v>
   <v>       0.00294296      -0.02036859      -0.00099080 </v>
   <v>      -0.00362497      -0.00026696       0.00127368 </v>
   <v>       0.01267888      -0.01095608       0.00307200 </v>
   <v>      -0.00088559       0.01376419       0.01162276 </v>
   <v>      -0.00903894       0.00052164       0.00063734 </v>
   <v>      -0.00064439       0.01792913       0.00058688 </v>
   <v>       0.01228321       0.00790404      -0.00166332 </v>
   <v>      -0.00146401       0.01444529      -0.00466529 </v>
   <v>      -0.00908478       0.00029996      -0.00317971 </v>
   <v>      -0.00088184       0.00429296       0.00657134 </v>
   <v>      -0.00312221      -0.02072256      -0.00257191 </v>
   <v>      -0.00309467      -0.01089066      -0.00093564 </v>
   <v>      -0.01036933      -0.00511762      -0.00218647 </v>
   <v>       0.01170621      -0.00578585       0.00042389 </v>
   <v>      -0.00925137      -0.00727086      -0.00268792 </v>
   <v>       0.00363656      -0.00817343       0.00331809 </v>
   <v>       0.00348768      -0.01954682      -0.00187319 </v>
   <v>      -0.00458452       0.00121289       0.00029502 </v>
   <v>       0.01390282      -0.02241713       0.00236561 </v>
   <v>      -0.00109444       0.01194165       0.01167103 </v>
   <v>      -0.00861803       0.00213085       0.00073784 </v>
   <v>      -0.00170370       0.01917978      -0.00182062 </v>
   <v>       0.01297232       0.00826769      -0.00137159 </v>
   <v>      -0.00205198       0.01559599      -0.00571410 </v>
   <v>      -0.01021346       0.00121575      -0.00134987 </v>
   <v>      -0.00003994       0.00349396       0.00505877 </v>
   <v>      -0.00000556      -0.01440875      -0.00239192 </v>
   <v>      -0.00356359      -0.01299066      -0.00118369 </v>
   <v>      -0.00949779      -0.00542253      -0.00021350 </v>
   <v>       0.01128997      -0.00886758       0.00013158 </v>
   <v>      -0.00870561      -0.00424290      -0.00340725 </v>
   <v>       0.00290915      -0.00512225       0.00358759 </v>
   <v>       0.00411671      -0.01836026      -0.00375987 </v>
   <v>      -0.00386127       0.00123910       0.00050978 </v>
   <v>       0.01454612      -0.01179808       0.00276155 </v>
   <v>       0.00972015       0.01185020       0.00107134 </v>
   <v>      -0.00798447      -0.06628581      -0.07549802 </v>
   <v>      -0.00160661       0.01931459       0.00090731 </v>
   <v>       0.01207624       0.00656476      -0.00258541 </v>
   <v>      -0.00189505       0.01627086      -0.00750804 </v>
   <v>      -0.01037855       0.00231549      -0.00142623 </v>
   <v>      -0.00042466       0.00366491       0.00506057 </v>
   <v>       0.00374084      -0.02189548      -0.00280543 </v>
   <v>      -0.00856511      -0.01720463      -0.00377877 </v>
   <v>      -0.01125469      -0.00308880      -0.00211688 </v>
[...]
       <r>    11.0050    -0.6799  2637.0052 </r>
       <r>    11.0569    -0.0921  2637.0004 </r>
       <r>    11.1088    -0.0088  2637.0000 </r>
       <r>    11.1606    -0.0067  2636.9996 </r>
       <r>    11.2125    -0.0294  2636.9981 </r>
       <r>    11.2644    -0.0398  2636.9961 </r>
       <r>    11.3163     0.1610  2637.0044 </r>
       <r>    11.3682     0.6613  2637.0387 </r>
       <r>    11.4201     0.8977  2637.0853 </r>
       <r>    11.4720     0.5036  2637.1114 </r>
       <r>    11.5238     0.0637  2637.1147 </r>
       <r>    11.5757    -0.0462  2637.1123 </r>
       <r>    11.6276    -0.0202  2637.1113 </r>
       <r>    11.6795    -0.0035  2637.1111 </r>
       <r>    11.7314    -0.0028  2637.1110 </r>
       <r>    11.7833    -0.0204  2637.1099 </r>
       <r>    11.8352    -0.0754  2637.1060 </r>
       <r>    11.8870    -0.0453  2637.1037 </r>
       <r>    11.9389     0.4972  2637.1295 </r>
       <r>    11.9908     1.5205  2637.2083 </r>
       <r>    12.0427     1.9844  2637.3113 </r>
       <r>    12.0946     1.5469  2637.3916 </r>
       <r>    12.1465     1.0016  2637.4435 </r>
       <r>    12.1984     0.9185  2637.4912 </r>
       <r>    12.2502     1.6397  2637.5763 </r>
       <r>    12.3021     3.1269  2637.7385 </r>
       <r>    12.3540     3.9821  2637.9451 </r>
       <r>    12.4059     3.3612  2638.1195 </r>
       <r>    12.4578     2.4378  2638.2460 </r>
       <r>    12.5097     2.1188  2638.3559 </r>
       <r>    12.5616     2.2146  2638.4709 </r>
       <r>    12.6134     2.4103  2638.5959 </r>
       <r>    12.6653     3.1909  2638.7615 </r>
       <r>    12.7172     4.2216  2638.9805 </r>
       <r>    12.7691     3.8162  2639.1785 </r>
       <r>    12.8210     2.5692  2639.3118 </r>
       <r>    12.8729     2.3415  2639.4333 </r>
       <r>    12.9248     2.4324  2639.5595 </r>
       <r>    12.9766     1.7878  2639.6523 </r>
       <r>    13.0285     1.1430  2639.7116 </r>
       <r>    13.0804     0.9028  2639.7584 </r>
       <r>    13.1323     0.8430  2639.8022 </r>
       <r>    13.1842     0.9617  2639.8521 </r>
       <r>    13.2361     1.0791  2639.9081 </r>
       <r>    13.2880     1.0340  2639.9617 </r>
       <r>    13.3398     0.6577  2639.9958 </r>
       <r>    13.3917     0.1623  2640.0043 </r>
       <r>    13.4436    -0.0417  2640.0021 </r>
       <r>    13.4955    -0.0325  2640.0004 </r>
       <r>    13.5474    -0.0072  2640.0000 </r>
       <r>    13.5993    -0.0008  2640.0000 </r>
       <r>    13.6512    -0.0000  2640.0000 </r>
       <r>    13.7030    -0.0000  2640.0000 </r>
       <r>    13.7549    -0.0000  2640.0000 </r>
       <r>    13.8068    -0.0000  2640.0000 </r>
       <r>    13.8587    -0.0000  2640.0000 </r>
       <r>    13.9106    -0.0000  2640.0000 </r>
       <r>    13.9625     0.0000  2640.0000 </r>
       <r>    14.0144     0.0000  2640.0000 </r>
       <r>    14.0662     0.0000  2640.0000 </r>
       <r>    14.1181     0.0000  2640.0000 </r>
       <r>    14.1700     0.0000  2640.0000 </r>
       <r>    14.2219     0.0000  2640.0000 </r>
       <r>    14.2738     0.0000  2640.0000 </r>
      </set>
     </set>
    </array>
   </total>
  </dos>
 </calculation>
 <structure name="finalpos" >
  <crystal>
   <varray name="basis" >
    <v>       5.48320000     -14.25407000       4.35211000 </v>
    <v>     -10.97158000      -9.50382000       8.70700000 </v>
    <v>     -10.97268000      -9.50770000      -8.71242000 </v>
   </varray>
   <i name="volume">   3632.42828475 </i>
   <varray name="rec_basis" >
    <v>       0.04558516      -0.05261718       0.00000884 </v>
    <v>      -0.04557998      -0.00000485       0.05741007 </v>
    <v>      -0.02278050      -0.02628868      -0.05739990 </v>
   </varray>
  </crystal>
  <varray name="positions" >
   <v>       0.24961500       0.25116000       0.87474750 </v>
   <v>       0.37462500       0.12471000       0.81183750 </v>
   <v>       0.06264000       0.31198500       0.84450000 </v>
   <v>       0.06345000       0.06286500       0.59341500 </v>
   <v>       0.43715000       0.43626500       0.65842500 </v>
   <v>       0.18774000       0.43608000       0.53137000 </v>
   <v>       0.43778500       0.19000000       0.40508750 </v>
   <v>       0.27102000       0.31327500       0.69738000 </v>
   <v>       0.39571500       0.18779500       0.63473250 </v>
   <v>       0.02156000       0.06211500       0.82305500 </v>
   <v>       0.08285000       0.37426000       0.66685000 </v>
   <v>       0.33244500       0.12499000       0.54249250 </v>
   <v>       0.27037500       0.06213000       0.44856250 </v>
   <v>       0.08317500       0.12555000       0.91594750 </v>
   <v>       0.45837000       0.49946000       0.47964000 </v>
   <v>       0.20886500       0.49992000       0.85301250 </v>
   <v>       0.24961500       0.75116000       0.87474750 </v>
   <v>       0.37462500       0.62471000       0.81183750 </v>
   <v>       0.06264000       0.81198500       0.84450000 </v>
   <v>       0.06345500       0.56286500       0.59341250 </v>
   <v>       0.43715000       0.93626500       0.65843000 </v>
   <v>       0.18774000       0.93608000       0.53136500 </v>
   <v>       0.43778500       0.69000000       0.40508750 </v>
   <v>       0.27102000       0.81327500       0.69738000 </v>
   <v>       0.39571500       0.68779500       0.63473250 </v>
   <v>       0.02156000       0.56211500       0.82305500 </v>
   <v>       0.08285000       0.87426000       0.66685000 </v>
   <v>       0.33244500       0.62499000       0.54249250 </v>
   <v>       0.27037500       0.56213000       0.44856250 </v>
   <v>       0.08317500       0.62555000       0.91594750 </v>
   <v>       0.45837000       0.99946000       0.47964000 </v>
   <v>       0.20886500       0.99992000       0.85301250 </v>
   <v>       0.24961500       0.25116000       0.37474750 </v>
   <v>       0.37462500       0.12471000       0.31183750 </v>
   <v>       0.06264000       0.31198500       0.34450000 </v>
   <v>       0.06345500       0.06286500       0.09341250 </v>
   <v>       0.43715000       0.43626500       0.15842500 </v>
   <v>       0.18774000       0.43608000       0.03137000 </v>
   <v>       0.43778500       0.19000000       0.90508750 </v>
   <v>       0.27102000       0.31327500       0.19738000 </v>
   <v>       0.39571500       0.18779500       0.13473250 </v>
   <v>       0.02156000       0.06211500       0.32305500 </v>
   <v>       0.08285000       0.37426000       0.16685000 </v>
   <v>       0.33244500       0.12499000       0.04249250 </v>
   <v>       0.27037500       0.06213000       0.94856250 </v>
   <v>       0.08317500       0.12555000       0.41594750 </v>
   <v>       0.45837000       0.49946000       0.97964000 </v>
   <v>       0.20886500       0.49992000       0.35301250 </v>
   <v>       0.74961500       0.25116000       0.62474750 </v>
   <v>       0.87462500       0.12471000       0.56183750 </v>
   <v>       0.56264000       0.31198500       0.59450000 </v>
   <v>       0.56345000       0.06286500       0.34341500 </v>
   <v>       0.93715000       0.43626500       0.40842500 </v>
   <v>       0.68774000       0.43608000       0.28137000 </v>
   <v>       0.93778500       0.19000000       0.15508750 </v>
   <v>       0.77102000       0.31327500       0.44738000 </v>
   <v>       0.89571500       0.18779500       0.38473250 </v>
   <v>       0.52156000       0.06211500       0.57305500 </v>
   <v>       0.58285000       0.37426000       0.41685000 </v>
   <v>       0.83244500       0.12499000       0.29249750 </v>
   <v>       0.77037500       0.06213000       0.19856250 </v>
   <v>       0.58317500       0.12555000       0.66594750 </v>
   <v>       0.95837000       0.49946000       0.22964000 </v>
   <v>       0.70886500       0.49992000       0.60301250 </v>
   <v>       0.24961500       0.75116000       0.37474750 </v>
   <v>       0.37462500       0.62471000       0.31183750 </v>
   <v>       0.06264000       0.81198500       0.34450000 </v>
   <v>       0.06345500       0.56286500       0.09341250 </v>
   <v>       0.43715000       0.93626500       0.15842500 </v>
   <v>       0.18774000       0.93608000       0.03137000 </v>
   <v>       0.43778500       0.69000000       0.90508750 </v>
   <v>       0.27102000       0.81327500       0.19738000 </v>
   <v>       0.39571500       0.68779500       0.13473250 </v>
   <v>       0.02156000       0.56211500       0.32305500 </v>
   <v>       0.08285000       0.87426000       0.16685000 </v>
   <v>       0.33244500       0.62499000       0.04249250 </v>
   <v>       0.27037500       0.56213000       0.94856250 </v>
   <v>       0.08317500       0.62555000       0.41594750 </v>
   <v>       0.45837000       0.99946000       0.97964000 </v>
   <v>       0.20886500       0.99992000       0.35301250 </v>
   <v>       0.74961500       0.75116000       0.62474750 </v>
   <v>       0.87462500       0.62471000       0.56183750 </v>
   <v>       0.56264000       0.81198500       0.59450000 </v>
   <v>       0.56345000       0.56286500       0.34341500 </v>
   <v>       0.93715000       0.93626500       0.40842500 </v>
   <v>       0.68774000       0.93608000       0.28136500 </v>
   <v>       0.93778500       0.69000000       0.15508750 </v>
   <v>       0.77102000       0.81327500       0.44738000 </v>
   <v>       0.89571500       0.68779500       0.38473250 </v>
   <v>       0.52156000       0.56211500       0.57305500 </v>
   <v>       0.58285000       0.87426000       0.41685000 </v>
   <v>       0.83244500       0.62499000       0.29249250 </v>
   <v>       0.77037500       0.56213000       0.19856250 </v>
   <v>       0.58317500       0.62555000       0.66594750 </v>
   <v>       0.95837000       0.99946000       0.22964000 </v>
   <v>       0.70886500       0.99992000       0.60301250 </v>
   <v>       0.74961500       0.25116000       0.12474750 </v>
   <v>       0.87462500       0.12471000       0.06183750 </v>
   <v>       0.56264000       0.31198500       0.09450000 </v>
   <v>       0.56345000       0.06286500       0.84341500 </v>
   <v>       0.93715000       0.43626500       0.90842500 </v>
   <v>       0.68774000       0.43608000       0.78137000 </v>
   <v>       0.93778500       0.19000000       0.65508750 </v>
   <v>       0.77102000       0.31327500       0.94738000 </v>
   <v>       0.89571500       0.18779500       0.88473250 </v>
   <v>       0.52156000       0.06211500       0.07305500 </v>
   <v>       0.58285000       0.37426000       0.91685000 </v>
   <v>       0.83244500       0.12499000       0.79249750 </v>
   <v>       0.77037500       0.06213000       0.69856250 </v>
   <v>       0.58317500       0.12555000       0.16594750 </v>
   <v>       0.96047500       0.49946000       0.73069250 </v>
   <v>       0.70886500       0.49992000       0.10301250 </v>
   <v>       0.74961500       0.75116000       0.12474750 </v>
   <v>       0.87462500       0.62471000       0.06183750 </v>
   <v>       0.56264000       0.81198500       0.09450000 </v>
   <v>       0.56345000       0.56286500       0.84341500 </v>
   <v>       0.93715000       0.93626500       0.90843000 </v>
   <v>       0.68774000       0.93608000       0.78137000 </v>
   <v>       0.93778500       0.69000000       0.65508750 </v>
   <v>       0.77102000       0.81327500       0.94738000 </v>
   <v>       0.89571500       0.68779500       0.88473250 </v>
   <v>       0.52156000       0.56211500       0.07305500 </v>
   <v>       0.58285000       0.87426000       0.91685000 </v>
   <v>       0.83244500       0.62499000       0.79249250 </v>
   <v>       0.77037500       0.56213000       0.69856250 </v>
   <v>       0.58317500       0.62555000       0.16594750 </v>
   <v>       0.95837000       0.99946000       0.72964000 </v>
   <v>       0.70886500       0.99992000       0.10301250 </v>
   <v>       0.12552000       0.37374500       0.43878000 </v>
   <v>       0.49955500       0.49856000       0.25097750 </v>
   <v>       0.18753000       0.18756000       0.77992000 </v>
   <v>       0.31234000       0.06179500       0.71926500 </v>
   <v>       0.12523500       0.12622500       0.68665250 </v>
   <v>       0.24965000       0.00016500       0.62632000 </v>
   <v>       0.37544000       0.37420500       0.56234500 </v>
   <v>       0.99989000       0.25085000       0.74831000 </v>
   <v>       0.31230000       0.31346000       0.46828500 </v>
   <v>       0.14612500       0.43832500       0.76050750 </v>
   <v>       0.20830000       0.24878000       0.60429000 </v>
   <v>       0.14574500       0.18778500       0.51141250 </v>
   <v>       0.39572500       0.43673000       0.38531750 </v>
   <v>       0.02141500       0.31227500       0.57284750 </v>
   <v>       0.33289000       0.37625500       0.79155500 </v>
   <v>       0.45828500       0.25070500       0.72884250 </v>
   <v>       0.12552000       0.87374500       0.43878000 </v>
   <v>       0.49955500       0.99856000       0.25097750 </v>
   <v>       0.18753000       0.68756000       0.77992000 </v>
   <v>       0.31234000       0.56179500       0.71926500 </v>
   <v>       0.12523500       0.62622500       0.68665250 </v>
   <v>       0.24965000       0.50016500       0.62632000 </v>
   <v>       0.37544000       0.87420500       0.56234500 </v>
   <v>       0.99989000       0.75085000       0.74831000 </v>
   <v>       0.31230000       0.81346000       0.46828500 </v>
   <v>       0.14612500       0.93832500       0.76050750 </v>
   <v>       0.20830000       0.74878000       0.60429000 </v>
   <v>       0.14574500       0.68778500       0.51141250 </v>
   <v>       0.39572500       0.93673000       0.38531750 </v>
   <v>       0.02141500       0.81227500       0.57284750 </v>
   <v>       0.33289000       0.87625500       0.79155500 </v>
   <v>       0.45828500       0.75070500       0.72884250 </v>
   <v>       0.12552000       0.37374500       0.93878000 </v>
   <v>       0.49955500       0.49856000       0.75097750 </v>
   <v>       0.18753000       0.18756000       0.27992000 </v>
   <v>       0.31234000       0.06179500       0.21926500 </v>
   <v>       0.12523500       0.12622500       0.18665250 </v>
   <v>       0.24965000       0.00016500       0.12632000 </v>
   <v>       0.37544000       0.37420500       0.06234500 </v>
   <v>       0.99989000       0.25085000       0.24831000 </v>
   <v>       0.31230000       0.31346000       0.96828500 </v>
   <v>       0.14612500       0.43832500       0.26050750 </v>
   <v>       0.20830000       0.24878000       0.10429000 </v>
   <v>       0.14574500       0.18778500       0.01141250 </v>
   <v>       0.39572500       0.43673000       0.88531750 </v>
   <v>       0.02141500       0.31227500       0.07284750 </v>
   <v>       0.33289000       0.37625500       0.29155500 </v>
   <v>       0.45828500       0.25070500       0.22884250 </v>
   <v>       0.62552000       0.37374500       0.18878000 </v>
   <v>       0.99955500       0.49856000       0.00097750 </v>
   <v>       0.68753000       0.18756000       0.52992000 </v>
   <v>       0.81234000       0.06179500       0.46926500 </v>
   <v>       0.62523500       0.12622500       0.43665250 </v>
   <v>       0.74965000       0.00016500       0.37632000 </v>
   <v>       0.87544000       0.37420500       0.31234500 </v>
   <v>       0.49989000       0.25085000       0.49831000 </v>
   <v>       0.81230000       0.31346000       0.21828500 </v>
   <v>       0.64612500       0.43832500       0.51050750 </v>
   <v>       0.70830000       0.24878000       0.35429000 </v>
   <v>       0.64574500       0.18778500       0.26141250 </v>
   <v>       0.89572500       0.43673000       0.13531750 </v>
   <v>       0.52141500       0.31227500       0.32284750 </v>
   <v>       0.83289000       0.37625500       0.54155500 </v>
   <v>       0.95828500       0.25070500       0.47884250 </v>
   <v>       0.12552000       0.87374500       0.93878000 </v>
   <v>       0.49955500       0.99856000       0.75097750 </v>
   <v>       0.18753000       0.68756000       0.27992000 </v>
   <v>       0.31234000       0.56179500       0.21926500 </v>
   <v>       0.12523500       0.62622500       0.18665250 </v>
   <v>       0.24965000       0.50016500       0.12632000 </v>
   <v>       0.37544000       0.87420500       0.06234500 </v>
   <v>       0.99989000       0.75085000       0.24831000 </v>
   <v>       0.31230000       0.81346000       0.96828500 </v>
   <v>       0.14612500       0.93832500       0.26050750 </v>
   <v>       0.20830000       0.74878000       0.10429000 </v>
   <v>       0.14574500       0.68778500       0.01141250 </v>
   <v>       0.39572500       0.93673000       0.88531750 </v>
   <v>       0.02141500       0.81227500       0.07284750 </v>
   <v>       0.33289000       0.87625500       0.29155500 </v>
   <v>       0.45828500       0.75070500       0.22884250 </v>
   <v>       0.62552000       0.87374500       0.18878000 </v>
   <v>       0.99955500       0.99856000       0.00097750 </v>
   <v>       0.68753000       0.68756000       0.52992000 </v>
   <v>       0.81234000       0.56179500       0.46926500 </v>
   <v>       0.62523500       0.62622500       0.43665250 </v>
   <v>       0.74965000       0.50016500       0.37632000 </v>
   <v>       0.87544000       0.87420500       0.31234500 </v>
   <v>       0.49989000       0.75085000       0.49831000 </v>
   <v>       0.81230000       0.81346000       0.21828500 </v>
   <v>       0.64612500       0.93832500       0.51050750 </v>
   <v>       0.70830000       0.74878000       0.35429000 </v>
   <v>       0.64574500       0.68778500       0.26141250 </v>
   <v>       0.89572500       0.93673000       0.13531750 </v>
   <v>       0.52141500       0.81227500       0.32284750 </v>
   <v>       0.83289000       0.87625500       0.54155500 </v>
   <v>       0.95828500       0.75070500       0.47884250 </v>
   <v>       0.62552000       0.37374500       0.68878000 </v>
   <v>       0.99955500       0.49856000       0.50097750 </v>
   <v>       0.68753000       0.18756000       0.02992000 </v>
   <v>       0.81234000       0.06179500       0.96926500 </v>
   <v>       0.62523500       0.12622500       0.93665250 </v>
   <v>       0.74965000       0.00016500       0.87632000 </v>
   <v>       0.87544000       0.37420500       0.81234500 </v>
   <v>       0.49989000       0.25085000       0.99831000 </v>
   <v>       0.81230000       0.31346000       0.71828500 </v>
   <v>       0.64612500       0.43832500       0.01050750 </v>
   <v>       0.70830000       0.24878000       0.85429000 </v>
   <v>       0.64574500       0.18778500       0.76141250 </v>
   <v>       0.89572500       0.43673000       0.63531750 </v>
   <v>       0.52141500       0.31227500       0.82284750 </v>
   <v>       0.83289000       0.37625500       0.04155500 </v>
   <v>       0.95828500       0.25070500       0.97884250 </v>
   <v>       0.62552000       0.87374500       0.68878000 </v>
   <v>       0.99955500       0.99856000       0.50097750 </v>
   <v>       0.68753000       0.68756000       0.02992000 </v>
   <v>       0.81234000       0.56179500       0.96926500 </v>
   <v>       0.62523500       0.62622500       0.93665250 </v>
   <v>       0.74965000       0.50016500       0.87632000 </v>
   <v>       0.87544000       0.87420500       0.81234500 </v>
   <v>       0.49989000       0.75085000       0.99831000 </v>
   <v>       0.81230000       0.81346000       0.71828500 </v>
   <v>       0.64612500       0.93832500       0.01050750 </v>
   <v>       0.70830000       0.74878000       0.85429000 </v>
   <v>       0.64574500       0.68778500       0.76141250 </v>
   <v>       0.89572500       0.93673000       0.63531750 </v>
   <v>       0.52141500       0.81227500       0.82284750 </v>
   <v>       0.83289000       0.87625500       0.04155500 </v>
   <v>       0.95828500       0.75070500       0.97884250 </v>
  </varray>
 </structure>
</modeling>
