       N       E                     dE             d eps       ncg     rms          rms(c)
DAV:   1     0.112829917239E+05    0.11283E+05   -0.55466E+05 95400   0.810E+02
DAV:   2    -0.143892853222E+04   -0.12722E+05   -0.12145E+05 95800   0.337E+02
DAV:   3    -0.241089829867E+04   -0.97197E+03   -0.89394E+03135140   0.780E+01
DAV:   4    -0.248227676504E+04   -0.71378E+02   -0.68944E+02132120   0.209E+01
DAV:   5    -0.248512057387E+04   -0.28438E+01   -0.27879E+01139900   0.331E+00    0.779E+01
RMM:   6    -0.241642700194E+04    0.68694E+02   -0.68071E+02105889   0.245E+01    0.622E+01
RMM:   7    -0.236998017951E+04    0.46447E+02   -0.35217E+02 97781   0.172E+01    0.455E+01
RMM:   8    -0.233985348358E+04    0.30127E+02   -0.15698E+02 97691   0.114E+01    0.321E+01
RMM:   9    -0.231563569048E+04    0.24218E+02   -0.34485E+01 98737   0.532E+00    0.621E+00
RMM:  10    -0.231544553056E+04    0.19016E+00   -0.73618E+00136606   0.152E+00    0.358E+00
RMM:  11    -0.231534166870E+04    0.10386E+00   -0.13296E+00121740   0.747E-01    0.402E+00
RMM:  12    -0.231489456132E+04    0.44711E+00   -0.54946E-01114223   0.638E-01    0.204E+00
RMM:  13    -0.231477747596E+04    0.11709E+00   -0.25574E-01111913   0.440E-01    0.131E+00
RMM:  14    -0.231475241664E+04    0.25059E-01   -0.15311E-01112344   0.324E-01    0.138E+00
RMM:  15    -0.231473011647E+04    0.22300E-01   -0.48625E-02120547   0.138E-01    0.958E-01
RMM:  16    -0.231471558814E+04    0.14528E-01   -0.19031E-02113597   0.108E-01    0.466E-01
RMM:  17    -0.231471276793E+04    0.28202E-02   -0.14155E-02120565   0.843E-02    0.220E-01
RMM:  18    -0.231471346798E+04   -0.70006E-03   -0.83845E-03133213   0.555E-02    0.230E-01
RMM:  19    -0.231471335286E+04    0.11512E-03   -0.22326E-03132714   0.268E-02    0.217E-01
RMM:  20    -0.231471267337E+04    0.67949E-03   -0.59498E-04111981   0.191E-02    0.135E-01
RMM:  21    -0.231471229606E+04    0.37731E-03   -0.98942E-04120586   0.225E-02    0.417E-02
RMM:  22    -0.231471226619E+04    0.29864E-04   -0.28437E-04136961   0.971E-03
   1 F= -.23147123E+04 E0= -.23147199E+04  d E =0.229652E-01
