  96  96   0   0
  0.1378350E+02  0.1089172E-08  0.1089172E-08  0.1287993E-08  0.5000000E-15
  1.000000000000000E-004
  CAR 
 Ir_Ru                                   
     15.30846323     -0.11608985  301      8.79255903      1.00000000
     -0.116  0.0000E+00  0.0000E+00
     -0.065  0.0000E+00  0.0000E+00
     -0.013  0.0000E+00  0.0000E+00
      0.038 -0.7989E-31 -0.4107E-32
      0.090 -0.3446E-27 -0.1772E-28
      0.141 -0.8726E-24 -0.4488E-25
      0.192 -0.1296E-20 -0.6667E-22
      0.244 -0.1128E-17 -0.5805E-19
      0.295 -0.5529E-15 -0.2849E-16
      0.347 -0.1653E-12 -0.8527E-14
      0.398 -0.2851E-10 -0.1474E-11
      0.449 -0.2855E-08 -0.1483E-09
      0.501 -0.1653E-06 -0.8645E-08
      0.552 -0.5496E-05 -0.2912E-06
      0.604 -0.1042E-03 -0.5648E-05
      0.655 -0.1117E-02 -0.6306E-04
      0.707 -0.6723E-02 -0.4087E-03
      0.758 -0.2259E-01 -0.1570E-02
      0.809 -0.3676E-01 -0.3460E-02
      0.861  0.3719E-01 -0.1548E-02
      0.912  0.4273E+00  0.2042E-01
      0.964  0.1285E+01  0.8649E-01
      1.015  0.2204E+01  0.1998E+00
      1.066  0.2405E+01  0.3235E+00
      1.118  0.1904E+01  0.4214E+00
      1.169  0.2189E+01  0.5339E+00
      1.221  0.4075E+01  0.7434E+00
      1.272  0.5712E+01  0.1037E+01
      1.324  0.4820E+01  0.1285E+01
      1.375  0.2445E+01  0.1411E+01
      1.426  0.1930E+01  0.1510E+01
      1.478  0.4219E+01  0.1727E+01
      1.529  0.7107E+01  0.2092E+01
      1.581  0.7895E+01  0.2498E+01
      1.632  0.6079E+01  0.2811E+01
      1.683  0.4457E+01  0.3040E+01
      1.735  0.5454E+01  0.3320E+01
      1.786  0.6958E+01  0.3678E+01
      1.838  0.6307E+01  0.4002E+01
      1.889  0.5738E+01  0.4297E+01
      1.941  0.6984E+01  0.4656E+01
      1.992  0.8409E+01  0.5089E+01
      2.043  0.9143E+01  0.5559E+01
      2.095  0.9228E+01  0.6033E+01
      2.146  0.9579E+01  0.6526E+01
      2.198  0.1118E+02  0.7101E+01
      2.249  0.1068E+02  0.7650E+01
      2.300  0.6409E+01  0.7979E+01
      2.352  0.3877E+01  0.8179E+01
      2.403  0.7102E+01  0.8544E+01
      2.455  0.1382E+02  0.9254E+01
      2.506  0.1874E+02  0.1022E+02
      2.557  0.2097E+02  0.1130E+02
      2.609  0.2600E+02  0.1263E+02
      2.660  0.3391E+02  0.1438E+02
      2.712  0.4124E+02  0.1650E+02
      2.763  0.5285E+02  0.1921E+02
      2.815  0.7088E+02  0.2286E+02
      2.866  0.8676E+02  0.2732E+02
      2.917  0.9983E+02  0.3245E+02
      2.969  0.1151E+03  0.3837E+02
      3.020  0.1285E+03  0.4498E+02
      3.072  0.1356E+03  0.5195E+02
      3.123  0.1337E+03  0.5882E+02
      3.174  0.1264E+03  0.6532E+02
      3.226  0.1224E+03  0.7162E+02
      3.277  0.1354E+03  0.7858E+02
      3.329  0.1619E+03  0.8690E+02
      3.380  0.1725E+03  0.9577E+02
      3.432  0.1629E+03  0.1041E+03
      3.483  0.1593E+03  0.1123E+03
      3.534  0.1669E+03  0.1209E+03
      3.586  0.1620E+03  0.1292E+03
      3.637  0.1438E+03  0.1366E+03
      3.689  0.1355E+03  0.1436E+03
      3.740  0.1319E+03  0.1504E+03
      3.791  0.1205E+03  0.1566E+03
      3.843  0.1113E+03  0.1623E+03
      3.894  0.1078E+03  0.1678E+03
      3.946  0.1055E+03  0.1733E+03
      3.997  0.1064E+03  0.1787E+03
      4.049  0.1062E+03  0.1842E+03
      4.100  0.1024E+03  0.1895E+03
      4.151  0.9798E+02  0.1945E+03
      4.203  0.9653E+02  0.1995E+03
      4.254  0.1110E+03  0.2052E+03
      4.306  0.1365E+03  0.2122E+03
      4.357  0.1481E+03  0.2198E+03
      4.408  0.1446E+03  0.2272E+03
      4.460  0.1397E+03  0.2344E+03
      4.511  0.1364E+03  0.2414E+03
      4.563  0.1336E+03  0.2483E+03
      4.614  0.1282E+03  0.2549E+03
      4.666  0.1156E+03  0.2608E+03
      4.717  0.1062E+03  0.2663E+03
      4.768  0.1088E+03  0.2719E+03
      4.820  0.1193E+03  0.2780E+03
      4.871  0.1316E+03  0.2848E+03
      4.923  0.1393E+03  0.2920E+03
      4.974  0.1415E+03  0.2992E+03
      5.025  0.1368E+03  0.3063E+03
      5.077  0.1231E+03  0.3126E+03
      5.128  0.1207E+03  0.3188E+03
      5.180  0.1462E+03  0.3263E+03
      5.231  0.1632E+03  0.3347E+03
      5.283  0.1408E+03  0.3420E+03
      5.334  0.1093E+03  0.3476E+03
      5.385  0.9609E+02  0.3525E+03
      5.437  0.8769E+02  0.3570E+03
      5.488  0.7285E+02  0.3608E+03
      5.540  0.5468E+02  0.3636E+03
      5.591  0.4279E+02  0.3658E+03
      5.642  0.5583E+02  0.3686E+03
      5.694  0.9364E+02  0.3735E+03
      5.745  0.1284E+03  0.3801E+03
      5.797  0.1494E+03  0.3877E+03
      5.848  0.1692E+03  0.3964E+03
      5.899  0.1825E+03  0.4058E+03
      5.951  0.1857E+03  0.4154E+03
      6.002  0.1914E+03  0.4252E+03
      6.054  0.1917E+03  0.4351E+03
      6.105  0.1778E+03  0.4442E+03
      6.157  0.1547E+03  0.4522E+03
      6.208  0.1331E+03  0.4590E+03
      6.259  0.1235E+03  0.4654E+03
      6.311  0.1213E+03  0.4716E+03
      6.362  0.1202E+03  0.4778E+03
      6.414  0.1268E+03  0.4843E+03
      6.465  0.1447E+03  0.4917E+03
      6.516  0.1657E+03  0.5003E+03
      6.568  0.1880E+03  0.5099E+03
      6.619  0.2034E+03  0.5204E+03
      6.671  0.1914E+03  0.5302E+03
      6.722  0.1610E+03  0.5385E+03
      6.774  0.1408E+03  0.5457E+03
      6.825  0.1352E+03  0.5527E+03
      6.876  0.1312E+03  0.5594E+03
      6.928  0.1262E+03  0.5659E+03
      6.979  0.1306E+03  0.5726E+03
      7.031  0.1412E+03  0.5799E+03
      7.082  0.1502E+03  0.5876E+03
      7.133  0.1600E+03  0.5958E+03
      7.185  0.1679E+03  0.6045E+03
      7.236  0.1694E+03  0.6132E+03
      7.288  0.1672E+03  0.6218E+03
      7.339  0.1633E+03  0.6302E+03
      7.391  0.1541E+03  0.6381E+03
      7.442  0.1318E+03  0.6449E+03
      7.493  0.1128E+03  0.6507E+03
      7.545  0.1209E+03  0.6569E+03
      7.596  0.1336E+03  0.6638E+03
      7.648  0.1219E+03  0.6700E+03
      7.699  0.1012E+03  0.6752E+03
      7.750  0.9614E+02  0.6802E+03
      7.802  0.1042E+03  0.6855E+03
      7.853  0.1075E+03  0.6911E+03
      7.905  0.1003E+03  0.6962E+03
      7.956  0.8800E+02  0.7008E+03
      8.008  0.7584E+02  0.7047E+03
      8.059  0.7218E+02  0.7084E+03
      8.110  0.7500E+02  0.7122E+03
      8.162  0.7714E+02  0.7162E+03
      8.213  0.8385E+02  0.7205E+03
      8.265  0.9962E+02  0.7256E+03
      8.316  0.1174E+03  0.7317E+03
      8.367  0.1228E+03  0.7380E+03
      8.419  0.1093E+03  0.7436E+03
      8.470  0.8461E+02  0.7479E+03
      8.522  0.6871E+02  0.7515E+03
      8.573  0.6976E+02  0.7551E+03
      8.624  0.6664E+02  0.7585E+03
      8.676  0.4999E+02  0.7611E+03
      8.727  0.4402E+02  0.7633E+03
      8.779  0.6662E+02  0.7667E+03
      8.830  0.1042E+03  0.7721E+03
      8.882  0.1270E+03  0.7786E+03
      8.933  0.1189E+03  0.7847E+03
      8.984  0.9152E+02  0.7895E+03
      9.036  0.6949E+02  0.7930E+03
      9.087  0.6191E+02  0.7962E+03
      9.139  0.6613E+02  0.7996E+03
      9.190  0.7629E+02  0.8035E+03
      9.241  0.8107E+02  0.8077E+03
      9.293  0.7985E+02  0.8118E+03
      9.344  0.8252E+02  0.8160E+03
      9.396  0.9758E+02  0.8211E+03
      9.447  0.1198E+03  0.8272E+03
      9.499  0.1291E+03  0.8339E+03
      9.550  0.1266E+03  0.8404E+03
      9.601  0.1300E+03  0.8471E+03
      9.653  0.1377E+03  0.8541E+03
      9.704  0.1343E+03  0.8610E+03
      9.756  0.1155E+03  0.8670E+03
      9.807  0.1062E+03  0.8724E+03
      9.858  0.1328E+03  0.8793E+03
      9.910  0.1744E+03  0.8882E+03
      9.961  0.1871E+03  0.8979E+03
     10.013  0.1698E+03  0.9066E+03
     10.064  0.1603E+03  0.9148E+03
     10.116  0.1747E+03  0.9238E+03
     10.167  0.1964E+03  0.9339E+03
     10.218  0.2123E+03  0.9448E+03
     10.270  0.2177E+03  0.9560E+03
     10.321  0.2125E+03  0.9669E+03
     10.373  0.1984E+03  0.9771E+03
     10.424  0.1697E+03  0.9859E+03
     10.475  0.1360E+03  0.9929E+03
     10.527  0.1052E+03  0.9983E+03
     10.578  0.7098E+02  0.1002E+04
     10.630  0.4012E+02  0.1004E+04
     10.681  0.2290E+02  0.1005E+04
     10.733  0.1645E+02  0.1006E+04
     10.784  0.1267E+02  0.1007E+04
     10.835  0.8732E+01  0.1007E+04
     10.887  0.7299E+01  0.1007E+04
     10.938  0.8698E+01  0.1008E+04
     10.990  0.8843E+01  0.1008E+04
     11.041  0.6491E+01  0.1009E+04
     11.092  0.4808E+01  0.1009E+04
     11.144  0.5099E+01  0.1009E+04
     11.195  0.5358E+01  0.1009E+04
     11.247  0.5115E+01  0.1010E+04
     11.298  0.4990E+01  0.1010E+04
     11.349  0.5441E+01  0.1010E+04
     11.401  0.7565E+01  0.1011E+04
     11.452  0.9801E+01  0.1011E+04
     11.504  0.9098E+01  0.1012E+04
     11.555  0.6561E+01  0.1012E+04
     11.607  0.4955E+01  0.1012E+04
     11.658  0.4721E+01  0.1012E+04
     11.709  0.4881E+01  0.1013E+04
     11.761  0.4511E+01  0.1013E+04
     11.812  0.3956E+01  0.1013E+04
     11.864  0.3679E+01  0.1013E+04
     11.915  0.4004E+01  0.1014E+04
     11.966  0.5236E+01  0.1014E+04
     12.018  0.6692E+01  0.1014E+04
     12.069  0.7750E+01  0.1015E+04
     12.121  0.8106E+01  0.1015E+04
     12.172  0.7594E+01  0.1015E+04
     12.224  0.7121E+01  0.1016E+04
     12.275  0.7610E+01  0.1016E+04
     12.326  0.8518E+01  0.1017E+04
     12.378  0.9421E+01  0.1017E+04
     12.429  0.1003E+02  0.1018E+04
     12.481  0.9637E+01  0.1018E+04
     12.532  0.9026E+01  0.1019E+04
     12.583  0.8907E+01  0.1019E+04
     12.635  0.8348E+01  0.1019E+04
     12.686  0.6684E+01  0.1020E+04
     12.738  0.5053E+01  0.1020E+04
     12.789  0.4643E+01  0.1020E+04
     12.841  0.5065E+01  0.1021E+04
     12.892  0.5534E+01  0.1021E+04
     12.943  0.5008E+01  0.1021E+04
     12.995  0.3472E+01  0.1021E+04
     13.046  0.2799E+01  0.1021E+04
     13.098  0.3733E+01  0.1022E+04
     13.149  0.5116E+01  0.1022E+04
     13.200  0.5742E+01  0.1022E+04
     13.252  0.5279E+01  0.1022E+04
     13.303  0.4203E+01  0.1023E+04
     13.355  0.3194E+01  0.1023E+04
     13.406  0.2399E+01  0.1023E+04
     13.458  0.1692E+01  0.1023E+04
     13.509  0.1584E+01  0.1023E+04
     13.560  0.2198E+01  0.1023E+04
     13.612  0.2774E+01  0.1023E+04
     13.663  0.2978E+01  0.1023E+04
     13.715  0.2588E+01  0.1024E+04
     13.766  0.1415E+01  0.1024E+04
     13.817  0.3641E+00  0.1024E+04
     13.869  0.5167E+00  0.1024E+04
     13.920  0.1463E+01  0.1024E+04
     13.972  0.1601E+01  0.1024E+04
     14.023  0.7277E+00  0.1024E+04
     14.074  0.1133E+00  0.1024E+04
     14.126  0.8502E-01  0.1024E+04
     14.177  0.1704E+00  0.1024E+04
     14.229  0.2061E+00  0.1024E+04
     14.280  0.2214E+00  0.1024E+04
     14.332  0.1934E+00  0.1024E+04
     14.383  0.1034E+00  0.1024E+04
     14.434  0.1745E-01  0.1024E+04
     14.486 -0.9127E-02  0.1024E+04
     14.537 -0.5073E-02  0.1024E+04
     14.589 -0.1007E-02  0.1024E+04
     14.640 -0.1001E-03  0.1024E+04
     14.691 -0.5408E-05  0.1024E+04
     14.743 -0.1642E-06  0.1024E+04
     14.794 -0.2847E-08  0.1024E+04
     14.846 -0.2848E-10  0.1024E+04
     14.897 -0.1651E-12  0.1024E+04
     14.949 -0.6046E-15  0.1024E+04
     15.000  0.0000E+00  0.1024E+04
     15.051  0.0000E+00  0.1024E+04
     15.103  0.0000E+00  0.1024E+04
     15.154  0.0000E+00  0.1024E+04
     15.206  0.0000E+00  0.1024E+04
     15.257  0.0000E+00  0.1024E+04
     15.308  0.0000E+00  0.1024E+04
