  20  20   0   0
  0.1382907E+02  0.4666255E-09  0.5389364E-09  0.1174026E-08  0.5000000E-15
  1.000000000000000E-004
  CAR 
 Ir_Ru                                   
     11.70674080     -0.13723368  301      8.62443809      1.00000000
     -0.137  0.0000E+00  0.0000E+00
     -0.098  0.0000E+00  0.0000E+00
     -0.058  0.0000E+00  0.0000E+00
     -0.019  0.0000E+00  0.0000E+00
      0.021  0.0000E+00  0.0000E+00
      0.060 -0.2450E-28 -0.9671E-30
      0.100 -0.1124E-25 -0.4448E-27
      0.139 -0.3773E-23 -0.1494E-24
      0.179 -0.9241E-21 -0.3663E-22
      0.218 -0.1651E-18 -0.6555E-20
      0.258 -0.2151E-16 -0.8557E-18
      0.297 -0.1979E-14 -0.7899E-16
      0.337 -0.1361E-12 -0.5452E-14
      0.376 -0.6800E-11 -0.2739E-12
      0.415 -0.2465E-09 -0.1001E-10
      0.455 -0.6470E-08 -0.2654E-09
      0.494 -0.1226E-06 -0.5107E-08
      0.534 -0.1674E-05 -0.7120E-07
      0.573 -0.1640E-04 -0.7186E-06
      0.613 -0.1147E-03 -0.5249E-05
      0.652 -0.5707E-03 -0.2778E-04
      0.692 -0.2004E-02 -0.1069E-03
      0.731 -0.4882E-02 -0.2996E-03
      0.771 -0.7603E-02 -0.5998E-03
      0.810 -0.3297E-02 -0.7299E-03
      0.850  0.2406E-01  0.2198E-03
      0.889  0.9843E-01  0.4106E-02
      0.929  0.2304E+00  0.1320E-01
      0.968  0.3847E+00  0.2839E-01
      1.008  0.4904E+00  0.4775E-01
      1.047  0.5066E+00  0.6775E-01
      1.087  0.4721E+00  0.8639E-01
      1.126  0.4864E+00  0.1056E+00
      1.166  0.6230E+00  0.1302E+00
      1.205  0.8299E+00  0.1630E+00
      1.245  0.9528E+00  0.2006E+00
      1.284  0.9161E+00  0.2367E+00
      1.324  0.8171E+00  0.2690E+00
      1.363  0.7966E+00  0.3004E+00
      1.402  0.8798E+00  0.3352E+00
      1.442  0.9974E+00  0.3746E+00
      1.481  0.1104E+01  0.4181E+00
      1.521  0.1166E+01  0.4642E+00
      1.560  0.1127E+01  0.5087E+00
      1.600  0.1030E+01  0.5493E+00
      1.639  0.1045E+01  0.5906E+00
      1.679  0.1237E+01  0.6394E+00
      1.718  0.1485E+01  0.6980E+00
      1.758  0.1653E+01  0.7633E+00
      1.797  0.1687E+01  0.8299E+00
      1.837  0.1586E+01  0.8925E+00
      1.876  0.1412E+01  0.9482E+00
      1.916  0.1301E+01  0.9996E+00
      1.955  0.1371E+01  0.1054E+01
      1.995  0.1575E+01  0.1116E+01
      2.034  0.1719E+01  0.1184E+01
      2.074  0.1696E+01  0.1251E+01
      2.113  0.1667E+01  0.1316E+01
      2.153  0.1842E+01  0.1389E+01
      2.192  0.2168E+01  0.1475E+01
      2.232  0.2392E+01  0.1569E+01
      2.271  0.2385E+01  0.1663E+01
      2.311  0.2303E+01  0.1754E+01
      2.350  0.2472E+01  0.1852E+01
      2.389  0.3054E+01  0.1972E+01
      2.429  0.3811E+01  0.2123E+01
      2.468  0.4357E+01  0.2295E+01
      2.508  0.4625E+01  0.2478E+01
      2.547  0.4908E+01  0.2671E+01
      2.587  0.5536E+01  0.2890E+01
      2.626  0.6671E+01  0.3153E+01
      2.666  0.8250E+01  0.3479E+01
      2.705  0.1003E+02  0.3875E+01
      2.745  0.1179E+02  0.4341E+01
      2.784  0.1358E+02  0.4877E+01
      2.824  0.1560E+02  0.5492E+01
      2.863  0.1784E+02  0.6197E+01
      2.903  0.1988E+02  0.6982E+01
      2.942  0.2130E+02  0.7823E+01
      2.982  0.2217E+02  0.8698E+01
      3.021  0.2282E+02  0.9599E+01
      3.061  0.2359E+02  0.1053E+02
      3.100  0.2477E+02  0.1151E+02
      3.140  0.2647E+02  0.1255E+02
      3.179  0.2835E+02  0.1367E+02
      3.219  0.2981E+02  0.1485E+02
      3.258  0.3056E+02  0.1606E+02
      3.298  0.3099E+02  0.1728E+02
      3.337  0.3175E+02  0.1853E+02
      3.376  0.3316E+02  0.1984E+02
      3.416  0.3493E+02  0.2122E+02
      3.455  0.3657E+02  0.2266E+02
      3.495  0.3772E+02  0.2415E+02
      3.534  0.3805E+02  0.2566E+02
      3.574  0.3735E+02  0.2713E+02
      3.613  0.3585E+02  0.2855E+02
      3.653  0.3419E+02  0.2989E+02
      3.692  0.3294E+02  0.3120E+02
      3.732  0.3214E+02  0.3246E+02
      3.771  0.3155E+02  0.3371E+02
      3.811  0.3112E+02  0.3494E+02
      3.850  0.3091E+02  0.3616E+02
      3.890  0.3067E+02  0.3737E+02
      3.929  0.3000E+02  0.3855E+02
      3.969  0.2889E+02  0.3969E+02
      4.008  0.2764E+02  0.4079E+02
      4.048  0.2643E+02  0.4183E+02
      4.087  0.2539E+02  0.4283E+02
      4.127  0.2451E+02  0.4380E+02
      4.166  0.2365E+02  0.4473E+02
      4.206  0.2277E+02  0.4563E+02
      4.245  0.2198E+02  0.4650E+02
      4.285  0.2147E+02  0.4735E+02
      4.324  0.2128E+02  0.4819E+02
      4.363  0.2127E+02  0.4903E+02
      4.403  0.2114E+02  0.4986E+02
      4.442  0.2082E+02  0.5068E+02
      4.482  0.2071E+02  0.5150E+02
      4.521  0.2117E+02  0.5234E+02
      4.561  0.2200E+02  0.5320E+02
      4.600  0.2276E+02  0.5410E+02
      4.640  0.2329E+02  0.5502E+02
      4.679  0.2364E+02  0.5596E+02
      4.719  0.2378E+02  0.5690E+02
      4.758  0.2379E+02  0.5783E+02
      4.798  0.2377E+02  0.5877E+02
      4.837  0.2365E+02  0.5971E+02
      4.877  0.2330E+02  0.6063E+02
      4.916  0.2295E+02  0.6153E+02
      4.956  0.2309E+02  0.6244E+02
      4.995  0.2363E+02  0.6338E+02
      5.035  0.2400E+02  0.6432E+02
      5.074  0.2388E+02  0.6527E+02
      5.114  0.2341E+02  0.6619E+02
      5.153  0.2270E+02  0.6709E+02
      5.193  0.2184E+02  0.6795E+02
      5.232  0.2121E+02  0.6879E+02
      5.272  0.2116E+02  0.6962E+02
      5.311  0.2159E+02  0.7048E+02
      5.350  0.2203E+02  0.7135E+02
      5.390  0.2226E+02  0.7222E+02
      5.429  0.2250E+02  0.7311E+02
      5.469  0.2301E+02  0.7402E+02
      5.508  0.2372E+02  0.7496E+02
      5.548  0.2445E+02  0.7592E+02
      5.587  0.2506E+02  0.7691E+02
      5.627  0.2562E+02  0.7792E+02
      5.666  0.2620E+02  0.7896E+02
      5.706  0.2657E+02  0.8001E+02
      5.745  0.2640E+02  0.8105E+02
      5.785  0.2585E+02  0.8207E+02
      5.824  0.2539E+02  0.8307E+02
      5.864  0.2535E+02  0.8407E+02
      5.903  0.2582E+02  0.8509E+02
      5.943  0.2665E+02  0.8614E+02
      5.982  0.2770E+02  0.8724E+02
      6.022  0.2903E+02  0.8838E+02
      6.061  0.3050E+02  0.8959E+02
      6.101  0.3165E+02  0.9084E+02
      6.140  0.3238E+02  0.9212E+02
      6.180  0.3324E+02  0.9343E+02
      6.219  0.3461E+02  0.9479E+02
      6.259  0.3625E+02  0.9623E+02
      6.298  0.3785E+02  0.9772E+02
      6.337  0.3936E+02  0.9927E+02
      6.377  0.4066E+02  0.1009E+03
      6.416  0.4157E+02  0.1025E+03
      6.456  0.4199E+02  0.1042E+03
      6.495  0.4192E+02  0.1058E+03
      6.535  0.4121E+02  0.1075E+03
      6.574  0.3978E+02  0.1090E+03
      6.614  0.3773E+02  0.1105E+03
      6.653  0.3541E+02  0.1119E+03
      6.693  0.3313E+02  0.1132E+03
      6.732  0.3092E+02  0.1144E+03
      6.772  0.2866E+02  0.1156E+03
      6.811  0.2646E+02  0.1166E+03
      6.851  0.2480E+02  0.1176E+03
      6.890  0.2412E+02  0.1186E+03
      6.930  0.2424E+02  0.1195E+03
      6.969  0.2465E+02  0.1205E+03
      7.009  0.2491E+02  0.1215E+03
      7.048  0.2485E+02  0.1224E+03
      7.088  0.2442E+02  0.1234E+03
      7.127  0.2374E+02  0.1244E+03
      7.167  0.2314E+02  0.1253E+03
      7.206  0.2296E+02  0.1262E+03
      7.246  0.2305E+02  0.1271E+03
      7.285  0.2281E+02  0.1280E+03
      7.324  0.2205E+02  0.1289E+03
      7.364  0.2132E+02  0.1297E+03
      7.403  0.2122E+02  0.1305E+03
      7.443  0.2158E+02  0.1314E+03
      7.482  0.2178E+02  0.1322E+03
      7.522  0.2153E+02  0.1331E+03
      7.561  0.2137E+02  0.1339E+03
      7.601  0.2184E+02  0.1348E+03
      7.640  0.2266E+02  0.1357E+03
      7.680  0.2324E+02  0.1366E+03
      7.719  0.2341E+02  0.1375E+03
      7.759  0.2342E+02  0.1385E+03
      7.798  0.2354E+02  0.1394E+03
      7.838  0.2387E+02  0.1403E+03
      7.877  0.2425E+02  0.1413E+03
      7.917  0.2468E+02  0.1423E+03
      7.956  0.2531E+02  0.1433E+03
      7.996  0.2591E+02  0.1443E+03
      8.035  0.2606E+02  0.1453E+03
      8.075  0.2586E+02  0.1463E+03
      8.114  0.2579E+02  0.1474E+03
      8.154  0.2604E+02  0.1484E+03
      8.193  0.2634E+02  0.1494E+03
      8.233  0.2633E+02  0.1505E+03
      8.272  0.2586E+02  0.1515E+03
      8.311  0.2505E+02  0.1525E+03
      8.351  0.2434E+02  0.1534E+03
      8.390  0.2405E+02  0.1544E+03
      8.430  0.2414E+02  0.1553E+03
      8.469  0.2435E+02  0.1563E+03
      8.509  0.2446E+02  0.1573E+03
      8.548  0.2429E+02  0.1582E+03
      8.588  0.2379E+02  0.1592E+03
      8.627  0.2292E+02  0.1601E+03
      8.667  0.2179E+02  0.1609E+03
      8.706  0.2076E+02  0.1617E+03
      8.746  0.2030E+02  0.1625E+03
      8.785  0.2033E+02  0.1633E+03
      8.825  0.2048E+02  0.1642E+03
      8.864  0.2064E+02  0.1650E+03
      8.904  0.2106E+02  0.1658E+03
      8.943  0.2162E+02  0.1667E+03
      8.983  0.2173E+02  0.1675E+03
      9.022  0.2099E+02  0.1683E+03
      9.062  0.1975E+02  0.1691E+03
      9.101  0.1893E+02  0.1699E+03
      9.141  0.1907E+02  0.1706E+03
      9.180  0.1992E+02  0.1714E+03
      9.220  0.2076E+02  0.1722E+03
      9.259  0.2102E+02  0.1731E+03
      9.298  0.2074E+02  0.1739E+03
      9.338  0.2035E+02  0.1747E+03
      9.377  0.2021E+02  0.1755E+03
      9.417  0.2027E+02  0.1763E+03
      9.456  0.2038E+02  0.1771E+03
      9.496  0.2053E+02  0.1779E+03
      9.535  0.2080E+02  0.1787E+03
      9.575  0.2121E+02  0.1796E+03
      9.614  0.2182E+02  0.1804E+03
      9.654  0.2262E+02  0.1813E+03
      9.693  0.2346E+02  0.1822E+03
      9.733  0.2419E+02  0.1832E+03
      9.772  0.2460E+02  0.1842E+03
      9.812  0.2464E+02  0.1851E+03
      9.851  0.2477E+02  0.1861E+03
      9.891  0.2559E+02  0.1871E+03
      9.930  0.2711E+02  0.1882E+03
      9.970  0.2888E+02  0.1893E+03
     10.009  0.3056E+02  0.1905E+03
     10.049  0.3196E+02  0.1918E+03
     10.088  0.3272E+02  0.1931E+03
     10.128  0.3245E+02  0.1944E+03
     10.167  0.3113E+02  0.1956E+03
     10.207  0.2878E+02  0.1967E+03
     10.246  0.2520E+02  0.1977E+03
     10.285  0.2046E+02  0.1985E+03
     10.325  0.1526E+02  0.1991E+03
     10.364  0.1037E+02  0.1996E+03
     10.404  0.6223E+01  0.1998E+03
     10.443  0.3133E+01  0.1999E+03
     10.483  0.1231E+01  0.2000E+03
     10.522  0.3470E+00  0.2000E+03
     10.562  0.7598E-01  0.2000E+03
     10.601  0.4240E-01  0.2000E+03
     10.641  0.5706E-01  0.2000E+03
     10.680  0.7042E-01  0.2000E+03
     10.720  0.7048E-01  0.2000E+03
     10.759  0.5069E-01  0.2000E+03
     10.799  0.2148E-01  0.2000E+03
     10.838  0.1516E-02  0.2000E+03
     10.878 -0.4059E-02  0.2000E+03
     10.917 -0.2708E-02  0.2000E+03
     10.957 -0.9344E-03  0.2000E+03
     10.996 -0.2060E-03  0.2000E+03
     11.036 -0.3088E-04  0.2000E+03
     11.075 -0.3235E-05  0.2000E+03
     11.115 -0.2404E-06  0.2000E+03
     11.154 -0.1279E-07  0.2000E+03
     11.194 -0.4896E-09  0.2000E+03
     11.233 -0.1354E-10  0.2000E+03
     11.272 -0.2715E-12  0.2000E+03
     11.312 -0.3954E-14  0.2000E+03
     11.351 -0.4545E-16  0.2000E+03
     11.391  0.0000E+00  0.2000E+03
     11.430  0.0000E+00  0.2000E+03
     11.470  0.0000E+00  0.2000E+03
     11.509  0.0000E+00  0.2000E+03
     11.549  0.0000E+00  0.2000E+03
     11.588  0.0000E+00  0.2000E+03
     11.628  0.0000E+00  0.2000E+03
     11.667  0.0000E+00  0.2000E+03
     11.707  0.0000E+00  0.2000E+03
