<?xml version="1.0" encoding="ISO-8859-1"?>
<modeling>
 <generator>
  <i name="program" type="string">vasp </i>
  <i name="version" type="string">5.4.1  </i>
  <i name="subversion" type="string">24Jun15 (build Feb 03 2017 16:24:58) complex                          parallel </i>
  <i name="platform" type="string">IFC91_ompi </i>
  <i name="date" type="string">2018 06 25 </i>
  <i name="time" type="string">17:18:48 </i>
 </generator>
 <incar>
  <i type="string" name="SYSTEM"> Ir_Ru</i>
  <i type="int" name="ISTART">     0</i>
  <i type="string" name="PREC">accurate</i>
  <i type="string" name="ALGO"> Fast</i>
  <i type="int" name="ICHARG">     2</i>
  <i type="int" name="NELMIN">     5</i>
  <i type="int" name="IBRION">    -1</i>
  <i name="EDIFFG">      0.00001000</i>
  <i type="int" name="ISIF">     2</i>
  <i type="string" name="LREAL"> AUTO</i>
  <i type="int" name="ISMEAR">     1</i>
  <i name="SIGMA">      0.10000000</i>
  <v type="int" name="KPOINT_BSE">    -1     0     0     0</v>
 </incar>
 <kpoints>
  <generation param="Gamma">
   <v type="int" name="divisions">      11        9        5 </v>
   <v name="usershift">      0.00000000       0.00000000       0.00000000 </v>
   <v name="genvec1">      0.09090909       0.00000000       0.00000000 </v>
   <v name="genvec2">      0.00000000       0.11111111      -0.00000000 </v>
   <v name="genvec3">      0.00000000       0.00000000       0.20000000 </v>
   <v name="shift">      0.00000000       0.00000000       0.00000000 </v>
  </generation>
  <varray name="kpointlist" >
   <v>       0.00000000       0.00000000       0.00000000 </v>
   <v>       0.09090909       0.00000000      -0.00000000 </v>
   <v>       0.18181818       0.00000000      -0.00000000 </v>
   <v>       0.27272727       0.00000000       0.00000000 </v>
   <v>       0.36363636       0.00000000      -0.00000000 </v>
   <v>       0.45454545       0.00000000      -0.00000000 </v>
   <v>       0.00000000       0.11111111      -0.00000000 </v>
   <v>       0.09090909       0.11111111      -0.00000000 </v>
   <v>       0.18181818       0.11111111      -0.00000000 </v>
   <v>       0.27272727       0.11111111       0.00000000 </v>
   <v>       0.36363636       0.11111111      -0.00000000 </v>
   <v>       0.45454545       0.11111111       0.00000000 </v>
   <v>      -0.45454545       0.11111111       0.00000000 </v>
   <v>      -0.36363636       0.11111111      -0.00000000 </v>
   <v>      -0.27272727       0.11111111      -0.00000000 </v>
   <v>      -0.18181818       0.11111111       0.00000000 </v>
   <v>      -0.09090909       0.11111111       0.00000000 </v>
   <v>       0.00000000       0.22222222      -0.00000000 </v>
   <v>       0.09090909       0.22222222      -0.00000000 </v>
   <v>       0.18181818       0.22222222      -0.00000000 </v>
   <v>       0.27272727       0.22222222      -0.00000000 </v>
   <v>       0.36363636       0.22222222      -0.00000000 </v>
   <v>       0.45454545       0.22222222      -0.00000000 </v>
   <v>      -0.45454545       0.22222222       0.00000000 </v>
   <v>      -0.36363636       0.22222222       0.00000000 </v>
   <v>      -0.27272727       0.22222222       0.00000000 </v>
   <v>      -0.18181818       0.22222222       0.00000000 </v>
   <v>      -0.09090909       0.22222222      -0.00000000 </v>
   <v>       0.00000000       0.33333333      -0.00000000 </v>
   <v>       0.09090909       0.33333333      -0.00000000 </v>
   <v>       0.18181818       0.33333333      -0.00000000 </v>
   <v>       0.27272727       0.33333333      -0.00000000 </v>
   <v>       0.36363636       0.33333333      -0.00000000 </v>
   <v>       0.45454545       0.33333333      -0.00000000 </v>
   <v>      -0.45454545       0.33333333       0.00000000 </v>
   <v>      -0.36363636       0.33333333       0.00000000 </v>
   <v>      -0.27272727       0.33333333      -0.00000000 </v>
   <v>      -0.18181818       0.33333333       0.00000000 </v>
   <v>      -0.09090909       0.33333333       0.00000000 </v>
   <v>       0.00000000       0.44444444      -0.00000000 </v>
   <v>       0.09090909       0.44444444      -0.00000000 </v>
   <v>       0.18181818       0.44444444      -0.00000000 </v>
   <v>       0.27272727       0.44444444      -0.00000000 </v>
   <v>       0.36363636       0.44444444      -0.00000000 </v>
   <v>       0.45454545       0.44444444      -0.00000000 </v>
   <v>      -0.45454545       0.44444444       0.00000000 </v>
   <v>      -0.36363636       0.44444444       0.00000000 </v>
   <v>      -0.27272727       0.44444444      -0.00000000 </v>
   <v>      -0.18181818       0.44444444      -0.00000000 </v>
   <v>      -0.09090909       0.44444444      -0.00000000 </v>
   <v>      -0.00000000       0.00000000       0.20000000 </v>
   <v>       0.09090909       0.00000000       0.20000000 </v>
   <v>       0.18181818       0.00000000       0.20000000 </v>
   <v>       0.27272727       0.00000000       0.20000000 </v>
   <v>       0.36363636       0.00000000       0.20000000 </v>
   <v>       0.45454545       0.00000000       0.20000000 </v>
   <v>      -0.45454545      -0.00000000       0.20000000 </v>
   <v>      -0.36363636      -0.00000000       0.20000000 </v>
   <v>      -0.27272727       0.00000000       0.20000000 </v>
   <v>      -0.18181818      -0.00000000       0.20000000 </v>
   <v>      -0.09090909       0.00000000       0.20000000 </v>
   <v>      -0.00000000       0.11111111       0.20000000 </v>
   <v>       0.09090909       0.11111111       0.20000000 </v>
   <v>       0.18181818       0.11111111       0.20000000 </v>
   <v>       0.27272727       0.11111111       0.20000000 </v>
   <v>       0.36363636       0.11111111       0.20000000 </v>
   <v>       0.45454545       0.11111111       0.20000000 </v>
   <v>      -0.45454545       0.11111111       0.20000000 </v>
   <v>      -0.36363636       0.11111111       0.20000000 </v>
   <v>      -0.27272727       0.11111111       0.20000000 </v>
   <v>      -0.18181818       0.11111111       0.20000000 </v>
   <v>      -0.09090909       0.11111111       0.20000000 </v>
   <v>       0.00000000       0.22222222       0.20000000 </v>
   <v>       0.09090909       0.22222222       0.20000000 </v>
   <v>       0.18181818       0.22222222       0.20000000 </v>
   <v>       0.27272727       0.22222222       0.20000000 </v>
   <v>       0.36363636       0.22222222       0.20000000 </v>
   <v>       0.45454545       0.22222222       0.20000000 </v>
   <v>      -0.45454545       0.22222222       0.20000000 </v>
   <v>      -0.36363636       0.22222222       0.20000000 </v>
   <v>      -0.27272727       0.22222222       0.20000000 </v>
   <v>      -0.18181818       0.22222222       0.20000000 </v>
   <v>      -0.09090909       0.22222222       0.20000000 </v>
   <v>       0.00000000       0.33333333       0.20000000 </v>
   <v>       0.09090909       0.33333333       0.20000000 </v>
   <v>       0.18181818       0.33333333       0.20000000 </v>
   <v>       0.27272727       0.33333333       0.20000000 </v>
   <v>       0.36363636       0.33333333       0.20000000 </v>
   <v>       0.45454545       0.33333333       0.20000000 </v>
   <v>      -0.45454545       0.33333333       0.20000000 </v>
   <v>      -0.36363636       0.33333333       0.20000000 </v>
   <v>      -0.27272727       0.33333333       0.20000000 </v>
   <v>      -0.18181818       0.33333333       0.20000000 </v>
   <v>      -0.09090909       0.33333333       0.20000000 </v>
   <v>       0.00000000       0.44444444       0.20000000 </v>
   <v>       0.09090909       0.44444444       0.20000000 </v>
   <v>       0.18181818       0.44444444       0.20000000 </v>
   <v>       0.27272727       0.44444444       0.20000000 </v>
   <v>       0.36363636       0.44444444       0.20000000 </v>
   <v>       0.45454545       0.44444444       0.20000000 </v>
   <v>      -0.45454545       0.44444444       0.20000000 </v>
   <v>      -0.36363636       0.44444444       0.20000000 </v>
   <v>      -0.27272727       0.44444444       0.20000000 </v>
   <v>      -0.18181818       0.44444444       0.20000000 </v>
   <v>      -0.09090909       0.44444444       0.20000000 </v>
   <v>      -0.00000000      -0.44444444       0.20000000 </v>
   <v>       0.09090909      -0.44444444       0.20000000 </v>
   <v>       0.18181818      -0.44444444       0.20000000 </v>
   <v>       0.27272727      -0.44444444       0.20000000 </v>
   <v>       0.36363636      -0.44444444       0.20000000 </v>
   <v>       0.45454545      -0.44444444       0.20000000 </v>
   <v>      -0.45454545      -0.44444444       0.20000000 </v>
   <v>      -0.36363636      -0.44444444       0.20000000 </v>
   <v>      -0.27272727      -0.44444444       0.20000000 </v>
   <v>      -0.18181818      -0.44444444       0.20000000 </v>
   <v>      -0.09090909      -0.44444444       0.20000000 </v>
   <v>      -0.00000000      -0.33333333       0.20000000 </v>
   <v>       0.09090909      -0.33333333       0.20000000 </v>
   <v>       0.18181818      -0.33333333       0.20000000 </v>
   <v>       0.27272727      -0.33333333       0.20000000 </v>
   <v>       0.36363636      -0.33333333       0.20000000 </v>
   <v>       0.45454545      -0.33333333       0.20000000 </v>
   <v>      -0.45454545      -0.33333333       0.20000000 </v>
   <v>      -0.36363636      -0.33333333       0.20000000 </v>
   <v>      -0.27272727      -0.33333333       0.20000000 </v>
   <v>      -0.18181818      -0.33333333       0.20000000 </v>
   <v>      -0.09090909      -0.33333333       0.20000000 </v>
   <v>       0.00000000      -0.22222222       0.20000000 </v>
   <v>       0.09090909      -0.22222222       0.20000000 </v>
   <v>       0.18181818      -0.22222222       0.20000000 </v>
   <v>       0.27272727      -0.22222222       0.20000000 </v>
   <v>       0.36363636      -0.22222222       0.20000000 </v>
   <v>       0.45454545      -0.22222222       0.20000000 </v>
   <v>      -0.45454545      -0.22222222       0.20000000 </v>
   <v>      -0.36363636      -0.22222222       0.20000000 </v>
   <v>      -0.27272727      -0.22222222       0.20000000 </v>
   <v>      -0.18181818      -0.22222222       0.20000000 </v>
   <v>      -0.09090909      -0.22222222       0.20000000 </v>
   <v>       0.00000000      -0.11111111       0.20000000 </v>
   <v>       0.09090909      -0.11111111       0.20000000 </v>
   <v>       0.18181818      -0.11111111       0.20000000 </v>
   <v>       0.27272727      -0.11111111       0.20000000 </v>
   <v>       0.36363636      -0.11111111       0.20000000 </v>
   <v>       0.45454545      -0.11111111       0.20000000 </v>
   <v>      -0.45454545      -0.11111111       0.20000000 </v>
   <v>      -0.36363636      -0.11111111       0.20000000 </v>
   <v>      -0.27272727      -0.11111111       0.20000000 </v>
   <v>      -0.18181818      -0.11111111       0.20000000 </v>
   <v>      -0.09090909      -0.11111111       0.20000000 </v>
   <v>      -0.00000000       0.00000000       0.40000000 </v>
   <v>       0.09090909       0.00000000       0.40000000 </v>
   <v>       0.18181818       0.00000000       0.40000000 </v>
   <v>       0.27272727       0.00000000       0.40000000 </v>
   <v>       0.36363636       0.00000000       0.40000000 </v>
   <v>       0.45454545       0.00000000       0.40000000 </v>
   <v>      -0.45454545      -0.00000000       0.40000000 </v>
   <v>      -0.36363636      -0.00000000       0.40000000 </v>
   <v>      -0.27272727      -0.00000000       0.40000000 </v>
   <v>      -0.18181818       0.00000000       0.40000000 </v>
   <v>      -0.09090909       0.00000000       0.40000000 </v>
   <v>       0.00000000       0.11111111       0.40000000 </v>
   <v>       0.09090909       0.11111111       0.40000000 </v>
   <v>       0.18181818       0.11111111       0.40000000 </v>
   <v>       0.27272727       0.11111111       0.40000000 </v>
   <v>       0.36363636       0.11111111       0.40000000 </v>
   <v>       0.45454545       0.11111111       0.40000000 </v>
   <v>      -0.45454545       0.11111111       0.40000000 </v>
   <v>      -0.36363636       0.11111111       0.40000000 </v>
   <v>      -0.27272727       0.11111111       0.40000000 </v>
   <v>      -0.18181818       0.11111111       0.40000000 </v>
   <v>      -0.09090909       0.11111111       0.40000000 </v>
   <v>       0.00000000       0.22222222       0.40000000 </v>
   <v>       0.09090909       0.22222222       0.40000000 </v>
   <v>       0.18181818       0.22222222       0.40000000 </v>
   <v>       0.27272727       0.22222222       0.40000000 </v>
   <v>       0.36363636       0.22222222       0.40000000 </v>
   <v>       0.45454545       0.22222222       0.40000000 </v>
   <v>      -0.45454545       0.22222222       0.40000000 </v>
   <v>      -0.36363636       0.22222222       0.40000000 </v>
   <v>      -0.27272727       0.22222222       0.40000000 </v>
   <v>      -0.18181818       0.22222222       0.40000000 </v>
   <v>      -0.09090909       0.22222222       0.40000000 </v>
   <v>       0.00000000       0.33333333       0.40000000 </v>
   <v>       0.09090909       0.33333333       0.40000000 </v>
   <v>       0.18181818       0.33333333       0.40000000 </v>
   <v>       0.27272727       0.33333333       0.40000000 </v>
   <v>       0.36363636       0.33333333       0.40000000 </v>
   <v>       0.45454545       0.33333333       0.40000000 </v>
   <v>      -0.45454545       0.33333333       0.40000000 </v>
   <v>      -0.36363636       0.33333333       0.40000000 </v>
   <v>      -0.27272727       0.33333333       0.40000000 </v>
   <v>      -0.18181818       0.33333333       0.40000000 </v>
   <v>      -0.09090909       0.33333333       0.40000000 </v>
   <v>       0.00000000       0.44444444       0.40000000 </v>
   <v>       0.09090909       0.44444444       0.40000000 </v>
   <v>       0.18181818       0.44444444       0.40000000 </v>
   <v>       0.27272727       0.44444444       0.40000000 </v>
   <v>       0.36363636       0.44444444       0.40000000 </v>
   <v>       0.45454545       0.44444444       0.40000000 </v>
   <v>      -0.45454545       0.44444444       0.40000000 </v>
   <v>      -0.36363636       0.44444444       0.40000000 </v>
   <v>      -0.27272727       0.44444444       0.40000000 </v>
   <v>      -0.18181818       0.44444444       0.40000000 </v>
   <v>      -0.09090909       0.44444444       0.40000000 </v>
   <v>       0.00000000      -0.44444444       0.40000000 </v>
   <v>       0.09090909      -0.44444444       0.40000000 </v>
   <v>       0.18181818      -0.44444444       0.40000000 </v>
   <v>       0.27272727      -0.44444444       0.40000000 </v>
   <v>       0.36363636      -0.44444444       0.40000000 </v>
   <v>       0.45454545      -0.44444444       0.40000000 </v>
   <v>      -0.45454545      -0.44444444       0.40000000 </v>
   <v>      -0.36363636      -0.44444444       0.40000000 </v>
   <v>      -0.27272727      -0.44444444       0.40000000 </v>
   <v>      -0.18181818      -0.44444444       0.40000000 </v>
   <v>      -0.09090909      -0.44444444       0.40000000 </v>
   <v>      -0.00000000      -0.33333333       0.40000000 </v>
   <v>       0.09090909      -0.33333333       0.40000000 </v>
   <v>       0.18181818      -0.33333333       0.40000000 </v>
   <v>       0.27272727      -0.33333333       0.40000000 </v>
   <v>       0.36363636      -0.33333333       0.40000000 </v>
   <v>       0.45454545      -0.33333333       0.40000000 </v>
   <v>      -0.45454545      -0.33333333       0.40000000 </v>
   <v>      -0.36363636      -0.33333333       0.40000000 </v>
   <v>      -0.27272727      -0.33333333       0.40000000 </v>
   <v>      -0.18181818      -0.33333333       0.40000000 </v>
   <v>      -0.09090909      -0.33333333       0.40000000 </v>
   <v>       0.00000000      -0.22222222       0.40000000 </v>
   <v>       0.09090909      -0.22222222       0.40000000 </v>
   <v>       0.18181818      -0.22222222       0.40000000 </v>
   <v>       0.27272727      -0.22222222       0.40000000 </v>
   <v>       0.36363636      -0.22222222       0.40000000 </v>
   <v>       0.45454545      -0.22222222       0.40000000 </v>
   <v>      -0.45454545      -0.22222222       0.40000000 </v>
   <v>      -0.36363636      -0.22222222       0.40000000 </v>
   <v>      -0.27272727      -0.22222222       0.40000000 </v>
   <v>      -0.18181818      -0.22222222       0.40000000 </v>
   <v>      -0.09090909      -0.22222222       0.40000000 </v>
   <v>       0.00000000      -0.11111111       0.40000000 </v>
   <v>       0.09090909      -0.11111111       0.40000000 </v>
   <v>       0.18181818      -0.11111111       0.40000000 </v>
   <v>       0.27272727      -0.11111111       0.40000000 </v>
   <v>       0.36363636      -0.11111111       0.40000000 </v>
   <v>       0.45454545      -0.11111111       0.40000000 </v>
   <v>      -0.45454545      -0.11111111       0.40000000 </v>
   <v>      -0.36363636      -0.11111111       0.40000000 </v>
   <v>      -0.27272727      -0.11111111       0.40000000 </v>
   <v>      -0.18181818      -0.11111111       0.40000000 </v>
   <v>      -0.09090909      -0.11111111       0.40000000 </v>
  </varray>
  <varray name="weights" >
   <v>       0.00202020 </v>
   <v>       0.00404040 </v>
   <v>       0.00404040 </v>
   <v>       0.00404040 </v>
   <v>       0.00404040 </v>
   <v>       0.00404040 </v>
   <v>       0.00404040 </v>
   <v>       0.00404040 </v>
   <v>       0.00404040 </v>
   <v>       0.00404040 </v>
   <v>       0.00404040 </v>
   <v>       0.00404040 </v>
   <v>       0.00404040 </v>
   <v>       0.00404040 </v>
   <v>       0.00404040 </v>
   <v>       0.00404040 </v>
   <v>       0.00404040 </v>
   <v>       0.00404040 </v>
   <v>       0.00404040 </v>
   <v>       0.00404040 </v>
   <v>       0.00404040 </v>
   <v>       0.00404040 </v>
   <v>       0.00404040 </v>
   <v>       0.00404040 </v>
   <v>       0.00404040 </v>
   <v>       0.00404040 </v>
   <v>       0.00404040 </v>
   <v>       0.00404040 </v>
   <v>       0.00404040 </v>
   <v>       0.00404040 </v>
   <v>       0.00404040 </v>
   <v>       0.00404040 </v>
   <v>       0.00404040 </v>
   <v>       0.00404040 </v>
   <v>       0.00404040 </v>
   <v>       0.00404040 </v>
   <v>       0.00404040 </v>
   <v>       0.00404040 </v>
   <v>       0.00404040 </v>
   <v>       0.00404040 </v>
   <v>       0.00404040 </v>
   <v>       0.00404040 </v>
   <v>       0.00404040 </v>
   <v>       0.00404040 </v>
   <v>       0.00404040 </v>
   <v>       0.00404040 </v>
   <v>       0.00404040 </v>
   <v>       0.00404040 </v>
   <v>       0.00404040 </v>
   <v>       0.00404040 </v>
   <v>       0.00404040 </v>
   <v>       0.00404040 </v>
   <v>       0.00404040 </v>
   <v>       0.00404040 </v>
   <v>       0.00404040 </v>
   <v>       0.00404040 </v>
   <v>       0.00404040 </v>
   <v>       0.00404040 </v>
   <v>       0.00404040 </v>
   <v>       0.00404040 </v>
   <v>       0.00404040 </v>
   <v>       0.00404040 </v>
   <v>       0.00404040 </v>
   <v>       0.00404040 </v>
   <v>       0.00404040 </v>
   <v>       0.00404040 </v>
   <v>       0.00404040 </v>
   <v>       0.00404040 </v>
   <v>       0.00404040 </v>
   <v>       0.00404040 </v>
   <v>       0.00404040 </v>
   <v>       0.00404040 </v>
   <v>       0.00404040 </v>
   <v>       0.00404040 </v>
   <v>       0.00404040 </v>
   <v>       0.00404040 </v>
   <v>       0.00404040 </v>
   <v>       0.00404040 </v>
   <v>       0.00404040 </v>
   <v>       0.00404040 </v>
   <v>       0.00404040 </v>
   <v>       0.00404040 </v>
   <v>       0.00404040 </v>
   <v>       0.00404040 </v>
   <v>       0.00404040 </v>
   <v>       0.00404040 </v>
   <v>       0.00404040 </v>
   <v>       0.00404040 </v>
   <v>       0.00404040 </v>
   <v>       0.00404040 </v>
   <v>       0.00404040 </v>
   <v>       0.00404040 </v>
   <v>       0.00404040 </v>
   <v>       0.00404040 </v>
   <v>       0.00404040 </v>
   <v>       0.00404040 </v>
   <v>       0.00404040 </v>
   <v>       0.00404040 </v>
   <v>       0.00404040 </v>
   <v>       0.00404040 </v>
   <v>       0.00404040 </v>
   <v>       0.00404040 </v>
   <v>       0.00404040 </v>
   <v>       0.00404040 </v>
   <v>       0.00404040 </v>
   <v>       0.00404040 </v>
   <v>       0.00404040 </v>
   <v>       0.00404040 </v>
   <v>       0.00404040 </v>
   <v>       0.00404040 </v>
   <v>       0.00404040 </v>
   <v>       0.00404040 </v>
   <v>       0.00404040 </v>
   <v>       0.00404040 </v>
   <v>       0.00404040 </v>
   <v>       0.00404040 </v>
   <v>       0.00404040 </v>
   <v>       0.00404040 </v>
   <v>       0.00404040 </v>
   <v>       0.00404040 </v>
   <v>       0.00404040 </v>
   <v>       0.00404040 </v>
   <v>       0.00404040 </v>
   <v>       0.00404040 </v>
   <v>       0.00404040 </v>
   <v>       0.00404040 </v>
   <v>       0.00404040 </v>
   <v>       0.00404040 </v>
   <v>       0.00404040 </v>
   <v>       0.00404040 </v>
   <v>       0.00404040 </v>
   <v>       0.00404040 </v>
   <v>       0.00404040 </v>
   <v>       0.00404040 </v>
   <v>       0.00404040 </v>
   <v>       0.00404040 </v>
   <v>       0.00404040 </v>
   <v>       0.00404040 </v>
   <v>       0.00404040 </v>
   <v>       0.00404040 </v>
   <v>       0.00404040 </v>
   <v>       0.00404040 </v>
   <v>       0.00404040 </v>
   <v>       0.00404040 </v>
   <v>       0.00404040 </v>
   <v>       0.00404040 </v>
   <v>       0.00404040 </v>
   <v>       0.00404040 </v>
   <v>       0.00404040 </v>
   <v>       0.00404040 </v>
   <v>       0.00404040 </v>
   <v>       0.00404040 </v>
   <v>       0.00404040 </v>
   <v>       0.00404040 </v>
   <v>       0.00404040 </v>
   <v>       0.00404040 </v>
   <v>       0.00404040 </v>
   <v>       0.00404040 </v>
   <v>       0.00404040 </v>
   <v>       0.00404040 </v>
   <v>       0.00404040 </v>
   <v>       0.00404040 </v>
   <v>       0.00404040 </v>
   <v>       0.00404040 </v>
   <v>       0.00404040 </v>
   <v>       0.00404040 </v>
   <v>       0.00404040 </v>
   <v>       0.00404040 </v>
   <v>       0.00404040 </v>
   <v>       0.00404040 </v>
   <v>       0.00404040 </v>
   <v>       0.00404040 </v>
   <v>       0.00404040 </v>
   <v>       0.00404040 </v>
   <v>       0.00404040 </v>
   <v>       0.00404040 </v>
   <v>       0.00404040 </v>
   <v>       0.00404040 </v>
   <v>       0.00404040 </v>
   <v>       0.00404040 </v>
   <v>       0.00404040 </v>
   <v>       0.00404040 </v>
   <v>       0.00404040 </v>
   <v>       0.00404040 </v>
   <v>       0.00404040 </v>
   <v>       0.00404040 </v>
   <v>       0.00404040 </v>
   <v>       0.00404040 </v>
   <v>       0.00404040 </v>
   <v>       0.00404040 </v>
   <v>       0.00404040 </v>
   <v>       0.00404040 </v>
   <v>       0.00404040 </v>
   <v>       0.00404040 </v>
   <v>       0.00404040 </v>
   <v>       0.00404040 </v>
   <v>       0.00404040 </v>
   <v>       0.00404040 </v>
   <v>       0.00404040 </v>
   <v>       0.00404040 </v>
   <v>       0.00404040 </v>
   <v>       0.00404040 </v>
   <v>       0.00404040 </v>
   <v>       0.00404040 </v>
   <v>       0.00404040 </v>
   <v>       0.00404040 </v>
   <v>       0.00404040 </v>
   <v>       0.00404040 </v>
   <v>       0.00404040 </v>
   <v>       0.00404040 </v>
   <v>       0.00404040 </v>
   <v>       0.00404040 </v>
   <v>       0.00404040 </v>
   <v>       0.00404040 </v>
   <v>       0.00404040 </v>
   <v>       0.00404040 </v>
   <v>       0.00404040 </v>
   <v>       0.00404040 </v>
   <v>       0.00404040 </v>
   <v>       0.00404040 </v>
   <v>       0.00404040 </v>
   <v>       0.00404040 </v>
   <v>       0.00404040 </v>
   <v>       0.00404040 </v>
   <v>       0.00404040 </v>
   <v>       0.00404040 </v>
   <v>       0.00404040 </v>
   <v>       0.00404040 </v>
   <v>       0.00404040 </v>
   <v>       0.00404040 </v>
   <v>       0.00404040 </v>
   <v>       0.00404040 </v>
   <v>       0.00404040 </v>
   <v>       0.00404040 </v>
   <v>       0.00404040 </v>
   <v>       0.00404040 </v>
   <v>       0.00404040 </v>
   <v>       0.00404040 </v>
   <v>       0.00404040 </v>
   <v>       0.00404040 </v>
   <v>       0.00404040 </v>
   <v>       0.00404040 </v>
   <v>       0.00404040 </v>
   <v>       0.00404040 </v>
   <v>       0.00404040 </v>
   <v>       0.00404040 </v>
   <v>       0.00404040 </v>
   <v>       0.00404040 </v>
  </varray>
 </kpoints>
 <parameters>
  <separator name="general" >
   <i type="string" name="SYSTEM">Ir_Ru</i>
   <i type="logical" name="LCOMPAT"> F  </i>
  </separator>
  <separator name="electronic" >
   <i type="string" name="PREC">accura</i>
   <i name="ENMAX">    213.27600000</i>
   <i name="ENAUG">    333.49400000</i>
   <i name="EDIFF">      0.00010000</i>
   <i type="int" name="IALGO">    68</i>
   <i type="int" name="IWAVPR">    10</i>
   <i type="int" name="NBANDS">   100</i>
   <i name="NELECT">    160.00000000</i>
   <i type="int" name="TURBO">     0</i>
   <i type="int" name="IRESTART">     0</i>
   <i type="int" name="NREBOOT">     0</i>
   <i type="int" name="NMIN">     0</i>
   <i name="EREF">      0.00000000</i>
   <separator name="electronic smearing" >
    <i type="int" name="ISMEAR">     1</i>
    <i name="SIGMA">      0.10000000</i>
    <i name="KSPACING">      0.50000000</i>
    <i type="logical" name="KGAMMA"> T  </i>
   </separator>
   <separator name="electronic projectors" >
    <i type="logical" name="LREAL"> T  </i>
    <v name="ROPT">     -0.00025000</v>
    <i type="int" name="LMAXPAW">  -100</i>
    <i type="int" name="LMAXMIX">     2</i>
    <i type="logical" name="NLSPLINE"> F  </i>
   </separator>
   <separator name="electronic startup" >
    <i type="int" name="ISTART">     0</i>
    <i type="int" name="ICHARG">     2</i>
    <i type="int" name="INIWAV">     1</i>
   </separator>
   <separator name="electronic spin" >
    <i type="int" name="ISPIN">     1</i>
    <i type="logical" name="LNONCOLLINEAR"> F  </i>
    <v name="MAGMOM">      1.00000000      1.00000000      1.00000000      1.00000000      1.00000000      1.00000000      1.00000000      1.00000000      1.00000000      1.00000000      1.00000000      1.00000000      1.00000000      1.00000000      1.00000000      1.00000000      1.00000000      1.00000000      1.00000000      1.00000000
</v>
    <i name="NUPDOWN">     -1.00000000</i>
    <i type="logical" name="LSORBIT"> F  </i>
    <v name="SAXIS">      0.00000000      0.00000000      1.00000000</v>
    <i type="logical" name="LSPIRAL"> F  </i>
    <v name="QSPIRAL">      0.00000000      0.00000000      0.00000000</v>
    <i type="logical" name="LZEROZ"> F  </i>
   </separator>
   <separator name="electronic exchange-correlation" >
    <i type="logical" name="LASPH"> F  </i>
    <i type="logical" name="LMETAGGA"> F  </i>
   </separator>
   <separator name="electronic convergence" >
    <i type="int" name="NELM">    60</i>
    <i type="int" name="NELMDL">    -5</i>
    <i type="int" name="NELMIN">     5</i>
    <i name="ENINI">    213.27600000</i>
    <separator name="electronic convergence detail" >
     <i type="logical" name="LDIAG"> T  </i>
     <i type="logical" name="LSUBROT"> F  </i>
     <i name="WEIMIN">      0.00000000</i>
     <i name="EBREAK">      0.00000000</i>
     <i name="DEPER">      0.30000000</i>
     <i type="int" name="NRMM">     4</i>
     <i name="TIME">      0.40000000</i>
    </separator>
   </separator>
   <separator name="electronic mixer" >
    <i name="AMIX">      0.40000000</i>
    <i name="BMIX">      1.00000000</i>
    <i name="AMIN">      0.10000000</i>
    <i name="AMIX_MAG">      1.60000000</i>
    <i name="BMIX_MAG">      1.00000000</i>
    <separator name="electronic mixer details" >
     <i type="int" name="IMIX">     4</i>
     <i type="logical" name="MIXFIRST"> F  </i>
     <i type="int" name="MAXMIX">   -45</i>
     <i name="WC">    100.00000000</i>
     <i type="int" name="INIMIX">     1</i>
     <i type="int" name="MIXPRE">     1</i>
     <i type="int" name="MREMOVE">     5</i>
    </separator>
   </separator>
   <separator name="electronic dipolcorrection" >
    <i type="logical" name="LDIPOL"> F  </i>
    <i type="logical" name="LMONO"> F  </i>
    <i type="int" name="IDIPOL">     0</i>
    <i name="EPSILON">      1.00000000</i>
    <v name="DIPOL">   -100.00000000   -100.00000000   -100.00000000</v>
    <i name="EFIELD">      0.00000000</i>
   </separator>
  </separator>
  <separator name="grids" >
   <i type="int" name="NGX">    24</i>
   <i type="int" name="NGY">    28</i>
   <i type="int" name="NGZ">    56</i>
   <i type="int" name="NGXF">    48</i>
   <i type="int" name="NGYF">    56</i>
   <i type="int" name="NGZF">   112</i>
   <i type="logical" name="ADDGRID"> F  </i>
  </separator>
  <separator name="ionic" >
   <i type="int" name="NSW">     0</i>
   <i type="int" name="IBRION">    -1</i>
   <i type="int" name="ISIF">     2</i>
   <i name="PSTRESS">      0.00000000</i>
   <i name="EDIFFG">      0.00001000</i>
   <i type="int" name="NFREE">     0</i>
   <i name="POTIM">      0.50000000</i>
   <i name="SMASS">     -3.00000000</i>
   <i name="SCALEE">      1.00000000</i>
  </separator>
  <separator name="ionic md" >
   <i name="TEBEG">      0.00010000</i>
   <i name="TEEND">      0.00010000</i>
   <i type="int" name="NBLOCK">     1</i>
   <i type="int" name="KBLOCK">     1</i>
   <i type="int" name="NPACO">   256</i>
   <i name="APACO">     16.00000000</i>
  </separator>
  <separator name="symmetry" >
   <i type="int" name="ISYM">     2</i>
   <i name="SYMPREC">      0.00001000</i>
  </separator>
  <separator name="dos" >
   <i type="logical" name="LORBIT"> F  </i>
   <v name="RWIGS">     -1.00000000</v>
   <i type="int" name="NEDOS">   301</i>
   <i name="EMIN">     10.00000000</i>
   <i name="EMAX">    -10.00000000</i>
   <i name="EFERMI">      0.00000000</i>
  </separator>
  <separator name="writing" >
   <i type="int" name="NWRITE">     2</i>
   <i type="logical" name="LWAVE"> T  </i>
   <i type="logical" name="LCHARG"> T  </i>
   <i type="logical" name="LPARD"> F  </i>
   <i type="logical" name="LVTOT"> F  </i>
   <i type="logical" name="LVHAR"> F  </i>
   <i type="logical" name="LELF"> F  </i>
   <i type="logical" name="LOPTICS"> F  </i>
   <v name="STM">      0.00000000      0.00000000      0.00000000      0.00000000      0.00000000      0.00000000      0.00000000</v>
  </separator>
  <separator name="performance" >
   <i type="int" name="NPAR">    20</i>
   <i type="int" name="NSIM">     4</i>
   <i type="int" name="NBLK">    -1</i>
   <i type="logical" name="LPLANE"> T  </i>
   <i type="logical" name="LSCALAPACK"> T  </i>
   <i type="logical" name="LSCAAWARE"> F  </i>
   <i type="logical" name="LSCALU"> F  </i>
   <i type="logical" name="LASYNC"> F  </i>
   <i type="logical" name="LORBITALREAL"> F  </i>
  </separator>
  <separator name="miscellaneous" >
   <i type="int" name="IDIOT">     3</i>
   <i type="logical" name="LMUSIC"> F  </i>
   <v name="POMASS">    101.07000000</v>
   <v name="DARWINR">      0.00000000</v>
   <v name="DARWINV">      1.00000000</v>
   <i type="logical" name="LCORR"> T  </i>
  </separator>
  <i type="logical" name="GGA_COMPAT"> T  </i>
  <i type="logical" name="LBERRY"> F  </i>
  <i type="int" name="ICORELEVEL">     0</i>
  <i type="logical" name="LDAU"> F  </i>
  <i type="int" name="I_CONSTRAINED_M">     0</i>
  <separator name="electronic exchange-correlation" >
   <i type="string" name="GGA">--</i>
   <i type="int" name="VOSKOWN">     0</i>
   <i type="logical" name="LHFCALC"> F  </i>
   <i type="string" name="PRECFOCK"></i>
   <i type="logical" name="LSYMGRAD"> F  </i>
   <i type="logical" name="LHFONE"> F  </i>
   <i type="logical" name="LRHFCALC"> F  </i>
   <i type="logical" name="LTHOMAS"> F  </i>
   <i type="logical" name="LMODELHF"> F  </i>
   <i name="ENCUT4O">     -1.00000000</i>
   <i type="int" name="EXXOEP">     0</i>
   <i type="int" name="FOURORBIT">     0</i>
   <i name="AEXX">      0.00000000</i>
   <i name="HFALPHA">      0.00000000</i>
   <i name="MCALPHA">      0.00000000</i>
   <i name="ALDAX">      1.00000000</i>
   <i name="AGGAX">      1.00000000</i>
   <i name="ALDAC">      1.00000000</i>
   <i name="AGGAC">      1.00000000</i>
   <i type="int" name="NKREDX">     1</i>
   <i type="int" name="NKREDY">     1</i>
   <i type="int" name="NKREDZ">     1</i>
   <i type="logical" name="SHIFTRED"> F  </i>
   <i type="logical" name="ODDONLY"> F  </i>
   <i type="logical" name="EVENONLY"> F  </i>
   <i type="int" name="LMAXFOCK">     0</i>
   <i type="int" name="NMAXFOCKAE">     0</i>
   <i type="logical" name="LFOCKAEDFT"> F  </i>
   <i name="HFSCREEN">      0.00000000</i>
   <i name="HFSCREENC">      0.00000000</i>
   <i type="int" name="NBANDSGWLOW">     0</i>
  </separator>
  <separator name="vdW DFT" >
   <i type="logical" name="LUSE_VDW"> F  </i>
   <i name="Zab_VDW">     -0.84910000</i>
   <i name="PARAM1">      0.12340000</i>
   <i name="PARAM2">      1.00000000</i>
   <i name="PARAM3">      0.00000000</i>
  </separator>
  <separator name="model GW" >
   <i type="int" name="MODEL_GW">     0</i>
   <i name="MODEL_EPS0">      8.29743930</i>
   <i name="MODEL_ALPHA">      1.00000000</i>
  </separator>
  <separator name="linear response parameters" >
   <i type="logical" name="LEPSILON"> F  </i>
   <i type="logical" name="LRPA"> F  </i>
   <i type="logical" name="LNABLA"> F  </i>
   <i type="logical" name="LVEL"> F  </i>
   <i type="int" name="KINTER">     0</i>
   <i name="CSHIFT">      0.10000000</i>
   <i name="OMEGAMAX">     -1.00000000</i>
   <i name="DEG_THRESHOLD">      0.00200000</i>
  </separator>
  <separator name="orbital magnetization" >
   <i type="logical" name="NUCIND"> F  </i>
   <v name="MAGPOS">      0.00000000      0.00000000      0.00000000</v>
   <i type="logical" name="LNICSALL"> T  </i>
   <i type="logical" name="ORBITALMAG"> F  </i>
   <i type="logical" name="LMAGBLOCH"> F  </i>
   <i type="logical" name="LCHIMAG"> F  </i>
   <i type="logical" name="LGAUGE"> T  </i>
   <i type="int" name="MAGATOM">     0</i>
   <v name="MAGDIPOL">      0.00000000      0.00000000      0.00000000</v>
   <v name="AVECCONST">      0.00000000      0.00000000      0.00000000</v>
  </separator>
  <separator name="response functions" >
   <i type="logical" name="LADDER"> F  </i>
   <i type="logical" name="LFXC"> F  </i>
   <i type="logical" name="LHARTREE"> T  </i>
   <i type="int" name="IBSE">     0</i>
   <v type="int" name="KPOINT">    -1     0     0     0</v>
   <i type="logical" name="LTCTE"> F  </i>
   <i type="logical" name="LTETE"> F  </i>
   <i type="logical" name="LTRIPLET"> F  </i>
   <i type="logical" name="LFXCEPS"> F  </i>
   <i type="logical" name="LFXHEG"> F  </i>
   <i type="int" name="NATURALO">     0</i>
   <i type="logical" name="L2ORDER"> F  </i>
   <i type="logical" name="LUSEW"> F  </i>
   <i name="ENCUTGW">     -2.00000000</i>
   <i name="ENCUTGWSOFT">     -2.00000000</i>
   <i name="ENCUTLF">     -1.00000000</i>
   <i type="int" name="LMAXMP2">    -1</i>
   <i name="SCISSOR">      0.00000000</i>
   <i type="int" name="NOMEGA">     0</i>
   <i type="int" name="NOMEGAR">     0</i>
   <i type="int" name="NBANDSGW">    -1</i>
   <i type="int" name="NBANDSO">    -1</i>
   <i type="int" name="NBANDSV">    -1</i>
   <i type="int" name="NELM">     1</i>
   <i type="int" name="NELMHF">     1</i>
   <i type="int" name="DIM">     3</i>
   <i type="int" name="ANTIRES">     0</i>
   <i name="OMEGAMAX">    -30.00000000</i>
   <i name="OMEGAMIN">    -30.00000000</i>
   <i name="OMEGATL">   -200.00000000</i>
   <i type="int" name="OMEGAGRID">     0</i>
   <i name="CSHIFT">     -0.10000000</i>
   <i type="logical" name="SELFENERGY"> F  </i>
   <i type="logical" name="LSPECTRAL"> F  </i>
   <i type="logical" name="LSPECTRALGW"> F  </i>
   <i type="logical" name="LSINGLES"> F  </i>
   <i type="logical" name="LFERMIGW"> F  </i>
   <i type="logical" name="ODDONLYGW"> F  </i>
   <i type="logical" name="EVENONLYGW"> F  </i>
   <i type="int" name="NKREDLFX">     1</i>
   <i type="int" name="NKREDLFY">     1</i>
   <i type="int" name="NKREDLFZ">     1</i>
   <i type="int" name="MAXMEM">  1800</i>
   <i type="int" name="TELESCOPE">     0</i>
   <i type="int" name="TAUPAR">     1</i>
   <i type="int" name="OMEGAPAR">    -1</i>
   <i name="LAMBDA">      1.00000000</i>
  </separator>
  <separator name="External order field" >
   <i name="OFIELD_KAPPA">      0.00000000</i>
   <v name="OFIELD_K">      0.00000000      0.00000000      0.00000000</v>
   <i name="OFIELD_Q6_NEAR">      0.00000000</i>
   <i name="OFIELD_Q6_FAR">      0.00000000</i>
   <i name="OFIELD_A">      0.00000000</i>
  </separator>
 </parameters>
 <atominfo>
  <atoms>      20 </atoms>
  <types>       1 </types>
  <array name="atoms" >
   <dimension dim="1">ion</dimension>
   <field type="string">element</field>
   <field type="int">atomtype</field>
   <set>
    <rc><c>Ru</c><c>   1</c></rc>
    <rc><c>Ru</c><c>   1</c></rc>
    <rc><c>Ru</c><c>   1</c></rc>
    <rc><c>Ru</c><c>   1</c></rc>
    <rc><c>Ru</c><c>   1</c></rc>
    <rc><c>Ru</c><c>   1</c></rc>
    <rc><c>Ru</c><c>   1</c></rc>
    <rc><c>Ru</c><c>   1</c></rc>
    <rc><c>Ru</c><c>   1</c></rc>
    <rc><c>Ru</c><c>   1</c></rc>
    <rc><c>Ru</c><c>   1</c></rc>
    <rc><c>Ru</c><c>   1</c></rc>
    <rc><c>Ru</c><c>   1</c></rc>
    <rc><c>Ru</c><c>   1</c></rc>
    <rc><c>Ru</c><c>   1</c></rc>
    <rc><c>Ru</c><c>   1</c></rc>
    <rc><c>Ru</c><c>   1</c></rc>
    <rc><c>Ru</c><c>   1</c></rc>
    <rc><c>Ru</c><c>   1</c></rc>
    <rc><c>Ru</c><c>   1</c></rc>
   </set>
  </array>
  <array name="atomtypes" >
   <dimension dim="1">type</dimension>
   <field type="int">atomspertype</field>
   <field type="string">element</field>
   <field>mass</field>
   <field>valence</field>
   <field type="string">pseudopotential</field>
   <set>
    <rc><c>  20</c><c>Ru</c><c>    101.07000000</c><c>      8.00000000</c><c> PAW_PBE Ru 06Sep2000                   </c></rc>
   </set>
  </array>
 </atominfo>
 <structure name="initialpos" >
  <crystal>
   <varray name="basis" >
    <v>      -1.89365000      -1.91336000      -3.81144000 </v>
    <v>       3.82178000      -0.00212000      -3.79990000 </v>
    <v>       1.91533000     -11.42088000       1.93101000 </v>
   </varray>
   <i name="volume">    276.58131014 </i>
   <varray name="rec_basis" >
    <v>      -0.15692418      -0.05299692      -0.15779819 </v>
    <v>       0.17074442       0.01317337      -0.09144459 </v>
    <v>       0.02625809      -0.07868271       0.02645318 </v>
   </varray>
  </crystal>
  <varray name="positions" >
   <v>       0.38518800       0.42227550       0.60856700 </v>
   <v>       0.21315800       0.69867800       0.79408200 </v>
   <v>       0.77602400       0.57591400       0.70029600 </v>
   <v>       0.19812400       0.45414400       0.29595600 </v>
   <v>       0.39919600       0.89823350       0.60037900 </v>
   <v>       0.00216000       0.74943000       0.49988000 </v>
   <v>       0.60064000       0.60117250       0.40022500 </v>
   <v>       0.20195600       0.19987850       0.79988900 </v>
   <v>       0.80070200       0.05149200       0.70018800 </v>
   <v>       0.40113000       0.65070250       0.10004500 </v>
   <v>       0.00087800       0.50082300       0.00004200 </v>
   <v>       0.60183400       0.34966650       0.90006100 </v>
   <v>       0.20331800       0.94873050       0.29962700 </v>
   <v>       0.79861600       0.80159350       0.20041900 </v>
   <v>       0.99716200       0.26912450       0.50088300 </v>
   <v>       0.60635800       0.09198050       0.39922700 </v>
   <v>       0.35408400       0.14835650       0.10634100 </v>
   <v>       0.99772800       0.99975050       0.00217700 </v>
   <v>       0.60146600       0.84508850       0.89959900 </v>
   <v>       0.78544600       0.31803350       0.20298900 </v>
  </varray>
 </structure>
 <calculation>
  <scstep>
   <time name="dav">   49.98   51.10</time>
   <time name="total">   50.01   51.14</time>
   <energy>
    <i name="alphaZ">   1223.93508015 </i>
    <i name="ewald"> -11072.41137129 </i>
    <i name="hartreedc">   -795.69080234 </i>
    <i name="XCdc">   -643.70922141 </i>
    <i name="pawpsdc">   7633.44912854 </i>
    <i name="pawaedc">  -6648.37709789 </i>
    <i name="eentropy">      0.00193448 </i>
    <i name="bandstr">   1930.36981435 </i>
    <i name="atom">   9099.11557585 </i>
    <i name="e_fr_energy">    726.68304045 </i>
    <i name="e_wo_entrp">    726.68110597 </i>
    <i name="e_0_energy">    726.68239562 </i>
   </energy>
  </scstep>
  <scstep>
   <time name="dav">   49.79   50.64</time>
   <time name="total">   49.79   50.65</time>
   <energy>
    <i name="e_fr_energy">   -139.16917809 </i>
    <i name="e_wo_entrp">   -139.16814233 </i>
    <i name="e_0_energy">   -139.16883283 </i>
   </energy>
  </scstep>
  <scstep>
   <time name="dav">   68.75   69.77</time>
   <time name="total">   68.75   69.77</time>
   <energy>
    <i name="e_fr_energy">   -191.86775134 </i>
    <i name="e_wo_entrp">   -191.86549719 </i>
    <i name="e_0_energy">   -191.86699996 </i>
   </energy>
  </scstep>
  <scstep>
   <time name="dav">   61.78   62.82</time>
   <time name="total">   61.79   62.83</time>
   <energy>
    <i name="e_fr_energy">   -193.47584631 </i>
    <i name="e_wo_entrp">   -193.47388767 </i>
    <i name="e_0_energy">   -193.47519343 </i>
   </energy>
  </scstep>
  <scstep>
   <time name="dav">   60.52   61.60</time>
   <time name="total">   61.26   62.35</time>
   <energy>
    <i name="e_fr_energy">   -193.50391146 </i>
    <i name="e_wo_entrp">   -193.50191454 </i>
    <i name="e_0_energy">   -193.50324582 </i>
   </energy>
  </scstep>
  <scstep>
   <time name="diag">    5.24    5.42</time>
   <time name="diis">   18.47   18.71</time>
   <time name="orth">    0.54    0.54</time>
   <time name="total">   25.01   25.43</time>
   <energy>
    <i name="e_fr_energy">   -182.62182663 </i>
    <i name="e_wo_entrp">   -182.62115050 </i>
    <i name="e_0_energy">   -182.62160125 </i>
   </energy>
  </scstep>
  <scstep>
   <time name="diag">    4.79    4.79</time>
   <time name="diis">   20.10   20.59</time>
   <time name="orth">    0.71    0.72</time>
   <time name="total">   26.36   26.86</time>
   <energy>
    <i name="e_fr_energy">   -182.54676850 </i>
    <i name="e_wo_entrp">   -182.54682750 </i>
    <i name="e_0_energy">   -182.54678817 </i>
   </energy>
  </scstep>
  <scstep>
   <time name="diag">    4.79    4.80</time>
   <time name="diis">   20.73   20.95</time>
   <time name="orth">    0.54    0.54</time>
   <time name="total">   26.82   27.21</time>
   <energy>
    <i name="e_fr_energy">   -181.37596033 </i>
    <i name="e_wo_entrp">   -181.37587062 </i>
    <i name="e_0_energy">   -181.37593043 </i>
   </energy>
  </scstep>
  <scstep>
   <time name="diag">    4.88    4.98</time>
   <time name="diis">   24.98   25.52</time>
   <time name="orth">    0.54    0.54</time>
   <time name="total">   31.15   31.87</time>
   <energy>
    <i name="e_fr_energy">   -181.30479077 </i>
    <i name="e_wo_entrp">   -181.30451682 </i>
    <i name="e_0_energy">   -181.30469945 </i>
   </energy>
  </scstep>
  <scstep>
   <time name="diag">    4.80    4.80</time>
   <time name="diis">   21.34   21.78</time>
   <time name="orth">    0.54    0.54</time>
   <time name="total">   27.43   28.10</time>
   <energy>
    <i name="e_fr_energy">   -181.22035921 </i>
    <i name="e_wo_entrp">   -181.22002720 </i>
    <i name="e_0_energy">   -181.22024854 </i>
   </energy>
  </scstep>
  <scstep>
   <time name="diag">    4.89    4.97</time>
   <time name="diis">   23.45   23.77</time>
   <time name="orth">    0.54    0.54</time>
   <time name="total">   29.63   30.18</time>
   <energy>
    <i name="e_fr_energy">   -181.20218229 </i>
    <i name="e_wo_entrp">   -181.20187333 </i>
    <i name="e_0_energy">   -181.20207930 </i>
   </energy>
  </scstep>
  <scstep>
   <time name="diag">    4.99    4.99</time>
   <time name="diis">   24.02   24.45</time>
   <time name="orth">    0.55    0.60</time>
   <time name="total">   30.31   30.80</time>
   <energy>
    <i name="e_fr_energy">   -181.19036963 </i>
    <i name="e_wo_entrp">   -181.19005907 </i>
    <i name="e_0_energy">   -181.19026611 </i>
   </energy>
  </scstep>
  <scstep>
   <time name="diag">    4.81    4.97</time>
   <time name="diis">   24.62   25.16</time>
   <time name="orth">    0.54    0.54</time>
   <time name="total">   30.87   31.58</time>
   <energy>
    <i name="e_fr_energy">   -181.18948984 </i>
    <i name="e_wo_entrp">   -181.18917159 </i>
    <i name="e_0_energy">   -181.18938376 </i>
   </energy>
  </scstep>
  <scstep>
   <time name="diag">    4.80    4.80</time>
   <time name="diis">   25.23   25.81</time>
   <time name="orth">    0.54    0.54</time>
   <time name="total">   31.32   31.90</time>
   <energy>
    <i name="e_fr_energy">   -181.18936909 </i>
    <i name="e_wo_entrp">   -181.18905049 </i>
    <i name="e_0_energy">   -181.18926289 </i>
   </energy>
  </scstep>
  <scstep>
   <time name="diag">    4.79    4.79</time>
   <time name="diis">   23.38   24.02</time>
   <time name="orth">    0.54    0.54</time>
   <time name="total">   29.47   30.11</time>
   <energy>
    <i name="e_fr_energy">   -181.18911941 </i>
    <i name="e_wo_entrp">   -181.18879300 </i>
    <i name="e_0_energy">   -181.18901061 </i>
   </energy>
  </scstep>
  <scstep>
   <time name="diag">    4.79    4.80</time>
   <time name="diis">   24.82   25.39</time>
   <time name="orth">    0.54    0.54</time>
   <time name="total">   30.17   30.75</time>
   <energy>
    <i name="alphaZ">   1223.93508015 </i>
    <i name="ewald"> -11072.41137129 </i>
    <i name="hartreedc">   -616.95507358 </i>
    <i name="XCdc">   -644.55602293 </i>
    <i name="pawpsdc">   8782.52272653 </i>
    <i name="pawaedc">  -7844.06939603 </i>
    <i name="eentropy">     -0.00032386 </i>
    <i name="bandstr">    891.22970482 </i>
    <i name="atom">   9099.11557585 </i>
    <i name="e_fr_energy">   -181.18910034 </i>
    <i name="e_wo_entrp">   -181.18877648 </i>
    <i name="e_0_energy">   -181.18899239 </i>
   </energy>
  </scstep>
  <structure>
   <crystal>
    <varray name="basis" >
     <v>      -1.89365000      -1.91336000      -3.81144000 </v>
     <v>       3.82178000      -0.00212000      -3.79990000 </v>
     <v>       1.91533000     -11.42088000       1.93101000 </v>
    </varray>
    <i name="volume">    276.58131014 </i>
    <varray name="rec_basis" >
     <v>      -0.15692418      -0.05299692      -0.15779819 </v>
     <v>       0.17074442       0.01317337      -0.09144459 </v>
     <v>       0.02625809      -0.07868271       0.02645318 </v>
    </varray>
   </crystal>
   <varray name="positions" >
    <v>       0.38518800       0.42227550       0.60856700 </v>
    <v>       0.21315800       0.69867800       0.79408200 </v>
    <v>       0.77602400       0.57591400       0.70029600 </v>
    <v>       0.19812400       0.45414400       0.29595600 </v>
    <v>       0.39919600       0.89823350       0.60037900 </v>
    <v>       0.00216000       0.74943000       0.49988000 </v>
    <v>       0.60064000       0.60117250       0.40022500 </v>
    <v>       0.20195600       0.19987850       0.79988900 </v>
    <v>       0.80070200       0.05149200       0.70018800 </v>
    <v>       0.40113000       0.65070250       0.10004500 </v>
    <v>       0.00087800       0.50082300       0.00004200 </v>
    <v>       0.60183400       0.34966650       0.90006100 </v>
    <v>       0.20331800       0.94873050       0.29962700 </v>
    <v>       0.79861600       0.80159350       0.20041900 </v>
    <v>       0.99716200       0.26912450       0.50088300 </v>
    <v>       0.60635800       0.09198050       0.39922700 </v>
    <v>       0.35408400       0.14835650       0.10634100 </v>
    <v>       0.99772800       0.99975050       0.00217700 </v>
    <v>       0.60146600       0.84508850       0.89959900 </v>
    <v>       0.78544600       0.31803350       0.20298900 </v>
   </varray>
  </structure>
  <varray name="forces" >
   <v>      -1.47085077       0.96205475       0.21915949 </v>
   <v>       1.20524828      -0.89699199       0.91515133 </v>
   <v>      -1.53646329      -0.69983869      -0.37470349 </v>
   <v>       0.09178744      -0.52783974       0.46421168 </v>
   <v>       0.71046728       0.39601700      -0.46268275 </v>
   <v>       0.35779434       0.06334109      -0.08651679 </v>
   <v>       0.19983695       0.01754381       0.11556530 </v>
   <v>       0.19255448      -0.05792077       0.10391459 </v>
   <v>       0.33203345       0.14437679      -0.31023713 </v>
   <v>       0.01118004       0.16752119      -0.06330606 </v>
   <v>      -0.00954755       0.22635902       0.16246830 </v>
   <v>      -0.05331769      -0.08905696       0.04330034 </v>
   <v>       0.43211990      -0.29493711       0.02789715 </v>
   <v>       0.34728936       0.01326558       0.07266567 </v>
   <v>      -0.67902749       0.01977377       0.52353367 </v>
   <v>       0.65268397       0.01269955      -0.03188431 </v>
   <v>      -0.93242609      -0.04661885      -1.81808599 </v>
   <v>       0.17082704       0.49224054       0.06421115 </v>
   <v>       0.71022548      -0.06569752       0.19405526 </v>
   <v>      -0.73241514       0.16370854       0.24128259 </v>
  </varray>
  <varray name="stress" >
   <v>       5.75418022      -3.67783916       1.97377320 </v>
   <v>      -3.67783960       5.04796548       1.84326792 </v>
   <v>       1.97377280       1.84326823       1.75424081 </v>
  </varray>
  <energy>
   <i name="e_fr_energy">   -181.18910034 </i>
   <i name="e_wo_entrp">   -181.18899239 </i>
   <i name="e_0_energy">     -0.00032386 </i>
  </energy>
  <time name="totalsc">  662.50  674.96</time>
  <eigenvalues>
   <array>
    <dimension dim="1">band</dimension>
    <dimension dim="2">kpoint</dimension>
    <dimension dim="3">spin</dimension>
    <field>eigene</field>
    <field>occ</field>
    <set>
     <set comment="spin 1">
      <set comment="kpoint 1">
       <r>    0.8628    1.0000 </r>
       <r>    2.1740    1.0000 </r>
       <r>    2.2770    1.0000 </r>
       <r>    2.6119    1.0000 </r>
       <r>    2.6349    1.0000 </r>
       <r>    2.6654    1.0000 </r>
       <r>    2.9053    1.0000 </r>
       <r>    2.9403    1.0000 </r>
       <r>    3.0781    1.0000 </r>
       <r>    3.0947    1.0000 </r>
       <r>    3.4227    1.0000 </r>
       <r>    3.4663    1.0000 </r>
       <r>    3.4929    1.0000 </r>
       <r>    3.5432    1.0000 </r>
       <r>    3.5699    1.0000 </r>
       <r>    3.6579    1.0000 </r>
       <r>    3.7069    1.0000 </r>
       <r>    3.7758    1.0000 </r>
       <r>    4.0482    1.0000 </r>
       <r>    4.0772    1.0000 </r>
       <r>    4.1721    1.0000 </r>
       <r>    4.2089    1.0000 </r>
       <r>    4.4483    1.0000 </r>
       <r>    4.4854    1.0000 </r>
       <r>    4.5160    1.0000 </r>
       <r>    4.5411    1.0000 </r>
       <r>    4.5819    1.0000 </r>
       <r>    4.6364    1.0000 </r>
       <r>    4.6816    1.0000 </r>
       <r>    4.7208    1.0000 </r>
       <r>    4.7583    1.0000 </r>
       <r>    4.8026    1.0000 </r>
       <r>    5.0191    1.0000 </r>
       <r>    5.1778    1.0000 </r>
       <r>    5.2350    1.0000 </r>
       <r>    5.3016    1.0000 </r>
       <r>    5.4814    1.0000 </r>
       <r>    5.5790    1.0000 </r>
       <r>    5.6906    1.0000 </r>
       <r>    5.7679    1.0000 </r>
       <r>    5.7876    1.0000 </r>
       <r>    5.8025    1.0000 </r>
       <r>    5.9349    1.0000 </r>
       <r>    5.9732    1.0000 </r>
       <r>    6.0312    1.0000 </r>
       <r>    6.0593    1.0000 </r>
       <r>    6.0872    1.0000 </r>
       <r>    6.1429    1.0000 </r>
       <r>    6.2476    1.0000 </r>
       <r>    6.2544    1.0000 </r>
       <r>    6.3180    1.0000 </r>
       <r>    6.5101    1.0000 </r>
       <r>    6.5239    1.0000 </r>
       <r>    6.5428    1.0000 </r>
       <r>    6.6023    1.0000 </r>
       <r>    6.6604    1.0000 </r>
       <r>    6.6637    1.0000 </r>
       <r>    6.7016    1.0000 </r>
       <r>    6.7107    1.0000 </r>
       <r>    6.7933    1.0000 </r>
       <r>    6.8292    1.0000 </r>
       <r>    6.9342    1.0000 </r>
       <r>    7.1621    1.0000 </r>
       <r>    7.4302    1.0000 </r>
       <r>    7.5156    1.0000 </r>
       <r>    7.6897    1.0000 </r>
       <r>    7.7236    1.0000 </r>
       <r>    7.8946    1.0000 </r>
       <r>    7.9354    1.0000 </r>
       <r>    8.0063    1.0000 </r>
       <r>    8.0337    1.0000 </r>
       <r>    8.0931    1.0000 </r>
       <r>    8.1320    1.0000 </r>
       <r>    8.1604    1.0000 </r>
       <r>    8.1877    1.0000 </r>
       <r>    8.2313    1.0000 </r>
       <r>    8.3191    1.0001 </r>
       <r>    8.4612    1.0216 </r>
       <r>    8.4906    1.0338 </r>
       <r>    8.7296   -0.0297 </r>
       <r>    8.8435   -0.0041 </r>
       <r>    9.0864   -0.0000 </r>
       <r>    9.1168   -0.0000 </r>
       <r>    9.1965   -0.0000 </r>
       <r>    9.2506   -0.0000 </r>
       <r>    9.6417   -0.0000 </r>
       <r>    9.6708   -0.0000 </r>
       <r>    9.8069   -0.0000 </r>
       <r>    9.8080   -0.0000 </r>
       <r>    9.8714   -0.0000 </r>
       <r>    9.9227   -0.0000 </r>
       <r>   10.0075   -0.0000 </r>
       <r>   10.1126   -0.0000 </r>
       <r>   10.1307   -0.0000 </r>
       <r>   10.1471   -0.0000 </r>
       <r>   10.1622   -0.0000 </r>
       <r>   10.1973   -0.0000 </r>
       <r>   10.2684   -0.0000 </r>
       <r>   10.3066   -0.0000 </r>
       <r>   10.3160   -0.0000 </r>
      </set>
      <set comment="kpoint 2">
       <r>    0.9503    1.0000 </r>
       <r>    2.1745    1.0000 </r>
       <r>    2.3674    1.0000 </r>
       <r>    2.6388    1.0000 </r>
       <r>    2.6934    1.0000 </r>
       <r>    2.7070    1.0000 </r>
       <r>    2.9211    1.0000 </r>
       <r>    3.0378    1.0000 </r>
       <r>    3.1008    1.0000 </r>
       <r>    3.1755    1.0000 </r>
       <r>    3.2609    1.0000 </r>
       <r>    3.2948    1.0000 </r>
       <r>    3.4203    1.0000 </r>
       <r>    3.4684    1.0000 </r>
       <r>    3.5327    1.0000 </r>
       <r>    3.6566    1.0000 </r>
       <r>    3.7231    1.0000 </r>
       <r>    3.7609    1.0000 </r>
       <r>    3.8777    1.0000 </r>
       <r>    3.9510    1.0000 </r>
       <r>    3.9987    1.0000 </r>
       <r>    4.0756    1.0000 </r>
       <r>    4.1308    1.0000 </r>
       <r>    4.1736    1.0000 </r>
       <r>    4.2163    1.0000 </r>
       <r>    4.5408    1.0000 </r>
       <r>    4.6101    1.0000 </r>
       <r>    4.7774    1.0000 </r>
       <r>    4.8782    1.0000 </r>
       <r>    4.9366    1.0000 </r>
       <r>    4.9827    1.0000 </r>
       <r>    5.0161    1.0000 </r>
       <r>    5.1240    1.0000 </r>
       <r>    5.1797    1.0000 </r>
       <r>    5.2623    1.0000 </r>
       <r>    5.3424    1.0000 </r>
       <r>    5.4470    1.0000 </r>
       <r>    5.5498    1.0000 </r>
       <r>    5.6355    1.0000 </r>
       <r>    5.7707    1.0000 </r>
       <r>    5.9333    1.0000 </r>
       <r>    5.9759    1.0000 </r>
       <r>    6.0016    1.0000 </r>
       <r>    6.0649    1.0000 </r>
       <r>    6.0881    1.0000 </r>
       <r>    6.0946    1.0000 </r>
       <r>    6.1399    1.0000 </r>
       <r>    6.2251    1.0000 </r>
       <r>    6.2444    1.0000 </r>
       <r>    6.3107    1.0000 </r>
       <r>    6.3616    1.0000 </r>
       <r>    6.4439    1.0000 </r>
       <r>    6.5481    1.0000 </r>
       <r>    6.5637    1.0000 </r>
       <r>    6.5959    1.0000 </r>
       <r>    6.7014    1.0000 </r>
       <r>    6.7355    1.0000 </r>
       <r>    6.8107    1.0000 </r>
       <r>    6.8319    1.0000 </r>
       <r>    6.8643    1.0000 </r>
       <r>    7.0501    1.0000 </r>
       <r>    7.1211    1.0000 </r>
       <r>    7.1514    1.0000 </r>
       <r>    7.2926    1.0000 </r>
       <r>    7.3124    1.0000 </r>
       <r>    7.5640    1.0000 </r>
       <r>    7.6429    1.0000 </r>
       <r>    7.7098    1.0000 </r>
       <r>    7.7378    1.0000 </r>
       <r>    7.8587    1.0000 </r>
       <r>    7.9914    1.0000 </r>
       <r>    8.1224    1.0000 </r>
       <r>    8.1671    1.0000 </r>
       <r>    8.1893    1.0000 </r>
       <r>    8.3843    1.0018 </r>
       <r>    8.4233    1.0077 </r>
       <r>    8.4769    1.0287 </r>
       <r>    8.5606    0.9363 </r>
       <r>    8.6268    0.4804 </r>
       <r>    8.6903    0.0553 </r>
       <r>    8.7857   -0.0225 </r>
       <r>    8.8718   -0.0013 </r>
       <r>    8.9287   -0.0001 </r>
       <r>    9.0574   -0.0000 </r>
       <r>    9.2863   -0.0000 </r>
       <r>    9.3983   -0.0000 </r>
       <r>    9.6108   -0.0000 </r>
       <r>    9.6350   -0.0000 </r>
       <r>    9.7369   -0.0000 </r>
       <r>    9.8110   -0.0000 </r>
       <r>    9.9207   -0.0000 </r>
       <r>   10.0078   -0.0000 </r>
       <r>   10.0924   -0.0000 </r>
       <r>   10.1523   -0.0000 </r>
       <r>   10.1749   -0.0000 </r>
       <r>   10.2264   -0.0000 </r>
       <r>   10.2688   -0.0000 </r>
       <r>   10.2931   -0.0000 </r>
       <r>   10.3454   -0.0000 </r>
       <r>   10.4683   -0.0000 </r>
      </set>
      <set comment="kpoint 3">
       <r>    1.2056    1.0000 </r>
       <r>    2.2643    1.0000 </r>
       <r>    2.5358    1.0000 </r>
       <r>    2.7418    1.0000 </r>
       <r>    2.7759    1.0000 </r>
       <r>    2.8737    1.0000 </r>
       <r>    2.9749    1.0000 </r>
       <r>    3.0384    1.0000 </r>
       <r>    3.0612    1.0000 </r>
       <r>    3.1685    1.0000 </r>
       <r>    3.2586    1.0000 </r>
       <r>    3.2865    1.0000 </r>
       <r>    3.3069    1.0000 </r>
       <r>    3.3246    1.0000 </r>
       <r>    3.3863    1.0000 </r>
       <r>    3.4025    1.0000 </r>
       <r>    3.5771    1.0000 </r>
       <r>    3.6171    1.0000 </r>
       <r>    3.6609    1.0000 </r>
       <r>    3.6950    1.0000 </r>
       <r>    3.7360    1.0000 </r>
       <r>    3.7965    1.0000 </r>
       <r>    3.8125    1.0000 </r>
       <r>    3.8845    1.0000 </r>
       <r>    4.0157    1.0000 </r>
       <r>    4.5791    1.0000 </r>
       <r>    4.7144    1.0000 </r>
       <r>    4.8660    1.0000 </r>
       <r>    4.9422    1.0000 </r>
       <r>    5.0324    1.0000 </r>
       <r>    5.0902    1.0000 </r>
       <r>    5.1262    1.0000 </r>
       <r>    5.2630    1.0000 </r>
       <r>    5.2944    1.0000 </r>
       <r>    5.3393    1.0000 </r>
       <r>    5.4878    1.0000 </r>
       <r>    5.5356    1.0000 </r>
       <r>    5.6167    1.0000 </r>
       <r>    5.6542    1.0000 </r>
       <r>    5.7054    1.0000 </r>
       <r>    5.8925    1.0000 </r>
       <r>    5.9776    1.0000 </r>
       <r>    6.0903    1.0000 </r>
       <r>    6.1759    1.0000 </r>
       <r>    6.2136    1.0000 </r>
       <r>    6.2894    1.0000 </r>
       <r>    6.3132    1.0000 </r>
       <r>    6.4255    1.0000 </r>
       <r>    6.4621    1.0000 </r>
       <r>    6.4829    1.0000 </r>
       <r>    6.5011    1.0000 </r>
       <r>    6.5697    1.0000 </r>
       <r>    6.5929    1.0000 </r>
       <r>    6.6172    1.0000 </r>
       <r>    6.6878    1.0000 </r>
       <r>    6.7830    1.0000 </r>
       <r>    6.8086    1.0000 </r>
       <r>    6.8479    1.0000 </r>
       <r>    6.9448    1.0000 </r>
       <r>    6.9965    1.0000 </r>
       <r>    7.0759    1.0000 </r>
       <r>    7.2011    1.0000 </r>
       <r>    7.2456    1.0000 </r>
       <r>    7.2830    1.0000 </r>
       <r>    7.4221    1.0000 </r>
       <r>    7.4767    1.0000 </r>
       <r>    7.5469    1.0000 </r>
       <r>    7.6008    1.0000 </r>
       <r>    7.7085    1.0000 </r>
       <r>    7.7506    1.0000 </r>
       <r>    7.8835    1.0000 </r>
       <r>    8.1396    1.0000 </r>
       <r>    8.2185    1.0000 </r>
       <r>    8.3258    1.0001 </r>
       <r>    8.3968    1.0030 </r>
       <r>    8.4046    1.0040 </r>
       <r>    8.4516    1.0173 </r>
       <r>    8.4743    1.0276 </r>
       <r>    8.5785    0.8468 </r>
       <r>    8.6298    0.4546 </r>
       <r>    8.7172   -0.0159 </r>
       <r>    8.8779   -0.0010 </r>
       <r>    8.9002   -0.0003 </r>
       <r>    8.9892   -0.0000 </r>
       <r>    9.0835   -0.0000 </r>
       <r>    9.1674   -0.0000 </r>
       <r>    9.3108   -0.0000 </r>
       <r>    9.4597   -0.0000 </r>
       <r>    9.6509   -0.0000 </r>
       <r>    9.9003   -0.0000 </r>
       <r>    9.9514   -0.0000 </r>
       <r>   10.0283   -0.0000 </r>
       <r>   10.1013   -0.0000 </r>
       <r>   10.1375   -0.0000 </r>
       <r>   10.1497   -0.0000 </r>
       <r>   10.1847   -0.0000 </r>
       <r>   10.2553   -0.0000 </r>
       <r>   10.2774   -0.0000 </r>
       <r>   10.3303   -0.0000 </r>
       <r>   10.3628   -0.0000 </r>
      </set>
      <set comment="kpoint 4">
       <r>    1.6060    1.0000 </r>
       <r>    2.4685    1.0000 </r>
       <r>    2.7035    1.0000 </r>
       <r>    2.7198    1.0000 </r>
       <r>    2.8071    1.0000 </r>
       <r>    2.8810    1.0000 </r>
       <r>    2.9499    1.0000 </r>
       <r>    2.9810    1.0000 </r>
       <r>    3.0107    1.0000 </r>
       <r>    3.1111    1.0000 </r>
       <r>    3.1626    1.0000 </r>
       <r>    3.1798    1.0000 </r>
       <r>    3.2400    1.0000 </r>
       <r>    3.2874    1.0000 </r>
       <r>    3.3168    1.0000 </r>
       <r>    3.4158    1.0000 </r>
       <r>    3.4530    1.0000 </r>
       <r>    3.4814    1.0000 </r>
       <r>    3.5146    1.0000 </r>
       <r>    3.5799    1.0000 </r>
       <r>    3.5893    1.0000 </r>
       <r>    3.6234    1.0000 </r>
       <r>    3.6983    1.0000 </r>
       <r>    3.8240    1.0000 </r>
       <r>    3.8736    1.0000 </r>
       <r>    4.4193    1.0000 </r>
       <r>    4.5560    1.0000 </r>
       <r>    4.9493    1.0000 </r>
       <r>    4.9933    1.0000 </r>
       <r>    5.0827    1.0000 </r>
       <r>    5.1521    1.0000 </r>
       <r>    5.1822    1.0000 </r>
       <r>    5.2699    1.0000 </r>
       <r>    5.3141    1.0000 </r>
       <r>    5.4037    1.0000 </r>
       <r>    5.5261    1.0000 </r>
       <r>    5.5778    1.0000 </r>
       <r>    5.6984    1.0000 </r>
       <r>    5.7319    1.0000 </r>
       <r>    5.7956    1.0000 </r>
       <r>    5.9139    1.0000 </r>
       <r>    6.0413    1.0000 </r>
       <r>    6.1605    1.0000 </r>
       <r>    6.2262    1.0000 </r>
       <r>    6.2478    1.0000 </r>
       <r>    6.3303    1.0000 </r>
       <r>    6.3773    1.0000 </r>
       <r>    6.4252    1.0000 </r>
       <r>    6.4352    1.0000 </r>
       <r>    6.4653    1.0000 </r>
       <r>    6.4844    1.0000 </r>
       <r>    6.5978    1.0000 </r>
       <r>    6.6473    1.0000 </r>
       <r>    6.7012    1.0000 </r>
       <r>    6.7552    1.0000 </r>
       <r>    6.8075    1.0000 </r>
       <r>    6.8791    1.0000 </r>
       <r>    6.9071    1.0000 </r>
       <r>    6.9783    1.0000 </r>
       <r>    7.0043    1.0000 </r>
       <r>    7.0767    1.0000 </r>
       <r>    7.0969    1.0000 </r>
       <r>    7.3486    1.0000 </r>
       <r>    7.4164    1.0000 </r>
       <r>    7.4849    1.0000 </r>
       <r>    7.5053    1.0000 </r>
       <r>    7.6675    1.0000 </r>
       <r>    7.7249    1.0000 </r>
       <r>    7.8364    1.0000 </r>
       <r>    7.8905    1.0000 </r>
       <r>    8.0793    1.0000 </r>
       <r>    8.1397    1.0000 </r>
       <r>    8.1874    1.0000 </r>
       <r>    8.2326    1.0000 </r>
       <r>    8.3026    1.0000 </r>
       <r>    8.3961    1.0029 </r>
       <r>    8.5082    1.0348 </r>
       <r>    8.6380    0.3861 </r>
       <r>    8.6590    0.2256 </r>
       <r>    8.7357   -0.0332 </r>
       <r>    8.8363   -0.0053 </r>
       <r>    8.9470   -0.0000 </r>
       <r>    8.9714   -0.0000 </r>
       <r>    9.0433   -0.0000 </r>
       <r>    9.1532   -0.0000 </r>
       <r>    9.2660   -0.0000 </r>
       <r>    9.3068   -0.0000 </r>
       <r>    9.3958   -0.0000 </r>
       <r>    9.5482   -0.0000 </r>
       <r>    9.6334   -0.0000 </r>
       <r>    9.7802   -0.0000 </r>
       <r>    9.8882   -0.0000 </r>
       <r>    9.9024   -0.0000 </r>
       <r>   10.1132   -0.0000 </r>
       <r>   10.2000   -0.0000 </r>
       <r>   10.2082   -0.0000 </r>
       <r>   10.2482   -0.0000 </r>
       <r>   10.2837   -0.0000 </r>
       <r>   10.3241   -0.0000 </r>
       <r>   10.4378   -0.0000 </r>
      </set>
      <set comment="kpoint 5">
       <r>    2.1093    1.0000 </r>
       <r>    2.4919    1.0000 </r>
       <r>    2.6740    1.0000 </r>
       <r>    2.7418    1.0000 </r>
       <r>    2.7622    1.0000 </r>
       <r>    2.7975    1.0000 </r>
       <r>    2.8819    1.0000 </r>
       <r>    2.9545    1.0000 </r>
       <r>    2.9838    1.0000 </r>
       <r>    3.0378    1.0000 </r>
       <r>    3.0668    1.0000 </r>
       <r>    3.1147    1.0000 </r>
       <r>    3.1751    1.0000 </r>
       <r>    3.1925    1.0000 </r>
       <r>    3.2544    1.0000 </r>
       <r>    3.3479    1.0000 </r>
       <r>    3.4190    1.0000 </r>
       <r>    3.4749    1.0000 </r>
       <r>    3.5247    1.0000 </r>
       <r>    3.5438    1.0000 </r>
       <r>    3.6154    1.0000 </r>
       <r>    3.8221    1.0000 </r>
       <r>    3.8837    1.0000 </r>
       <r>    3.9210    1.0000 </r>
       <r>    4.0165    1.0000 </r>
       <r>    4.0608    1.0000 </r>
       <r>    4.6008    1.0000 </r>
       <r>    4.7143    1.0000 </r>
       <r>    4.9308    1.0000 </r>
       <r>    4.9854    1.0000 </r>
       <r>    5.0546    1.0000 </r>
       <r>    5.1458    1.0000 </r>
       <r>    5.2624    1.0000 </r>
       <r>    5.3918    1.0000 </r>
       <r>    5.4789    1.0000 </r>
       <r>    5.5082    1.0000 </r>
       <r>    5.5931    1.0000 </r>
       <r>    5.6540    1.0000 </r>
       <r>    5.7277    1.0000 </r>
       <r>    5.8652    1.0000 </r>
       <r>    6.0411    1.0000 </r>
       <r>    6.0888    1.0000 </r>
       <r>    6.1516    1.0000 </r>
       <r>    6.1855    1.0000 </r>
       <r>    6.2429    1.0000 </r>
       <r>    6.2524    1.0000 </r>
       <r>    6.3608    1.0000 </r>
       <r>    6.3651    1.0000 </r>
       <r>    6.4251    1.0000 </r>
       <r>    6.4657    1.0000 </r>
       <r>    6.4830    1.0000 </r>
       <r>    6.5126    1.0000 </r>
       <r>    6.5296    1.0000 </r>
       <r>    6.5634    1.0000 </r>
       <r>    6.6211    1.0000 </r>
       <r>    6.6453    1.0000 </r>
       <r>    6.7229    1.0000 </r>
       <r>    6.7613    1.0000 </r>
       <r>    6.7976    1.0000 </r>
       <r>    6.9746    1.0000 </r>
       <r>    7.0169    1.0000 </r>
       <r>    7.1023    1.0000 </r>
       <r>    7.3820    1.0000 </r>
       <r>    7.4345    1.0000 </r>
       <r>    7.5151    1.0000 </r>
       <r>    7.7175    1.0000 </r>
       <r>    7.9372    1.0000 </r>
       <r>    7.9641    1.0000 </r>
       <r>    8.0230    1.0000 </r>
       <r>    8.1111    1.0000 </r>
       <r>    8.1756    1.0000 </r>
       <r>    8.3157    1.0001 </r>
       <r>    8.5188    1.0300 </r>
       <r>    8.5303    1.0180 </r>
       <r>    8.6178    0.5559 </r>
       <r>    8.6529    0.2696 </r>
       <r>    8.6922    0.0482 </r>
       <r>    8.7425   -0.0351 </r>
       <r>    8.7640   -0.0319 </r>
       <r>    8.7757   -0.0271 </r>
       <r>    8.8719   -0.0013 </r>
       <r>    9.0458   -0.0000 </r>
       <r>    9.0834   -0.0000 </r>
       <r>    9.1829   -0.0000 </r>
       <r>    9.3291   -0.0000 </r>
       <r>    9.3454   -0.0000 </r>
       <r>    9.4654   -0.0000 </r>
       <r>    9.4969   -0.0000 </r>
       <r>    9.6514   -0.0000 </r>
       <r>    9.7289   -0.0000 </r>
       <r>    9.7578   -0.0000 </r>
       <r>    9.7990   -0.0000 </r>
       <r>    9.9351   -0.0000 </r>
       <r>    9.9717   -0.0000 </r>
       <r>   10.0035   -0.0000 </r>
       <r>   10.1260   -0.0000 </r>
       <r>   10.2864   -0.0000 </r>
       <r>   10.3133   -0.0000 </r>
       <r>   10.3368   -0.0000 </r>
       <r>   10.4253   -0.0000 </r>
      </set>
      <set comment="kpoint 6">
       <r>    2.3748    1.0000 </r>
       <r>    2.6004    1.0000 </r>
       <r>    2.6199    1.0000 </r>
       <r>    2.6528    1.0000 </r>
       <r>    2.6934    1.0000 </r>
       <r>    2.8349    1.0000 </r>
       <r>    2.8961    1.0000 </r>
       <r>    2.9615    1.0000 </r>
       <r>    2.9922    1.0000 </r>
       <r>    3.0240    1.0000 </r>
       <r>    3.0693    1.0000 </r>
       <r>    3.0967    1.0000 </r>
       <r>    3.1216    1.0000 </r>
       <r>    3.1323    1.0000 </r>
       <r>    3.1620    1.0000 </r>
       <r>    3.2752    1.0000 </r>
       <r>    3.3532    1.0000 </r>
       <r>    3.4045    1.0000 </r>
       <r>    3.4938    1.0000 </r>
       <r>    3.5551    1.0000 </r>
       <r>    3.7223    1.0000 </r>
       <r>    3.9374    1.0000 </r>
       <r>    4.0449    1.0000 </r>
       <r>    4.0926    1.0000 </r>
       <r>    4.2619    1.0000 </r>
       <r>    4.3783    1.0000 </r>
       <r>    4.4261    1.0000 </r>
       <r>    4.5546    1.0000 </r>
       <r>    4.7135    1.0000 </r>
       <r>    4.7856    1.0000 </r>
       <r>    4.8357    1.0000 </r>
       <r>    5.1797    1.0000 </r>
       <r>    5.2841    1.0000 </r>
       <r>    5.3510    1.0000 </r>
       <r>    5.4736    1.0000 </r>
       <r>    5.5964    1.0000 </r>
       <r>    5.6438    1.0000 </r>
       <r>    5.7218    1.0000 </r>
       <r>    5.7767    1.0000 </r>
       <r>    5.8497    1.0000 </r>
       <r>    5.8649    1.0000 </r>
       <r>    5.9078    1.0000 </r>
       <r>    5.9477    1.0000 </r>
       <r>    6.0188    1.0000 </r>
       <r>    6.1457    1.0000 </r>
       <r>    6.2098    1.0000 </r>
       <r>    6.2236    1.0000 </r>
       <r>    6.3009    1.0000 </r>
       <r>    6.3653    1.0000 </r>
       <r>    6.3804    1.0000 </r>
       <r>    6.4093    1.0000 </r>
       <r>    6.4299    1.0000 </r>
       <r>    6.4777    1.0000 </r>
       <r>    6.5231    1.0000 </r>
       <r>    6.5793    1.0000 </r>
       <r>    6.5873    1.0000 </r>
       <r>    6.6806    1.0000 </r>
       <r>    6.7214    1.0000 </r>
       <r>    6.8275    1.0000 </r>
       <r>    6.8685    1.0000 </r>
       <r>    6.9522    1.0000 </r>
       <r>    7.4465    1.0000 </r>
       <r>    7.5463    1.0000 </r>
       <r>    7.8263    1.0000 </r>
       <r>    7.8607    1.0000 </r>
       <r>    7.9032    1.0000 </r>
       <r>    7.9386    1.0000 </r>
       <r>    8.0323    1.0000 </r>
       <r>    8.0898    1.0000 </r>
       <r>    8.1514    1.0000 </r>
       <r>    8.1984    1.0000 </r>
       <r>    8.2063    1.0000 </r>
       <r>    8.4321    1.0102 </r>
       <r>    8.4938    1.0346 </r>
       <r>    8.5962    0.7285 </r>
       <r>    8.6777    0.1124 </r>
       <r>    8.8188   -0.0096 </r>
       <r>    8.9270   -0.0001 </r>
       <r>    8.9434   -0.0000 </r>
       <r>    9.0207   -0.0000 </r>
       <r>    9.0386   -0.0000 </r>
       <r>    9.1088   -0.0000 </r>
       <r>    9.1820   -0.0000 </r>
       <r>    9.2332   -0.0000 </r>
       <r>    9.3847   -0.0000 </r>
       <r>    9.4554   -0.0000 </r>
       <r>    9.5143   -0.0000 </r>
       <r>    9.6739   -0.0000 </r>
       <r>    9.7909   -0.0000 </r>
       <r>    9.8268   -0.0000 </r>
       <r>    9.9750   -0.0000 </r>
       <r>   10.0484   -0.0000 </r>
       <r>   10.0988   -0.0000 </r>
       <r>   10.1409   -0.0000 </r>
       <r>   10.2098   -0.0000 </r>
       <r>   10.2231   -0.0000 </r>
       <r>   10.2747   -0.0000 </r>
       <r>   10.3088   -0.0000 </r>
       <r>   10.3101   -0.0000 </r>
       <r>   10.3718   -0.0000 </r>
      </set>
      <set comment="kpoint 7">
       <r>    0.9567    1.0000 </r>
       <r>    2.2435    1.0000 </r>
       <r>    2.3606    1.0000 </r>
       <r>    2.6624    1.0000 </r>
       <r>    2.6782    1.0000 </r>
       <r>    2.7448    1.0000 </r>
       <r>    2.8514    1.0000 </r>
       <r>    3.0585    1.0000 </r>
       <r>    3.1147    1.0000 </r>
       <r>    3.1958    1.0000 </r>
       <r>    3.4499    1.0000 </r>
       <r>    3.5024    1.0000 </r>
       <r>    3.5494    1.0000 </r>
       <r>    3.6011    1.0000 </r>
       <r>    3.6485    1.0000 </r>
       <r>    3.7471    1.0000 </r>
       <r>    3.8021    1.0000 </r>
       <r>    3.8489    1.0000 </r>
       <r>    4.0466    1.0000 </r>
       <r>    4.0904    1.0000 </r>
       <r>    4.1356    1.0000 </r>
       <r>    4.2258    1.0000 </r>
       <r>    4.4157    1.0000 </r>
       <r>    4.4543    1.0000 </r>
       <r>    4.5072    1.0000 </r>
       <r>    4.5392    1.0000 </r>
       <r>    4.6208    1.0000 </r>
       <r>    4.6587    1.0000 </r>
       <r>    4.7038    1.0000 </r>
       <r>    4.7260    1.0000 </r>
       <r>    4.7960    1.0000 </r>
       <r>    4.8968    1.0000 </r>
       <r>    4.9713    1.0000 </r>
       <r>    5.1088    1.0000 </r>
       <r>    5.2119    1.0000 </r>
       <r>    5.3108    1.0000 </r>
       <r>    5.4848    1.0000 </r>
       <r>    5.5399    1.0000 </r>
       <r>    5.5675    1.0000 </r>
       <r>    5.6859    1.0000 </r>
       <r>    5.8582    1.0000 </r>
       <r>    5.8770    1.0000 </r>
       <r>    5.9273    1.0000 </r>
       <r>    5.9851    1.0000 </r>
       <r>    5.9944    1.0000 </r>
       <r>    6.0672    1.0000 </r>
       <r>    6.0807    1.0000 </r>
       <r>    6.1408    1.0000 </r>
       <r>    6.1485    1.0000 </r>
       <r>    6.2438    1.0000 </r>
       <r>    6.2838    1.0000 </r>
       <r>    6.3512    1.0000 </r>
       <r>    6.3894    1.0000 </r>
       <r>    6.5285    1.0000 </r>
       <r>    6.5608    1.0000 </r>
       <r>    6.5755    1.0000 </r>
       <r>    6.6242    1.0000 </r>
       <r>    6.6767    1.0000 </r>
       <r>    6.7377    1.0000 </r>
       <r>    6.7616    1.0000 </r>
       <r>    6.8334    1.0000 </r>
       <r>    7.0043    1.0000 </r>
       <r>    7.2475    1.0000 </r>
       <r>    7.4434    1.0000 </r>
       <r>    7.5622    1.0000 </r>
       <r>    7.6843    1.0000 </r>
       <r>    7.7343    1.0000 </r>
       <r>    7.8295    1.0000 </r>
       <r>    7.8587    1.0000 </r>
       <r>    7.9303    1.0000 </r>
       <r>    8.0274    1.0000 </r>
       <r>    8.0725    1.0000 </r>
       <r>    8.1114    1.0000 </r>
       <r>    8.1258    1.0000 </r>
       <r>    8.1522    1.0000 </r>
       <r>    8.2873    1.0000 </r>
       <r>    8.3689    1.0009 </r>
       <r>    8.4195    1.0068 </r>
       <r>    8.4733    1.0271 </r>
       <r>    8.7222   -0.0226 </r>
       <r>    8.7909   -0.0201 </r>
       <r>    8.8867   -0.0007 </r>
       <r>    8.9158   -0.0002 </r>
       <r>    8.9555   -0.0000 </r>
       <r>    9.0823   -0.0000 </r>
       <r>    9.5677   -0.0000 </r>
       <r>    9.6430   -0.0000 </r>
       <r>    9.7011   -0.0000 </r>
       <r>    9.7286   -0.0000 </r>
       <r>    9.7944   -0.0000 </r>
       <r>    9.8506   -0.0000 </r>
       <r>    9.9096   -0.0000 </r>
       <r>    9.9573   -0.0000 </r>
       <r>    9.9765   -0.0000 </r>
       <r>   10.0313   -0.0000 </r>
       <r>   10.1026   -0.0000 </r>
       <r>   10.1477   -0.0000 </r>
       <r>   10.2025   -0.0000 </r>
       <r>   10.2695   -0.0000 </r>
       <r>   10.3041   -0.0000 </r>
      </set>
      <set comment="kpoint 8">
       <r>    0.9908    1.0000 </r>
       <r>    2.2383    1.0000 </r>
       <r>    2.4015    1.0000 </r>
       <r>    2.6635    1.0000 </r>
       <r>    2.7173    1.0000 </r>
       <r>    2.7609    1.0000 </r>
       <r>    2.9494    1.0000 </r>
       <r>    3.0334    1.0000 </r>
       <r>    3.1313    1.0000 </r>
       <r>    3.1497    1.0000 </r>
       <r>    3.3899    1.0000 </r>
       <r>    3.4367    1.0000 </r>
       <r>    3.5493    1.0000 </r>
       <r>    3.6007    1.0000 </r>
       <r>    3.6495    1.0000 </r>
       <r>    3.7259    1.0000 </r>
       <r>    3.7845    1.0000 </r>
       <r>    3.8390    1.0000 </r>
       <r>    3.8918    1.0000 </r>
       <r>    4.0125    1.0000 </r>
       <r>    4.1111    1.0000 </r>
       <r>    4.1903    1.0000 </r>
       <r>    4.2818    1.0000 </r>
       <r>    4.2966    1.0000 </r>
       <r>    4.3415    1.0000 </r>
       <r>    4.5622    1.0000 </r>
       <r>    4.6630    1.0000 </r>
       <r>    4.7175    1.0000 </r>
       <r>    4.7664    1.0000 </r>
       <r>    4.7864    1.0000 </r>
       <r>    4.8565    1.0000 </r>
       <r>    4.9215    1.0000 </r>
       <r>    5.1254    1.0000 </r>
       <r>    5.1449    1.0000 </r>
       <r>    5.1843    1.0000 </r>
       <r>    5.2641    1.0000 </r>
       <r>    5.3706    1.0000 </r>
       <r>    5.5559    1.0000 </r>
       <r>    5.6493    1.0000 </r>
       <r>    5.7866    1.0000 </r>
       <r>    5.8047    1.0000 </r>
       <r>    5.8810    1.0000 </r>
       <r>    5.9516    1.0000 </r>
       <r>    5.9858    1.0000 </r>
       <r>    6.0450    1.0000 </r>
       <r>    6.0744    1.0000 </r>
       <r>    6.1294    1.0000 </r>
       <r>    6.1823    1.0000 </r>
       <r>    6.1943    1.0000 </r>
       <r>    6.2446    1.0000 </r>
       <r>    6.3457    1.0000 </r>
       <r>    6.3938    1.0000 </r>
       <r>    6.4483    1.0000 </r>
       <r>    6.5157    1.0000 </r>
       <r>    6.5464    1.0000 </r>
       <r>    6.6106    1.0000 </r>
       <r>    6.6489    1.0000 </r>
       <r>    6.7349    1.0000 </r>
       <r>    6.7714    1.0000 </r>
       <r>    6.8435    1.0000 </r>
       <r>    6.8662    1.0000 </r>
       <r>    7.0138    1.0000 </r>
       <r>    7.2442    1.0000 </r>
       <r>    7.3261    1.0000 </r>
       <r>    7.5242    1.0000 </r>
       <r>    7.6556    1.0000 </r>
       <r>    7.7037    1.0000 </r>
       <r>    7.7917    1.0000 </r>
       <r>    7.8576    1.0000 </r>
       <r>    7.9132    1.0000 </r>
       <r>    7.9629    1.0000 </r>
       <r>    7.9983    1.0000 </r>
       <r>    8.0569    1.0000 </r>
       <r>    8.1556    1.0000 </r>
       <r>    8.2546    1.0000 </r>
       <r>    8.3364    1.0002 </r>
       <r>    8.3987    1.0032 </r>
       <r>    8.4759    1.0283 </r>
       <r>    8.5193    1.0297 </r>
       <r>    8.7977   -0.0172 </r>
       <r>    8.8419   -0.0044 </r>
       <r>    8.9005   -0.0003 </r>
       <r>    8.9558   -0.0000 </r>
       <r>    8.9824   -0.0000 </r>
       <r>    9.2256   -0.0000 </r>
       <r>    9.3360   -0.0000 </r>
       <r>    9.5675   -0.0000 </r>
       <r>    9.6374   -0.0000 </r>
       <r>    9.7363   -0.0000 </r>
       <r>    9.8264   -0.0000 </r>
       <r>    9.8580   -0.0000 </r>
       <r>    9.8722   -0.0000 </r>
       <r>    9.9852   -0.0000 </r>
       <r>   10.0399   -0.0000 </r>
       <r>   10.1040   -0.0000 </r>
       <r>   10.1522   -0.0000 </r>
       <r>   10.2000   -0.0000 </r>
       <r>   10.2499   -0.0000 </r>
       <r>   10.2635   -0.0000 </r>
       <r>   10.3378   -0.0000 </r>
      </set>
      <set comment="kpoint 9">
       <r>    1.1949    1.0000 </r>
       <r>    2.2887    1.0000 </r>
       <r>    2.5617    1.0000 </r>
       <r>    2.7554    1.0000 </r>
       <r>    2.8187    1.0000 </r>
       <r>    2.8647    1.0000 </r>
       <r>    3.0816    1.0000 </r>
       <r>    3.1326    1.0000 </r>
       <r>    3.1581    1.0000 </r>
       <r>    3.2050    1.0000 </r>
       <r>    3.2326    1.0000 </r>
       <r>    3.2821    1.0000 </r>
       <r>    3.3748    1.0000 </r>
       <r>    3.4174    1.0000 </r>
       <r>    3.4629    1.0000 </r>
       <r>    3.5894    1.0000 </r>
       <r>    3.6557    1.0000 </r>
       <r>    3.7138    1.0000 </r>
       <r>    3.7758    1.0000 </r>
       <r>    3.8111    1.0000 </r>
       <r>    3.8583    1.0000 </r>
[...]
       <r>    4.1705    1.0000 </r>
       <r>    4.1984    1.0000 </r>
       <r>    4.4010    1.0000 </r>
       <r>    4.5351    1.0000 </r>
       <r>    4.6217    1.0000 </r>
       <r>    4.7323    1.0000 </r>
       <r>    4.7878    1.0000 </r>
       <r>    4.8441    1.0000 </r>
       <r>    5.0158    1.0000 </r>
       <r>    5.0588    1.0000 </r>
       <r>    5.1651    1.0000 </r>
       <r>    5.4998    1.0000 </r>
       <r>    5.5705    1.0000 </r>
       <r>    5.5926    1.0000 </r>
       <r>    5.6578    1.0000 </r>
       <r>    5.7109    1.0000 </r>
       <r>    5.7885    1.0000 </r>
       <r>    5.8231    1.0000 </r>
       <r>    5.9556    1.0000 </r>
       <r>    6.0063    1.0000 </r>
       <r>    6.0577    1.0000 </r>
       <r>    6.1400    1.0000 </r>
       <r>    6.1654    1.0000 </r>
       <r>    6.2006    1.0000 </r>
       <r>    6.2244    1.0000 </r>
       <r>    6.2600    1.0000 </r>
       <r>    6.3025    1.0000 </r>
       <r>    6.3234    1.0000 </r>
       <r>    6.3468    1.0000 </r>
       <r>    6.3697    1.0000 </r>
       <r>    6.3851    1.0000 </r>
       <r>    6.4193    1.0000 </r>
       <r>    6.4718    1.0000 </r>
       <r>    6.5087    1.0000 </r>
       <r>    6.7280    1.0000 </r>
       <r>    6.7595    1.0000 </r>
       <r>    6.7990    1.0000 </r>
       <r>    6.8817    1.0000 </r>
       <r>    6.9486    1.0000 </r>
       <r>    7.1825    1.0000 </r>
       <r>    7.3007    1.0000 </r>
       <r>    7.4595    1.0000 </r>
       <r>    7.5112    1.0000 </r>
       <r>    7.6058    1.0000 </r>
       <r>    7.6718    1.0000 </r>
       <r>    7.8880    1.0000 </r>
       <r>    7.9201    1.0000 </r>
       <r>    8.0080    1.0000 </r>
       <r>    8.0316    1.0000 </r>
       <r>    8.1077    1.0000 </r>
       <r>    8.2256    1.0000 </r>
       <r>    8.3054    1.0000 </r>
       <r>    8.3494    1.0004 </r>
       <r>    8.3983    1.0031 </r>
       <r>    8.4856    1.0322 </r>
       <r>    8.5706    0.8906 </r>
       <r>    8.5978    0.7166 </r>
       <r>    8.6533    0.2669 </r>
       <r>    8.7410   -0.0349 </r>
       <r>    8.8268   -0.0074 </r>
       <r>    9.0985   -0.0000 </r>
       <r>    9.3240   -0.0000 </r>
       <r>    9.4645   -0.0000 </r>
       <r>    9.6021   -0.0000 </r>
       <r>    9.6516   -0.0000 </r>
       <r>    9.7236   -0.0000 </r>
       <r>    9.8520   -0.0000 </r>
       <r>    9.9187   -0.0000 </r>
       <r>    9.9696   -0.0000 </r>
       <r>   10.0404   -0.0000 </r>
       <r>   10.0592   -0.0000 </r>
       <r>   10.0858   -0.0000 </r>
       <r>   10.1688   -0.0000 </r>
       <r>   10.2065   -0.0000 </r>
       <r>   10.2282   -0.0000 </r>
       <r>   10.2777   -0.0000 </r>
       <r>   10.3574   -0.0000 </r>
      </set>
     </set>
    </set>
   </array>
  </eigenvalues>
  <separator name="orbital magnetization" >
   <v name="MAGDIPOLOUT">      0.00000000      0.00000000      0.00000000</v>
  </separator>
  <dos>
   <i name="efermi">      8.62443809 </i>
   <total>
    <array>
     <dimension dim="1">gridpoints</dimension>
     <dimension dim="2">spin</dimension>
     <field>energy</field>
     <field>total</field>
     <field>integrated</field>
     <set>
      <set comment="spin 1">
       <r>    -0.1372     0.0000     0.0000 </r>
       <r>    -0.0978     0.0000     0.0000 </r>
       <r>    -0.0583     0.0000     0.0000 </r>
       <r>    -0.0188     0.0000     0.0000 </r>
       <r>     0.0207     0.0000     0.0000 </r>
       <r>     0.0602    -0.0000    -0.0000 </r>
       <r>     0.0996    -0.0000    -0.0000 </r>
       <r>     0.1391    -0.0000    -0.0000 </r>
       <r>     0.1786    -0.0000    -0.0000 </r>
       <r>     0.2181    -0.0000    -0.0000 </r>
       <r>     0.2576    -0.0000    -0.0000 </r>
       <r>     0.2970    -0.0000    -0.0000 </r>
       <r>     0.3365    -0.0000    -0.0000 </r>
       <r>     0.3760    -0.0000    -0.0000 </r>
       <r>     0.4155    -0.0000    -0.0000 </r>
       <r>     0.4550    -0.0000    -0.0000 </r>
       <r>     0.4944    -0.0000    -0.0000 </r>
       <r>     0.5339    -0.0000    -0.0000 </r>
       <r>     0.5734    -0.0000    -0.0000 </r>
       <r>     0.6129    -0.0001    -0.0000 </r>
       <r>     0.6524    -0.0006    -0.0000 </r>
       <r>     0.6918    -0.0020    -0.0001 </r>
       <r>     0.7313    -0.0049    -0.0003 </r>
       <r>     0.7708    -0.0076    -0.0006 </r>
       <r>     0.8103    -0.0033    -0.0007 </r>
       <r>     0.8498     0.0241     0.0002 </r>
       <r>     0.8892     0.0984     0.0041 </r>
       <r>     0.9287     0.2304     0.0132 </r>
       <r>     0.9682     0.3847     0.0284 </r>
       <r>     1.0077     0.4904     0.0477 </r>
       <r>     1.0472     0.5066     0.0677 </r>
       <r>     1.0866     0.4721     0.0864 </r>
       <r>     1.1261     0.4864     0.1056 </r>
       <r>     1.1656     0.6230     0.1302 </r>
       <r>     1.2051     0.8299     0.1630 </r>
       <r>     1.2446     0.9528     0.2006 </r>
       <r>     1.2840     0.9161     0.2367 </r>
       <r>     1.3235     0.8171     0.2690 </r>
       <r>     1.3630     0.7966     0.3004 </r>
       <r>     1.4025     0.8798     0.3352 </r>
       <r>     1.4420     0.9974     0.3746 </r>
       <r>     1.4814     1.1040     0.4181 </r>
       <r>     1.5209     1.1661     0.4642 </r>
       <r>     1.5604     1.1265     0.5087 </r>
       <r>     1.5999     1.0300     0.5493 </r>
       <r>     1.6394     1.0446     0.5906 </r>
       <r>     1.6788     1.2367     0.6394 </r>
       <r>     1.7183     1.4850     0.6980 </r>
       <r>     1.7578     1.6527     0.7633 </r>
       <r>     1.7973     1.6870     0.8299 </r>
       <r>     1.8368     1.5864     0.8925 </r>
       <r>     1.8762     1.4116     0.9482 </r>
       <r>     1.9157     1.3006     0.9996 </r>
       <r>     1.9552     1.3706     1.0537 </r>
       <r>     1.9947     1.5753     1.1159 </r>
       <r>     2.0342     1.7190     1.1837 </r>
       <r>     2.0736     1.6959     1.2507 </r>
       <r>     2.1131     1.6666     1.3165 </r>
       <r>     2.1526     1.8421     1.3892 </r>
       <r>     2.1921     2.1676     1.4748 </r>
       <r>     2.2316     2.3920     1.5692 </r>
       <r>     2.2710     2.3851     1.6634 </r>
       <r>     2.3105     2.3027     1.7543 </r>
       <r>     2.3500     2.4718     1.8519 </r>
       <r>     2.3895     3.0544     1.9725 </r>
       <r>     2.4290     3.8115     2.1230 </r>
       <r>     2.4684     4.3572     2.2950 </r>
       <r>     2.5079     4.6250     2.4776 </r>
       <r>     2.5474     4.9080     2.6713 </r>
       <r>     2.5869     5.5364     2.8899 </r>
       <r>     2.6264     6.6706     3.1533 </r>
       <r>     2.6658     8.2500     3.4790 </r>
       <r>     2.7053    10.0307     3.8750 </r>
       <r>     2.7448    11.7945     4.3406 </r>
       <r>     2.7843    13.5769     4.8766 </r>
       <r>     2.8238    15.5964     5.4924 </r>
       <r>     2.8632    17.8448     6.1969 </r>
       <r>     2.9027    19.8832     6.9819 </r>
       <r>     2.9422    21.3013     7.8229 </r>
       <r>     2.9817    22.1659     8.6980 </r>
       <r>     3.0212    22.8196     9.5989 </r>
       <r>     3.0606    23.5881    10.5301 </r>
       <r>     3.1001    24.7672    11.5080 </r>
       <r>     3.1396    26.4679    12.5529 </r>
       <r>     3.1791    28.3487    13.6721 </r>
       <r>     3.2186    29.8060    14.8488 </r>
       <r>     3.2580    30.5612    16.0554 </r>
       <r>     3.2975    30.9852    17.2787 </r>
       <r>     3.3370    31.7508    18.5322 </r>
       <r>     3.3765    33.1583    19.8413 </r>
       <r>     3.4160    34.9269    21.2202 </r>
       <r>     3.4554    36.5725    22.6641 </r>
       <r>     3.4949    37.7168    24.1531 </r>
       <r>     3.5344    38.0476    25.6553 </r>
       <r>     3.5739    37.3542    27.1300 </r>
       <r>     3.6134    35.8462    28.5452 </r>
       <r>     3.6528    34.1854    29.8948 </r>
       <r>     3.6923    32.9366    31.1952 </r>
       <r>     3.7318    32.1367    32.4639 </r>
       <r>     3.7713    31.5483    33.7095 </r>
       <r>     3.8108    31.1213    34.9381 </r>
       <r>     3.8502    30.9101    36.1585 </r>
       <r>     3.8897    30.6666    37.3692 </r>
       <r>     3.9292    29.9985    38.5535 </r>
       <r>     3.9687    28.8942    39.6942 </r>
       <r>     4.0082    27.6401    40.7855 </r>
       <r>     4.0476    26.4346    41.8291 </r>
       <r>     4.0871    25.3856    42.8313 </r>
       <r>     4.1266    24.5057    43.7988 </r>
       <r>     4.1661    23.6540    44.7327 </r>
       <r>     4.2056    22.7651    45.6314 </r>
       <r>     4.2450    21.9786    46.4991 </r>
       <r>     4.2845    21.4653    47.3466 </r>
       <r>     4.3240    21.2759    48.1866 </r>
       <r>     4.3635    21.2667    49.0262 </r>
       <r>     4.4030    21.1417    49.8608 </r>
       <r>     4.4424    20.8239    50.6830 </r>
       <r>     4.4819    20.7071    51.5005 </r>
       <r>     4.5214    21.1652    52.3361 </r>
       <r>     4.5609    22.0004    53.2047 </r>
       <r>     4.6004    22.7613    54.1033 </r>
       <r>     4.6398    23.2947    55.0229 </r>
       <r>     4.6793    23.6399    55.9562 </r>
       <r>     4.7188    23.7819    56.8951 </r>
       <r>     4.7583    23.7865    57.8342 </r>
       <r>     4.7978    23.7735    58.7728 </r>
       <r>     4.8372    23.6547    59.7067 </r>
       <r>     4.8767    23.2964    60.6264 </r>
       <r>     4.9162    22.9529    61.5326 </r>
       <r>     4.9557    23.0873    62.4441 </r>
       <r>     4.9952    23.6328    63.3771 </r>
       <r>     5.0346    23.9981    64.3246 </r>
       <r>     5.0741    23.8815    65.2674 </r>
       <r>     5.1136    23.4146    66.1918 </r>
       <r>     5.1531    22.6993    67.0880 </r>
       <r>     5.1926    21.8447    67.9504 </r>
       <r>     5.2320    21.2131    68.7879 </r>
       <r>     5.2715    21.1626    69.6234 </r>
       <r>     5.3110    21.5922    70.4759 </r>
       <r>     5.3505    22.0316    71.3457 </r>
       <r>     5.3900    22.2556    72.2243 </r>
       <r>     5.4294    22.5004    73.1126 </r>
       <r>     5.4689    23.0069    74.0209 </r>
       <r>     5.5084    23.7219    74.9575 </r>
       <r>     5.5479    24.4496    75.9227 </r>
       <r>     5.5874    25.0599    76.9121 </r>
       <r>     5.6268    25.6174    77.9235 </r>
       <r>     5.6663    26.2047    78.9580 </r>
       <r>     5.7058    26.5704    80.0070 </r>
       <r>     5.7453    26.4016    81.0494 </r>
       <r>     5.7848    25.8529    82.0700 </r>
       <r>     5.8242    25.3854    83.0722 </r>
       <r>     5.8637    25.3496    84.0730 </r>
       <r>     5.9032    25.8229    85.0925 </r>
       <r>     5.9427    26.6467    86.1445 </r>
       <r>     5.9822    27.6998    87.2381 </r>
       <r>     6.0216    29.0297    88.3842 </r>
       <r>     6.0611    30.4981    89.5883 </r>
       <r>     6.1006    31.6493    90.8378 </r>
       <r>     6.1401    32.3791    92.1161 </r>
       <r>     6.1796    33.2373    93.4283 </r>
       <r>     6.2190    34.6110    94.7948 </r>
       <r>     6.2585    36.2524    96.2260 </r>
       <r>     6.2980    37.8502    97.7203 </r>
       <r>     6.3375    39.3552    99.2741 </r>
       <r>     6.3770    40.6649   100.8795 </r>
       <r>     6.4164    41.5705   102.5207 </r>
       <r>     6.4559    41.9928   104.1786 </r>
       <r>     6.4954    41.9153   105.8334 </r>
       <r>     6.5349    41.2132   107.4605 </r>
       <r>     6.5744    39.7780   109.0309 </r>
       <r>     6.6138    37.7314   110.5206 </r>
       <r>     6.6533    35.4131   111.9187 </r>
       <r>     6.6928    33.1282   113.2266 </r>
       <r>     6.7323    30.9187   114.4472 </r>
       <r>     6.7718    28.6628   115.5788 </r>
       <r>     6.8112    26.4597   116.6235 </r>
       <r>     6.8507    24.8027   117.6027 </r>
       <r>     6.8902    24.1183   118.5549 </r>
       <r>     6.9297    24.2450   119.5121 </r>
       <r>     6.9692    24.6459   120.4851 </r>
       <r>     7.0086    24.9083   121.4684 </r>
       <r>     7.0481    24.8495   122.4495 </r>
       <r>     7.0876    24.4232   123.4137 </r>
       <r>     7.1271    23.7407   124.3510 </r>
       <r>     7.1666    23.1378   125.2645 </r>
       <r>     7.2060    22.9574   126.1708 </r>
       <r>     7.2455    23.0452   127.0807 </r>
       <r>     7.2850    22.8054   127.9810 </r>
       <r>     7.3245    22.0454   128.8514 </r>
       <r>     7.3640    21.3240   129.6932 </r>
       <r>     7.4034    21.2159   130.5308 </r>
       <r>     7.4429    21.5834   131.3830 </r>
       <r>     7.4824    21.7794   132.2428 </r>
       <r>     7.5219    21.5315   133.0929 </r>
       <r>     7.5613    21.3702   133.9366 </r>
       <r>     7.6008    21.8376   134.7987 </r>
       <r>     7.6403    22.6601   135.6933 </r>
       <r>     7.6798    23.2363   136.6107 </r>
       <r>     7.7193    23.4130   137.5350 </r>
       <r>     7.7587    23.4213   138.4597 </r>
       <r>     7.7982    23.5434   139.3892 </r>
       <r>     7.8377    23.8684   140.3315 </r>
       <r>     7.8772    24.2478   141.2888 </r>
       <r>     7.9167    24.6807   142.2632 </r>
       <r>     7.9561    25.3136   143.2626 </r>
       <r>     7.9956    25.9133   144.2856 </r>
       <r>     8.0351    26.0620   145.3146 </r>
       <r>     8.0746    25.8553   146.3353 </r>
       <r>     8.1141    25.7885   147.3535 </r>
       <r>     8.1535    26.0433   148.3817 </r>
       <r>     8.1930    26.3363   149.4214 </r>
       <r>     8.2325    26.3288   150.4609 </r>
       <r>     8.2720    25.8585   151.4818 </r>
       <r>     8.3115    25.0542   152.4709 </r>
       <r>     8.3509    24.3418   153.4319 </r>
       <r>     8.3904    24.0517   154.3815 </r>
       <r>     8.4299    24.1383   155.3344 </r>
       <r>     8.4694    24.3531   156.2959 </r>
       <r>     8.5089    24.4562   157.2614 </r>
       <r>     8.5483    24.2889   158.2204 </r>
       <r>     8.5878    23.7855   159.1594 </r>
       <r>     8.6273    22.9211   160.0643 </r>
       <r>     8.6668    21.7855   160.9244 </r>
       <r>     8.7063    20.7648   161.7442 </r>
       <r>     8.7457    20.2963   162.5455 </r>
       <r>     8.7852    20.3328   163.3482 </r>
       <r>     8.8247    20.4762   164.1566 </r>
       <r>     8.8642    20.6428   164.9716 </r>
       <r>     8.9037    21.0594   165.8030 </r>
       <r>     8.9431    21.6154   166.6564 </r>
       <r>     8.9826    21.7310   167.5144 </r>
       <r>     9.0221    20.9905   168.3431 </r>
       <r>     9.0616    19.7533   169.1229 </r>
       <r>     9.1011    18.9272   169.8702 </r>
       <r>     9.1405    19.0681   170.6230 </r>
       <r>     9.1800    19.9175   171.4093 </r>
       <r>     9.2195    20.7552   172.2287 </r>
       <r>     9.2590    21.0215   173.0586 </r>
       <r>     9.2985    20.7360   173.8773 </r>
       <r>     9.3379    20.3547   174.6809 </r>
       <r>     9.3774    20.2134   175.4789 </r>
       <r>     9.4169    20.2701   176.2792 </r>
       <r>     9.4564    20.3763   177.0836 </r>
       <r>     9.4959    20.5342   177.8943 </r>
       <r>     9.5353    20.8018   178.7156 </r>
       <r>     9.5748    21.2121   179.5530 </r>
       <r>     9.6143    21.8240   180.4146 </r>
       <r>     9.6538    22.6210   181.3077 </r>
       <r>     9.6933    23.4636   182.2341 </r>
       <r>     9.7327    24.1877   183.1890 </r>
       <r>     9.7722    24.5958   184.1600 </r>
       <r>     9.8117    24.6439   185.1330 </r>
       <r>     9.8512    24.7737   186.1110 </r>
       <r>     9.8907    25.5852   187.1211 </r>
       <r>     9.9301    27.1119   188.1915 </r>
       <r>     9.9696    28.8842   189.3318 </r>
       <r>    10.0091    30.5612   190.5384 </r>
       <r>    10.0486    31.9647   191.8004 </r>
       <r>    10.0881    32.7215   193.0922 </r>
       <r>    10.1275    32.4505   194.3733 </r>
       <r>    10.1670    31.1289   195.6023 </r>
       <r>    10.2065    28.7841   196.7387 </r>
       <r>    10.2460    25.1994   197.7336 </r>
       <r>    10.2855    20.4599   198.5413 </r>
       <r>    10.3249    15.2642   199.1440 </r>
       <r>    10.3644    10.3667   199.5532 </r>
       <r>    10.4039     6.2233   199.7989 </r>
       <r>    10.4434     3.1327   199.9226 </r>
       <r>    10.4829     1.2312   199.9712 </r>
       <r>    10.5223     0.3470   199.9849 </r>
       <r>    10.5618     0.0760   199.9879 </r>
       <r>    10.6013     0.0424   199.9896 </r>
       <r>    10.6408     0.0571   199.9918 </r>
       <r>    10.6803     0.0704   199.9946 </r>
       <r>    10.7197     0.0705   199.9974 </r>
       <r>    10.7592     0.0507   199.9994 </r>
       <r>    10.7987     0.0215   200.0003 </r>
       <r>    10.8382     0.0015   200.0003 </r>
       <r>    10.8777    -0.0041   200.0002 </r>
       <r>    10.9171    -0.0027   200.0000 </r>
       <r>    10.9566    -0.0009   200.0000 </r>
       <r>    10.9961    -0.0002   200.0000 </r>
       <r>    11.0356    -0.0000   200.0000 </r>
       <r>    11.0751    -0.0000   200.0000 </r>
       <r>    11.1145    -0.0000   200.0000 </r>
       <r>    11.1540    -0.0000   200.0000 </r>
       <r>    11.1935    -0.0000   200.0000 </r>
       <r>    11.2330    -0.0000   200.0000 </r>
       <r>    11.2725    -0.0000   200.0000 </r>
       <r>    11.3119    -0.0000   200.0000 </r>
       <r>    11.3514    -0.0000   200.0000 </r>
       <r>    11.3909     0.0000   200.0000 </r>
       <r>    11.4304     0.0000   200.0000 </r>
       <r>    11.4699     0.0000   200.0000 </r>
       <r>    11.5093     0.0000   200.0000 </r>
       <r>    11.5488     0.0000   200.0000 </r>
       <r>    11.5883     0.0000   200.0000 </r>
       <r>    11.6278     0.0000   200.0000 </r>
       <r>    11.6673     0.0000   200.0000 </r>
       <r>    11.7067     0.0000   200.0000 </r>
      </set>
     </set>
    </array>
   </total>
  </dos>
 </calculation>
 <structure name="finalpos" >
  <crystal>
   <varray name="basis" >
    <v>      -1.89365000      -1.91336000      -3.81144000 </v>
    <v>       3.82178000      -0.00212000      -3.79990000 </v>
    <v>       1.91533000     -11.42088000       1.93101000 </v>
   </varray>
   <i name="volume">    276.58131014 </i>
   <varray name="rec_basis" >
    <v>      -0.15692418      -0.05299692      -0.15779819 </v>
    <v>       0.17074442       0.01317337      -0.09144459 </v>
    <v>       0.02625809      -0.07868271       0.02645318 </v>
   </varray>
  </crystal>
  <varray name="positions" >
   <v>       0.38518800       0.42227550       0.60856700 </v>
   <v>       0.21315800       0.69867800       0.79408200 </v>
   <v>       0.77602400       0.57591400       0.70029600 </v>
   <v>       0.19812400       0.45414400       0.29595600 </v>
   <v>       0.39919600       0.89823350       0.60037900 </v>
   <v>       0.00216000       0.74943000       0.49988000 </v>
   <v>       0.60064000       0.60117250       0.40022500 </v>
   <v>       0.20195600       0.19987850       0.79988900 </v>
   <v>       0.80070200       0.05149200       0.70018800 </v>
   <v>       0.40113000       0.65070250       0.10004500 </v>
   <v>       0.00087800       0.50082300       0.00004200 </v>
   <v>       0.60183400       0.34966650       0.90006100 </v>
   <v>       0.20331800       0.94873050       0.29962700 </v>
   <v>       0.79861600       0.80159350       0.20041900 </v>
   <v>       0.99716200       0.26912450       0.50088300 </v>
   <v>       0.60635800       0.09198050       0.39922700 </v>
   <v>       0.35408400       0.14835650       0.10634100 </v>
   <v>       0.99772800       0.99975050       0.00217700 </v>
   <v>       0.60146600       0.84508850       0.89959900 </v>
   <v>       0.78544600       0.31803350       0.20298900 </v>
  </varray>
 </structure>
</modeling>
