  48  48   0   0
  0.1641954E+02  0.1179661E-08  0.1348515E-08  0.1113447E-08  0.3000000E-14
   3000.00000000000     
  CAR 
 Ir-Ru                                   
     22.92517283     -4.46959378  301      6.82133708      1.00000000
     -4.470  0.0000E+00  0.0000E+00
     -4.378  0.0000E+00  0.0000E+00
     -4.287  0.0000E+00  0.0000E+00
     -4.196  0.0000E+00  0.0000E+00
     -4.104  0.0000E+00  0.0000E+00
     -4.013  0.4725E-05  0.4417E-06
     -3.922  0.3212E-03  0.2954E-04
     -3.830  0.6537E-03  0.8869E-04
     -3.739  0.7923E-03  0.1605E-03
     -3.648  0.2145E-02  0.3547E-03
     -3.556  0.2713E-02  0.6002E-03
     -3.465  0.3528E-02  0.9197E-03
     -3.374  0.5045E-02  0.1376E-02
     -3.282  0.7020E-02  0.2011E-02
     -3.191  0.9803E-02  0.2899E-02
     -3.100  0.1340E-01  0.4111E-02
     -3.009  0.1865E-01  0.5800E-02
     -2.917  0.2598E-01  0.8152E-02
     -2.826  0.3596E-01  0.1141E-01
     -2.735  0.4947E-01  0.1589E-01
     -2.643  0.6823E-01  0.2207E-01
     -2.552  0.9376E-01  0.3056E-01
     -2.461  0.1290E+00  0.4224E-01
     -2.369  0.1765E+00  0.5822E-01
     -2.278  0.2395E+00  0.7991E-01
     -2.187  0.3241E+00  0.1093E+00
     -2.095  0.4343E+00  0.1486E+00
     -2.004  0.5764E+00  0.2008E+00
     -1.913  0.7560E+00  0.2693E+00
     -1.821  0.9763E+00  0.3577E+00
     -1.730  0.1241E+01  0.4700E+00
     -1.639  0.1547E+01  0.6101E+00
     -1.547  0.1891E+01  0.7812E+00
     -1.456  0.2266E+01  0.9863E+00
     -1.365  0.2662E+01  0.1227E+01
     -1.274  0.3072E+01  0.1505E+01
     -1.182  0.3493E+01  0.1821E+01
     -1.091  0.3923E+01  0.2176E+01
     -1.000  0.4370E+01  0.2572E+01
     -0.908  0.4846E+01  0.3010E+01
     -0.817  0.5363E+01  0.3495E+01
     -0.726  0.5941E+01  0.4033E+01
     -0.634  0.6597E+01  0.4630E+01
     -0.543  0.7351E+01  0.5296E+01
     -0.452  0.8222E+01  0.6040E+01
     -0.360  0.9230E+01  0.6875E+01
     -0.269  0.1039E+02  0.7816E+01
     -0.178  0.1172E+02  0.8878E+01
     -0.086  0.1324E+02  0.1008E+02
      0.005  0.1494E+02  0.1143E+02
      0.096  0.1683E+02  0.1295E+02
      0.188  0.1891E+02  0.1466E+02
      0.279  0.2118E+02  0.1658E+02
      0.370  0.2361E+02  0.1872E+02
      0.461  0.2619E+02  0.2109E+02
      0.553  0.2887E+02  0.2370E+02
      0.644  0.3164E+02  0.2657E+02
      0.735  0.3445E+02  0.2968E+02
      0.827  0.3726E+02  0.3306E+02
      0.918  0.4005E+02  0.3668E+02
      1.009  0.4277E+02  0.4055E+02
      1.101  0.4540E+02  0.4466E+02
      1.192  0.4792E+02  0.4900E+02
      1.283  0.5031E+02  0.5355E+02
      1.375  0.5255E+02  0.5830E+02
      1.466  0.5462E+02  0.6324E+02
      1.557  0.5651E+02  0.6836E+02
      1.649  0.5823E+02  0.7363E+02
      1.740  0.5978E+02  0.7903E+02
      1.831  0.6116E+02  0.8457E+02
      1.923  0.6237E+02  0.9021E+02
      2.014  0.6343E+02  0.9595E+02
      2.105  0.6434E+02  0.1018E+03
      2.196  0.6512E+02  0.1077E+03
      2.288  0.6579E+02  0.1136E+03
      2.379  0.6634E+02  0.1196E+03
      2.470  0.6679E+02  0.1257E+03
      2.562  0.6717E+02  0.1317E+03
      2.653  0.6746E+02  0.1378E+03
      2.744  0.6769E+02  0.1440E+03
      2.836  0.6787E+02  0.1501E+03
      2.927  0.6798E+02  0.1563E+03
      3.018  0.6805E+02  0.1624E+03
      3.110  0.6807E+02  0.1686E+03
      3.201  0.6804E+02  0.1747E+03
      3.292  0.6796E+02  0.1809E+03
      3.384  0.6783E+02  0.1870E+03
      3.475  0.6767E+02  0.1931E+03
      3.566  0.6745E+02  0.1992E+03
      3.658  0.6720E+02  0.2053E+03
      3.749  0.6692E+02  0.2114E+03
      3.840  0.6660E+02  0.2174E+03
      3.931  0.6625E+02  0.2234E+03
      4.023  0.6589E+02  0.2294E+03
      4.114  0.6552E+02  0.2353E+03
      4.205  0.6515E+02  0.2412E+03
      4.297  0.6478E+02  0.2470E+03
      4.388  0.6443E+02  0.2529E+03
      4.479  0.6410E+02  0.2587E+03
      4.571  0.6379E+02  0.2644E+03
      4.662  0.6350E+02  0.2702E+03
      4.753  0.6325E+02  0.2759E+03
      4.845  0.6303E+02  0.2816E+03
      4.936  0.6284E+02  0.2873E+03
      5.027  0.6270E+02  0.2930E+03
      5.119  0.6259E+02  0.2986E+03
      5.210  0.6254E+02  0.3043E+03
      5.301  0.6254E+02  0.3100E+03
      5.393  0.6260E+02  0.3156E+03
      5.484  0.6272E+02  0.3213E+03
      5.575  0.6291E+02  0.3270E+03
      5.666  0.6317E+02  0.3327E+03
      5.758  0.6350E+02  0.3384E+03
      5.849  0.6389E+02  0.3442E+03
      5.940  0.6434E+02  0.3500E+03
      6.032  0.6485E+02  0.3559E+03
      6.123  0.6539E+02  0.3618E+03
      6.214  0.6596E+02  0.3678E+03
      6.306  0.6655E+02  0.3738E+03
      6.397  0.6713E+02  0.3799E+03
      6.488  0.6769E+02  0.3860E+03
      6.580  0.6820E+02  0.3922E+03
      6.671  0.6864E+02  0.3984E+03
      6.762  0.6899E+02  0.4046E+03
      6.854  0.6923E+02  0.4109E+03
      6.945  0.6931E+02  0.4172E+03
      7.036  0.6923E+02  0.4234E+03
      7.128  0.6894E+02  0.4297E+03
      7.219  0.6843E+02  0.4359E+03
      7.310  0.6769E+02  0.4420E+03
      7.401  0.6668E+02  0.4480E+03
      7.493  0.6541E+02  0.4540E+03
      7.584  0.6386E+02  0.4597E+03
      7.675  0.6205E+02  0.4653E+03
      7.767  0.5998E+02  0.4708E+03
      7.858  0.5766E+02  0.4760E+03
      7.949  0.5512E+02  0.4810E+03
      8.041  0.5239E+02  0.4857E+03
      8.132  0.4951E+02  0.4902E+03
      8.223  0.4652E+02  0.4944E+03
      8.315  0.4348E+02  0.4984E+03
      8.406  0.4043E+02  0.5020E+03
      8.497  0.3745E+02  0.5054E+03
      8.589  0.3459E+02  0.5085E+03
      8.680  0.3190E+02  0.5114E+03
      8.771  0.2942E+02  0.5141E+03
      8.863  0.2718E+02  0.5166E+03
      8.954  0.2520E+02  0.5188E+03
      9.045  0.2346E+02  0.5210E+03
      9.136  0.2197E+02  0.5229E+03
      9.228  0.2070E+02  0.5248E+03
      9.319  0.1963E+02  0.5266E+03
      9.410  0.1872E+02  0.5283E+03
      9.502  0.1795E+02  0.5299E+03
      9.593  0.1731E+02  0.5315E+03
      9.684  0.1676E+02  0.5330E+03
      9.776  0.1630E+02  0.5345E+03
      9.867  0.1591E+02  0.5359E+03
      9.958  0.1557E+02  0.5373E+03
     10.050  0.1528E+02  0.5387E+03
     10.141  0.1502E+02  0.5401E+03
     10.232  0.1479E+02  0.5414E+03
     10.324  0.1458E+02  0.5428E+03
     10.415  0.1440E+02  0.5441E+03
     10.506  0.1424E+02  0.5453E+03
     10.598  0.1410E+02  0.5466E+03
     10.689  0.1397E+02  0.5479E+03
     10.780  0.1386E+02  0.5491E+03
     10.871  0.1377E+02  0.5504E+03
     10.963  0.1368E+02  0.5516E+03
     11.054  0.1361E+02  0.5529E+03
     11.145  0.1356E+02  0.5541E+03
     11.237  0.1351E+02  0.5553E+03
     11.328  0.1348E+02  0.5565E+03
     11.419  0.1346E+02  0.5577E+03
     11.511  0.1345E+02  0.5590E+03
     11.602  0.1346E+02  0.5602E+03
     11.693  0.1347E+02  0.5614E+03
     11.785  0.1348E+02  0.5626E+03
     11.876  0.1349E+02  0.5638E+03
     11.967  0.1351E+02  0.5651E+03
     12.059  0.1352E+02  0.5663E+03
     12.150  0.1353E+02  0.5675E+03
     12.241  0.1354E+02  0.5687E+03
     12.333  0.1355E+02  0.5700E+03
     12.424  0.1355E+02  0.5712E+03
     12.515  0.1356E+02  0.5724E+03
     12.606  0.1356E+02  0.5736E+03
     12.698  0.1357E+02  0.5749E+03
     12.789  0.1357E+02  0.5761E+03
     12.880  0.1357E+02  0.5773E+03
     12.972  0.1357E+02  0.5786E+03
     13.063  0.1359E+02  0.5798E+03
     13.154  0.1361E+02  0.5810E+03
     13.246  0.1365E+02  0.5822E+03
     13.337  0.1370E+02  0.5835E+03
     13.428  0.1377E+02  0.5847E+03
     13.520  0.1384E+02  0.5860E+03
     13.611  0.1393E+02  0.5872E+03
     13.702  0.1403E+02  0.5885E+03
     13.794  0.1414E+02  0.5898E+03
     13.885  0.1426E+02  0.5911E+03
     13.976  0.1438E+02  0.5924E+03
     14.068  0.1451E+02  0.5937E+03
     14.159  0.1464E+02  0.5950E+03
     14.250  0.1478E+02  0.5964E+03
     14.341  0.1492E+02  0.5977E+03
     14.433  0.1506E+02  0.5991E+03
     14.524  0.1521E+02  0.6005E+03
     14.615  0.1535E+02  0.6018E+03
     14.707  0.1549E+02  0.6032E+03
     14.798  0.1562E+02  0.6047E+03
     14.889  0.1575E+02  0.6061E+03
     14.981  0.1588E+02  0.6075E+03
     15.072  0.1601E+02  0.6090E+03
     15.163  0.1614E+02  0.6104E+03
     15.255  0.1627E+02  0.6119E+03
     15.346  0.1640E+02  0.6134E+03
     15.437  0.1652E+02  0.6149E+03
     15.529  0.1665E+02  0.6164E+03
     15.620  0.1678E+02  0.6179E+03
     15.711  0.1691E+02  0.6194E+03
     15.803  0.1704E+02  0.6210E+03
     15.894  0.1717E+02  0.6225E+03
     15.985  0.1729E+02  0.6241E+03
     16.076  0.1742E+02  0.6257E+03
     16.168  0.1754E+02  0.6273E+03
     16.259  0.1766E+02  0.6289E+03
     16.350  0.1777E+02  0.6305E+03
     16.442  0.1788E+02  0.6321E+03
     16.533  0.1798E+02  0.6337E+03
     16.624  0.1809E+02  0.6353E+03
     16.716  0.1819E+02  0.6370E+03
     16.807  0.1829E+02  0.6386E+03
     16.898  0.1839E+02  0.6403E+03
     16.990  0.1850E+02  0.6420E+03
     17.081  0.1861E+02  0.6437E+03
     17.172  0.1872E+02  0.6454E+03
     17.264  0.1884E+02  0.6471E+03
     17.355  0.1896E+02  0.6488E+03
     17.446  0.1908E+02  0.6505E+03
     17.538  0.1921E+02  0.6522E+03
     17.629  0.1934E+02  0.6540E+03
     17.720  0.1947E+02  0.6558E+03
     17.811  0.1960E+02  0.6575E+03
     17.903  0.1974E+02  0.6593E+03
     17.994  0.1987E+02  0.6611E+03
     18.085  0.2001E+02  0.6629E+03
     18.177  0.2015E+02  0.6648E+03
     18.268  0.2028E+02  0.6666E+03
     18.359  0.2040E+02  0.6684E+03
     18.451  0.2049E+02  0.6703E+03
     18.542  0.2056E+02  0.6722E+03
     18.633  0.2059E+02  0.6740E+03
     18.725  0.2058E+02  0.6759E+03
     18.816  0.2050E+02  0.6777E+03
     18.907  0.2035E+02  0.6796E+03
     18.999  0.2012E+02  0.6814E+03
     19.090  0.1979E+02  0.6832E+03
     19.181  0.1935E+02  0.6849E+03
     19.273  0.1878E+02  0.6866E+03
     19.364  0.1808E+02  0.6883E+03
     19.455  0.1722E+02  0.6898E+03
     19.546  0.1620E+02  0.6913E+03
     19.638  0.1502E+02  0.6927E+03
     19.729  0.1369E+02  0.6939E+03
     19.820  0.1224E+02  0.6950E+03
     19.912  0.1072E+02  0.6960E+03
     20.003  0.9185E+01  0.6968E+03
     20.094  0.7693E+01  0.6975E+03
     20.186  0.6302E+01  0.6981E+03
     20.277  0.5054E+01  0.6985E+03
     20.368  0.3975E+01  0.6989E+03
     20.460  0.3073E+01  0.6992E+03
     20.551  0.2341E+01  0.6994E+03
     20.642  0.1761E+01  0.6996E+03
     20.734  0.1312E+01  0.6997E+03
     20.825  0.9692E+00  0.6998E+03
     20.916  0.7112E+00  0.6998E+03
     21.008  0.5189E+00  0.6999E+03
     21.099  0.3767E+00  0.6999E+03
     21.190  0.2721E+00  0.6999E+03
     21.281  0.1956E+00  0.7000E+03
     21.373  0.1398E+00  0.7000E+03
     21.464  0.9919E-01  0.7000E+03
     21.555  0.6971E-01  0.7000E+03
     21.647  0.4833E-01  0.7000E+03
     21.738  0.3278E-01  0.7000E+03
     21.829  0.2158E-01  0.7000E+03
     21.921  0.1355E-01  0.7000E+03
     22.012  0.7931E-02  0.7000E+03
     22.103  0.4158E-02  0.7000E+03
     22.195  0.1802E-02  0.7000E+03
     22.286  0.6002E-03  0.7000E+03
     22.377  0.4279E-05  0.7000E+03
     22.469  0.0000E+00  0.7000E+03
     22.560  0.0000E+00  0.7000E+03
     22.651  0.0000E+00  0.7000E+03
     22.743  0.0000E+00  0.7000E+03
     22.834  0.0000E+00  0.7000E+03
     22.925  0.0000E+00  0.7000E+03
