   48   48    1    1
  0.1706813E+02  0.7325166E-09  0.1087490E-08  0.1209796E-08  0.1500000E-14
   3000.00000000000     
  CAR 
 Ir_Ru                                   
    408    101    350
 
  0.0000000E+00  0.0000000E+00  0.0000000E+00  0.5000000E-02
    1       -1.353147   1.000000
    2       -0.275249   1.000000
    3        0.138339   1.000000
    4        0.314433   1.000000
    5        0.391449   1.000000
    6        0.713513   1.000000
    7        0.815812   1.000000
    8        0.894817   1.000000
    9        0.940193   1.000000
   10        1.011647   1.000000
   11        1.087386   1.000000
   12        1.194413   1.000000
   13        1.245872   1.000000
   14        1.253519   1.000000
   15        1.309462   1.000000
   16        1.357879   1.000000
   17        1.396491   1.000000
   18        1.424160   1.000000
   19        1.485058   1.000000
   20        1.511205   1.000000
   21        1.550851   1.000000
   22        1.557964   1.000000
   23        1.598017   1.000000
   24        1.618708   1.000000
   25        1.676628   1.000000
   26        1.706829   1.000000
   27        1.765855   1.000000
   28        1.795238   1.000000
   29        1.831993   1.000000
   30        1.849846   1.000000
   31        1.897567   1.000000
   32        1.925700   1.000000
   33        1.958919   1.000000
   34        1.964339   1.000000
   35        1.982159   1.000000
   36        2.032515   1.000000
   37        2.044327   1.000000
   38        2.098368   1.000000
   39        2.115582   1.000000
   40        2.154994   1.000000
   41        2.161125   1.000000
   42        2.203445   1.000000
   43        2.253158   1.000000
   44        2.282043   1.000000
   45        2.299701   1.000000
   46        2.333505   1.000000
   47        2.379924   1.000000
   48        2.394124   1.000000
   49        2.428813   1.000000
   50        2.470912   1.000000
   51        2.494248   1.000000
   52        2.514682   1.000000
   53        2.533246   1.000000
   54        2.591295   1.000000
   55        2.630046   1.000000
   56        2.655708   1.000000
   57        2.679841   1.000000
   58        2.705583   1.000000
   59        2.732944   1.000000
   60        2.765979   1.000000
   61        2.798920   1.000000
   62        2.830338   1.000000
   63        2.844200   1.000000
   64        2.854848   1.000000
   65        2.932153   1.000000
   66        2.947794   1.000000
   67        2.977442   1.000000
   68        2.994651   1.000000
   69        3.045208   1.000000
   70        3.060389   1.000000
   71        3.086199   1.000000
   72        3.103689   1.000000
   73        3.143887   1.000000
   74        3.165548   0.999999
   75        3.197568   0.999999
   76        3.222412   0.999999
   77        3.230259   0.999999
   78        3.269588   0.999999
   79        3.300121   0.999999
   80        3.337750   0.999999
   81        3.353800   0.999999
   82        3.375983   0.999999
   83        3.420300   0.999999
   84        3.434924   0.999999
   85        3.465627   0.999999
   86        3.522669   0.999998
   87        3.547382   0.999998
   88        3.584460   0.999998
   89        3.623651   0.999997
   90        3.646738   0.999997
   91        3.674923   0.999997
   92        3.691642   0.999997
   93        3.704207   0.999996
   94        3.735068   0.999996
   95        3.751271   0.999996
   96        3.770377   0.999996
   97        3.814349   0.999995
   98        3.861171   0.999994
   99        3.880308   0.999993
  100        3.941137   0.999992
  101        3.965425   0.999991
  102        3.978025   0.999991
  103        4.008293   0.999990
  104        4.075229   0.999987
  105        4.094670   0.999986
  106        4.138742   0.999983
  107        4.153922   0.999983
  108        4.180344   0.999981
  109        4.223594   0.999978
  110        4.243580   0.999976
  111        4.258041   0.999975
  112        4.296960   0.999971
  113        4.307884   0.999970
  114        4.362954   0.999963
  115        4.386114   0.999960
  116        4.424730   0.999954
  117        4.456371   0.999949
  118        4.489908   0.999942
  119        4.516915   0.999936
  120        4.540781   0.999930
  121        4.592658   0.999916
  122        4.612738   0.999910
  123        4.640169   0.999901
  124        4.672903   0.999888
  125        4.702866   0.999876
  126        4.730831   0.999863
  127        4.764009   0.999846
  128        4.806828   0.999820
  129        4.846341   0.999793
  130        4.871025   0.999774
  131        4.903413   0.999746
  132        4.931614   0.999719
  133        4.947907   0.999702
  134        4.966580   0.999682
  135        4.987464   0.999657
  136        5.038015   0.999589
  137        5.095000   0.999497
  138        5.101468   0.999485
  139        5.147554   0.999393
  140        5.179818   0.999319
  141        5.209663   0.999242
  142        5.246662   0.999135
  143        5.254573   0.999110
  144        5.326295   0.998851
  145        5.380103   0.998608
  146        5.413729   0.998430
  147        5.427181   0.998353
  148        5.460168   0.998148
  149        5.475963   0.998041
  150        5.522715   0.997685
  151        5.555951   0.997394
  152        5.605252   0.996894
  153        5.643479   0.996442
  154        5.658145   0.996251
  155        5.689078   0.995815
  156        5.734437   0.995082
  157        5.758652   0.994641
  158        5.795519   0.993891
  159        5.800716   0.993777
  160        5.840750   0.992828
  161        5.896649   0.991257
  162        5.937144   0.989910
  163        5.945423   0.989610
  164        5.980491   0.988240
  165        6.006338   0.987118
  166        6.024823   0.986251
  167        6.048829   0.985038
  168        6.111390   0.981362
  169        6.125317   0.980430
  170        6.175947   0.976642
  171        6.187990   0.975641
  172        6.228543   0.971951
  173        6.271902   0.967406
  174        6.286963   0.965667
  175        6.316409   0.962004
  176        6.352465   0.957007
  177        6.373151   0.953862
  178        6.409856   0.947738
  179        6.458061   0.938523
  180        6.501555   0.928926
  181        6.530754   0.921726
  182        6.545408   0.917865
  183        6.564432   0.912595
  184        6.574638   0.909644
  185        6.631867   0.891379
  186        6.666714   0.878730
  187        6.678183   0.874296
  188        6.755305   0.840782
  189        6.765965   0.835619
  190        6.804036   0.816081
  191        6.828122   0.802817
  192        6.864101   0.781683
  193        6.881464   0.770916
  194        6.920150   0.745608
  195        6.941020   0.731213
  196        6.989714   0.695695
  197        7.001253   0.686901
  198        7.030580   0.663947
  199        7.059049   0.640896
  200        7.079387   0.624014
  201        7.115021   0.593718
  202        7.147187   0.565737
  203        7.200635   0.518390
  204        7.222061   0.499267
  205        7.227264   0.494622
  206        7.276601   0.450732
  207        7.308576   0.422648
  208        7.317297   0.415067
  209        7.350354   0.386720
  210        7.364921   0.374457
  211        7.382485   0.359883
  212        7.436055   0.317087
  213        7.457689   0.300597
  214        7.460227   0.298695
  215        7.515876   0.258790
  216        7.522584   0.254221
  217        7.582521   0.215804
  218        7.621204   0.193342
  219        7.634467   0.186061
  220        7.652797   0.176351
  221        7.678667   0.163329
  222        7.735739   0.137348
  223        7.743978   0.133899
  224        7.778691   0.120162
  225        7.831258   0.101686
  226        7.838683   0.099289
  227        7.881283   0.086488
  228        7.913598   0.077794
  229        7.935272   0.072419
  230        7.979636   0.062470
  231        8.000626   0.058221
  232        8.047517   0.049690
  233        8.073110   0.045547
  234        8.092225   0.042670
  235        8.123577   0.038323
  236        8.144429   0.035671
  237        8.150514   0.034931
  238        8.190228   0.030452
  239        8.259054   0.023975
  240        8.263657   0.023593
  241        8.291818   0.021384
  242        8.324134   0.019098
  243        8.347920   0.017570
  244        8.368768   0.016330
  245        8.397276   0.014772
  246        8.421605   0.013560
  247        8.442803   0.012583
  248        8.541306   0.008885
  249        8.567725   0.008091
  250        8.597489   0.007281
  251        8.630138   0.006485
  252        8.662029   0.005791
  253        8.752246   0.004202
  254        8.787455   0.003708
  255        8.844392   0.003028
  256        8.908231   0.002412
  257        9.029823   0.001564
  258        9.156131   0.000996
  259        9.198512   0.000857
  260        9.319798   0.000556
  261        9.413242   0.000398
  262        9.443358   0.000357
  263        9.558997   0.000237
  264        9.783269   0.000106
  265        9.906811   0.000068
  266        9.939004   0.000061
  267        9.984140   0.000052
  268       10.119440   0.000032
  269       10.274978   0.000018
  270       10.506141   0.000008
  271       10.603030   0.000006
  272       10.614345   0.000005
  273       10.789387   0.000003
  274       11.023362   0.000001
  275       11.152516   0.000001
  276       11.289322   0.000000
  277       11.444736   0.000000
  278       11.629123   0.000000
  279       11.673880   0.000000
  280       11.921003   0.000000
  281       12.108337   0.000000
  282       12.184153   0.000000
  283       12.322179   0.000000
  284       12.405491   0.000000
  285       12.728791   0.000000
  286       13.007520   0.000000
  287       13.423817   0.000000
  288       13.580170   0.000000
  289       13.699261   0.000000
  290       13.853915   0.000000
  291       13.990235   0.000000
  292       14.130448   0.000000
  293       14.311365   0.000000
  294       14.522738   0.000000
  295       14.722875   0.000000
  296       14.904387   0.000000
  297       14.927534   0.000000
  298       15.115604   0.000000
  299       15.317709   0.000000
  300       15.357894   0.000000
  301       15.448015   0.000000
  302       15.636402   0.000000
  303       15.775915   0.000000
  304       15.909987   0.000000
  305       16.039416   0.000000
  306       16.143398   0.000000
  307       16.299182   0.000000
  308       16.347718   0.000000
  309       16.482999   0.000000
  310       16.523714   0.000000
  311       16.599418   0.000000
  312       16.726863   0.000000
  313       16.793073   0.000000
  314       16.981369   0.000000
  315       17.179986   0.000000
  316       17.280971   0.000000
  317       17.389191   0.000000
  318       17.529259   0.000000
  319       17.607103   0.000000
  320       17.709004   0.000000
  321       17.825685   0.000000
  322       17.926229   0.000000
  323       17.978442   0.000000
  324       18.063647   0.000000
  325       18.220067   0.000000
  326       18.258125   0.000000
  327       18.366523   0.000000
  328       18.554356   0.000000
  329       18.645523   0.000000
  330       18.748213   0.000000
  331       18.875995   0.000000
  332       18.885899   0.000000
  333       18.976822   0.000000
  334       19.120060   0.000000
  335       19.205575   0.000000
  336       19.259571   0.000000
  337       19.274815   0.000000
  338       19.415645   0.000000
  339       19.454966   0.000000
  340       19.517891   0.000000
  341       19.647266   0.000000
  342       19.732780   0.000000
  343       19.821095   0.000000
  344       19.880101   0.000000
  345       19.989420   0.000000
  346       20.060658   0.000000
  347       20.144017   0.000000
  348       20.217154   0.000000
  349       20.332497   0.000000
  350       20.461478   0.000000
 
  0.1250000E+00  0.0000000E+00  0.1387779E-16  0.1000000E-01
    1       -1.288223   1.000000
    2       -0.258361   1.000000
    3        0.129685   1.000000
    4        0.278390   1.000000
    5        0.464135   1.000000
    6        0.654407   1.000000
    7        0.793067   1.000000
    8        0.910586   1.000000
    9        0.946167   1.000000
   10        1.010494   1.000000
   11        1.078788   1.000000
   12        1.186261   1.000000
   13        1.242294   1.000000
   14        1.261933   1.000000
   15        1.305915   1.000000
   16        1.344101   1.000000
   17        1.386330   1.000000
   18        1.422610   1.000000
   19        1.485624   1.000000
   20        1.519969   1.000000
   21        1.532865   1.000000
   22        1.555096   1.000000
   23        1.578193   1.000000
   24        1.651147   1.000000
   25        1.678648   1.000000
   26        1.709766   1.000000
   27        1.762690   1.000000
   28        1.794923   1.000000
   29        1.826192   1.000000
   30        1.847914   1.000000
   31        1.898888   1.000000
   32        1.924463   1.000000
   33        1.933682   1.000000
   34        1.979451   1.000000
   35        2.002351   1.000000
   36        2.035014   1.000000
   37        2.065511   1.000000
   38        2.087843   1.000000
   39        2.099532   1.000000
   40        2.136559   1.000000
   41        2.177513   1.000000
   42        2.192597   1.000000
   43        2.251993   1.000000
   44        2.279708   1.000000
   45        2.306828   1.000000
   46        2.351561   1.000000
   47        2.368152   1.000000
   48        2.374288   1.000000
   49        2.417466   1.000000
   50        2.471217   1.000000
   51        2.499531   1.000000
   52        2.520955   1.000000
   53        2.547746   1.000000
   54        2.584220   1.000000
   55        2.617589   1.000000
   56        2.639499   1.000000
   57        2.661752   1.000000
   58        2.701629   1.000000
   59        2.724716   1.000000
   60        2.774180   1.000000
   61        2.804458   1.000000
   62        2.841022   1.000000
   63        2.853375   1.000000
   64        2.869145   1.000000
   65        2.913623   1.000000
   66        2.938676   1.000000
   67        2.963251   1.000000
   68        2.980559   1.000000
   69        3.025038   1.000000
   70        3.047706   1.000000
   71        3.095674   1.000000
   72        3.119602   1.000000
   73        3.151502   1.000000
   74        3.162523   0.999999
   75        3.182560   0.999999
   76        3.203198   0.999999
   77        3.248831   0.999999
   78        3.278555   0.999999
   79        3.292599   0.999999
   80        3.326976   0.999999
   81        3.348525   0.999999
   82        3.386725   0.999999
   83        3.415979   0.999999
   84        3.447948   0.999999
   85        3.490146   0.999998
   86        3.507592   0.999998
   87        3.542597   0.999998
   88        3.569947   0.999998
   89        3.596684   0.999998
   90        3.635969   0.999997
   91        3.670115   0.999997
   92        3.699663   0.999997
   93        3.719704   0.999996
   94        3.740751   0.999996
   95        3.762606   0.999996
   96        3.790639   0.999995
   97        3.812655   0.999995
   98        3.854455   0.999994
   99        3.888795   0.999993
  100        3.913284   0.999993
  101        3.942725   0.999992
  102        3.959118   0.999991
  103        4.004893   0.999990
  104        4.050692   0.999988
  105        4.081097   0.999987
  106        4.103924   0.999985
  107        4.161061   0.999982
  108        4.185273   0.999980
  109        4.208675   0.999979
  110        4.258323   0.999975
  111        4.279857   0.999973
  112        4.293962   0.999971
  113        4.338261   0.999966
  114        4.354092   0.999964
  115        4.388679   0.999960
  116        4.423177   0.999954
  117        4.454728   0.999949
  118        4.469539   0.999946
  119        4.537716   0.999931
  120        4.547385   0.999929
  121        4.584114   0.999919
  122        4.603882   0.999913
  123        4.634520   0.999903
  124        4.684055   0.999884
  125        4.701263   0.999877
  126        4.735191   0.999861
  127        4.777422   0.999838
  128        4.786126   0.999833
  129        4.839359   0.999798
  130        4.860091   0.999782
  131        4.889232   0.999759
  132        4.935564   0.999715
  133        4.945745   0.999705
  134        4.998676   0.999643
  135        5.030526   0.999600
  136        5.046634   0.999576
  137        5.095376   0.999496
  138        5.110572   0.999468
  139        5.151848   0.999383
  140        5.191900   0.999289
  141        5.201276   0.999264
  142        5.266356   0.999072
  143        5.297370   0.998964
  144        5.326056   0.998852
  145        5.369390   0.998660
  146        5.404061   0.998484
  147        5.428998   0.998343
  148        5.434812   0.998308
  149        5.468313   0.998093
  150        5.513900   0.997757
  151        5.532697   0.997602
  152        5.592284   0.997034
  153        5.626939   0.996645
  154        5.645398   0.996417
  155        5.686247   0.995857
  156        5.718797   0.995348
  157        5.734237   0.995086
  158        5.779978   0.994219
  159        5.809055   0.993590
  160        5.848873   0.992618
  161        5.884881   0.991614
  162        5.915315   0.990660
  163        5.957082   0.989173
  164        5.985663   0.988024
  165        6.019116   0.986524
  166        6.030404   0.985978
  167        6.063380   0.984253
  168        6.105755   0.981727
  169        6.139523   0.979433
  170        6.183661   0.976005
  171        6.205859   0.974077
  172        6.234210   0.971394
  173        6.268403   0.967798
  174        6.285886   0.965794
  175        6.329263   0.960290
  176        6.347297   0.957760
  177        6.385050   0.951956
  178        6.421120   0.945709
  179        6.445550   0.941051
  180        6.482430   0.933305
  181        6.500692   0.929129
  182        6.535884   0.920393
  183        6.565441   0.912308
  184        6.597387   0.902740
  185        6.612555   0.897879
  186        6.658967   0.881647
  187        6.674955   0.875558
  188        6.726371   0.854133
  189        6.781785   0.827710
  190        6.804261   0.815960
  191        6.836110   0.798262
  192        6.853450   0.788105
  193        6.893679   0.763120
  194        6.922796   0.743811
  195        6.952722   0.722921
  196        6.992085   0.693899
  197        7.020848   0.671657
  198        7.043263   0.653766
  199        7.081910   0.621898
  200        7.108006   0.599747
  201        7.131630   0.579334
  202        7.150033   0.563238
  203        7.183630   0.533530
  204        7.199491   0.519410
  205        7.245205   0.478617
  206        7.274822   0.452305
  207        7.288954   0.439835
  208        7.333883   0.400761
  209        7.361247   0.377535
  210        7.369815   0.370372
  211        7.396636   0.348325
  212        7.434622   0.318196
  213        7.450086   0.306336
  214        7.470607   0.290987
  215        7.487004   0.279055
  216        7.533666   0.246791
  217        7.579834   0.217433
  218        7.609603   0.199886
  219        7.643338   0.181311
  220        7.655846   0.174774
  221        7.700379   0.153007
  222        7.748648   0.131976
  223        7.769084   0.123837
  224        7.781332   0.119169
  225        7.828425   0.102614
  226        7.846240   0.096901
  227        7.865538   0.091035
  228        7.904732   0.080096
  229        7.942200   0.070774
  230        7.960688   0.066553
  231        7.981844   0.062010
  232        8.009563   0.056496
  233        8.042628   0.050521
  234        8.070975   0.045880
  235        8.106200   0.040677
  236        8.135312   0.036808
  237        8.172144   0.032418
  238        8.184977   0.031011
  239        8.222414   0.027236
  240        8.253829   0.024416
  241        8.285217   0.021883
  242        8.309972   0.020069
  243        8.361681   0.016741
  244        8.372052   0.016142
  245        8.412253   0.014014
  246        8.447731   0.012366
  247        8.500014   0.010282
  248        8.519378   0.009601
  249        8.553341   0.008514
  250        8.591921   0.007426
  251        8.629492   0.006500
  252        8.711256   0.004862
  253        8.762884   0.004046
  254        8.833708   0.003145
  255        8.915751   0.002348
  256        9.033442   0.001544
  257        9.067621   0.001366
  258        9.154525   0.001002
  259        9.210874   0.000820
  260        9.306695   0.000582
  261        9.443382   0.000357
  262        9.501358   0.000291
  263        9.597535   0.000206
  264        9.729018   0.000129
  265        9.836361   0.000088
  266        9.921370   0.000065
  267       10.049538   0.000041
  268       10.174956   0.000026
  269       10.318264   0.000016
  270       10.384557   0.000012
  271       10.497445   0.000008
  272       10.573889   0.000006
  273       10.875772   0.000002
  274       10.942957   0.000002
  275       11.171310   0.000001
  276       11.314397   0.000000
  277       11.458058   0.000000
  278       11.652011   0.000000
  279       11.756094   0.000000
  280       11.947512   0.000000
  281       12.104634   0.000000
  282       12.258236   0.000000
  283       12.346480   0.000000
  284       12.547148   0.000000
  285       12.985345   0.000000
  286       13.076228   0.000000
  287       13.402394   0.000000
  288       13.493895   0.000000
  289       13.762081   0.000000
  290       13.973369   0.000000
  291       14.113090   0.000000
  292       14.239566   0.000000
  293       14.425211   0.000000
  294       14.484118   0.000000
  295       14.641607   0.000000
  296       14.820727   0.000000
  297       14.951915   0.000000
  298       14.980724   0.000000
  299       15.106725   0.000000
  300       15.276018   0.000000
  301       15.381309   0.000000
  302       15.474527   0.000000
  303       15.630566   0.000000
  304       15.809284   0.000000
  305       15.850273   0.000000
  306       16.004103   0.000000
  307       16.219760   0.000000
  308       16.291268   0.000000
  309       16.410325   0.000000
  310       16.544531   0.000000
  311       16.616439   0.000000
  312       16.647202   0.000000
  313       16.869204   0.000000
  314       17.010596   0.000000
  315       17.068727   0.000000
  316       17.182137   0.000000
  317       17.367447   0.000000
  318       17.424760   0.000000
  319       17.491386   0.000000
  320       17.602771   0.000000
  321       17.678080   0.000000
  322       17.788159   0.000000
  323       17.949178   0.000000
  324       18.037775   0.000000
  325       18.138934   0.000000
  326       18.238173   0.000000
  327       18.370895   0.000000
  328       18.549938   0.000000
  329       18.619213   0.000000
  330       18.765463   0.000000
  331       18.817128   0.000000
  332       18.880920   0.000000
  333       18.985289   0.000000
  334       19.121991   0.000000
  335       19.198454   0.000000
  336       19.270385   0.000000
  337       19.348046   0.000000
  338       19.454721   0.000000
  339       19.476406   0.000000
  340       19.572151   0.000000
  341       19.646145   0.000000
  342       19.803885   0.000000
  343       19.867701   0.000000
  344       19.988685   0.000000
  345       20.044310   0.000000
  346       20.220364   0.000000
  347       20.298924   0.000000
  348       20.333369   0.000000
  349       20.408803   0.000000
  350       20.596207   0.000000
 
  0.2500000E+00  0.0000000E+00  0.2775558E-16  0.1000000E-01
    1       -1.099881   1.000000
    2       -0.214480   1.000000
    3        0.053543   1.000000
    4        0.360706   1.000000
    5        0.397926   1.000000
    6        0.647596   1.000000
    7        0.748011   1.000000
    8        0.889150   1.000000
    9        0.946433   1.000000
   10        1.001657   1.000000
   11        1.078494   1.000000
   12        1.153943   1.000000
   13        1.209665   1.000000
   14        1.244043   1.000000
   15        1.301706   1.000000
   16        1.336550   1.000000
   17        1.392379   1.000000
   18        1.437160   1.000000
   19        1.470230   1.000000
   20        1.504691   1.000000
   21        1.533102   1.000000
   22        1.552635   1.000000
   23        1.604104   1.000000
   24        1.647470   1.000000
   25        1.670767   1.000000
   26        1.717657   1.000000
   27        1.731909   1.000000
   28        1.777596   1.000000
   29        1.822210   1.000000
   30        1.836638   1.000000
   31        1.897175   1.000000
   32        1.915902   1.000000
   33        1.943218   1.000000
   34        1.973082   1.000000
   35        1.988550   1.000000
   36        2.052182   1.000000
   37        2.060962   1.000000
   38        2.089779   1.000000
   39        2.113716   1.000000
   40        2.146049   1.000000
   41        2.164855   1.000000
   42        2.215590   1.000000
   43        2.250497   1.000000
   44        2.282509   1.000000
   45        2.322102   1.000000
   46        2.340888   1.000000
   47        2.358510   1.000000
   48        2.384280   1.000000
   49        2.395115   1.000000
   50        2.449874   1.000000
   51        2.491005   1.000000
   52        2.524487   1.000000
   53        2.545556   1.000000
   54        2.594632   1.000000
   55        2.622183   1.000000
   56        2.648201   1.000000
   57        2.673146   1.000000
   58        2.707429   1.000000
   59        2.723364   1.000000
   60        2.741572   1.000000
   61        2.787423   1.000000
   62        2.815990   1.000000
   63        2.856030   1.000000
   64        2.869881   1.000000
   65        2.911423   1.000000
   66        2.925036   1.000000
   67        2.956071   1.000000
   68        2.997671   1.000000
   69        3.031955   1.000000
   70        3.060827   1.000000
   71        3.081132   1.000000
   72        3.093087   1.000000
   73        3.123962   1.000000
   74        3.151904   1.000000
   75        3.172720   0.999999
   76        3.208332   0.999999
   77        3.241340   0.999999
   78        3.255006   0.999999
   79        3.296710   0.999999
   80        3.322236   0.999999
   81        3.349209   0.999999
   82        3.384834   0.999999
   83        3.407669   0.999999
   84        3.427475   0.999999
   85        3.466670   0.999998
   86        3.472224   0.999998
   87        3.532582   0.999998
   88        3.572554   0.999998
   89        3.616381   0.999997
   90        3.645366   0.999997
   91        3.684375   0.999997
   92        3.704753   0.999996
   93        3.726904   0.999996
   94        3.747159   0.999996
   95        3.774636   0.999995
   96        3.802821   0.999995
   97        3.829208   0.999995
   98        3.858106   0.999994
   99        3.876657   0.999994
  100        3.897054   0.999993
  101        3.913352   0.999993
  102        3.955223   0.999991
  103        3.988674   0.999990
  104        4.033839   0.999989
  105        4.066400   0.999987
  106        4.116618   0.999985
  107        4.122638   0.999984
  108        4.145711   0.999983
  109        4.189702   0.999980
  110        4.243426   0.999976
  111        4.282843   0.999972
  112        4.297533   0.999971
  113        4.336806   0.999966
  114        4.373492   0.999962
  115        4.398182   0.999958
  116        4.431010   0.999953
  117        4.458373   0.999948
  118        4.495817   0.999941
  119        4.505462   0.999939
  120        4.576047   0.999921
  121        4.590106   0.999917
  122        4.621854   0.999907
  123        4.634428   0.999903
  124        4.671502   0.999889
  125        4.710378   0.999873
  126        4.730156   0.999863
  127        4.748726   0.999854
  128        4.801295   0.999824
  129        4.833549   0.999802
  130        4.864073   0.999779
  131        4.904283   0.999745
  132        4.918039   0.999732
  133        4.940545   0.999710
  134        4.970086   0.999678
  135        5.024908   0.999608
  136        5.057782   0.999559
  137        5.101370   0.999485
  138        5.108987   0.999471
  139        5.159605   0.999366
  140        5.173130   0.999335
  141        5.211714   0.999237
  142        5.255086   0.999109
  143        5.275580   0.999041
  144        5.321442   0.998871
  145        5.372412   0.998645
  146        5.396741   0.998523
  147        5.431669   0.998327
  148        5.448764   0.998222
  149        5.463142   0.998128
  150        5.510002   0.997788
  151        5.539705   0.997541
  152        5.577744   0.997184
  153        5.611624   0.996823
  154        5.624196   0.996678
  155        5.669181   0.996101
  156        5.702383   0.995612
  157        5.735023   0.995072
  158        5.782454   0.994168
  159        5.810957   0.993547
  160        5.845329   0.992710
  161        5.859774   0.992327
  162        5.918660   0.990548
  163        5.944283   0.989652
  164        5.963596   0.988921
  165        6.026457   0.986171
  166        6.060419   0.984416
  167        6.076410   0.983515
  168        6.108527   0.981548
  169        6.142379   0.979226
  170        6.155880   0.978223
  171        6.203784   0.974264
  172        6.231387   0.971673
  173        6.270336   0.967582
  174        6.315048   0.962181
  175        6.335972   0.959366
  176        6.371789   0.954076
  177        6.397075   0.949953
  178        6.426360   0.944740
  179        6.436060   0.942903
  180        6.461444   0.937822
  181        6.522519   0.923821
  182        6.547615   0.917269
  183        6.573704   0.909918
  184        6.604586   0.900459
  185        6.620628   0.895205
  186        6.695418   0.867374
  187        6.703521   0.864010
  188        6.741569   0.847240
  189        6.770420   0.833422
  190        6.805574   0.815255
  191        6.834455   0.799212
  192        6.862314   0.782770
  193        6.901320   0.758152
  194        6.932472   0.737171
  195        6.963194   0.715367
  196        6.981065   0.702194
  197        7.019361   0.672827