   48   48  500    1
  0.1641954E+02  0.1179661E-08  0.1348515E-08  0.1113447E-08  0.3000000E-14
   3000.00000000000     
  CAR 
 Ir-Ru                                   
    408     14    350
