   48   48  500    1
  0.1694583E+02  0.7492567E-09  0.1103052E-08  0.1216163E-08  0.1500000E-14
   3000.00000000000     
  CAR 
 Ir_Ru                                   
    408    101    350
 
  0.0000000E+00  0.0000000E+00  0.0000000E+00  0.5000000E-02
    1       -1.452981   1.000000
    2       -0.298867   1.000000
    3       -0.276252   1.000000
    4        0.051477   1.000000
    5        0.214748   1.000000
    6        0.339134   1.000000
    7        0.421431   1.000000
    8        0.489943   1.000000
    9        0.591697   1.000000
   10        0.640531   1.000000
   11        0.788908   1.000000
   12        0.846998   1.000000
   13        0.886631   1.000000
   14        0.925459   1.000000
   15        0.990442   1.000000
   16        1.075656   1.000000
   17        1.093606   1.000000
   18        1.145738   1.000000
   19        1.176397   1.000000
   20        1.286391   1.000000
   21        1.294117   1.000000
   22        1.318313   1.000000
   23        1.353450   1.000000
   24        1.386521   1.000000
   25        1.407986   1.000000
   26        1.463402   1.000000
   27        1.503795   1.000000
   28        1.518742   1.000000
   29        1.565083   1.000000
   30        1.590744   1.000000
   31        1.613650   1.000000
   32        1.650622   1.000000
   33        1.680698   1.000000
   34        1.708498   1.000000
   35        1.745991   1.000000
   36        1.764692   1.000000
   37        1.813510   1.000000
   38        1.837457   1.000000
   39        1.870805   1.000000
   40        1.895330   1.000000
   41        1.935313   1.000000
   42        1.951589   1.000000
   43        1.991241   1.000000
   44        2.003395   1.000000
   45        2.044926   1.000000
   46        2.076836   1.000000
   47        2.112639   1.000000
   48        2.124620   1.000000
   49        2.169409   1.000000
   50        2.198075   1.000000
   51        2.254830   1.000000
   52        2.298019   1.000000
   53        2.317334   1.000000
   54        2.359864   1.000000
   55        2.389805   1.000000
   56        2.440845   1.000000
   57        2.449599   1.000000
   58        2.456826   1.000000
   59        2.493537   1.000000
   60        2.509712   1.000000
   61        2.544511   1.000000
   62        2.556660   1.000000
   63        2.585512   1.000000
   64        2.609569   1.000000
   65        2.636828   1.000000
   66        2.675311   1.000000
   67        2.704580   1.000000
   68        2.716111   1.000000
   69        2.738330   1.000000
   70        2.786197   1.000000
   71        2.843121   1.000000
   72        2.867563   1.000000
   73        2.878397   1.000000
   74        2.901284   1.000000
   75        2.928070   1.000000
   76        2.947837   0.999999
   77        2.980697   0.999999
   78        3.012547   0.999999
   79        3.048608   0.999999
   80        3.080278   0.999999
   81        3.084865   0.999999
   82        3.152466   0.999999
   83        3.156439   0.999999
   84        3.185268   0.999999
   85        3.246188   0.999999
   86        3.329711   0.999998
   87        3.330387   0.999998
   88        3.346649   0.999998
   89        3.378647   0.999998
   90        3.417082   0.999997
   91        3.434545   0.999997
   92        3.451756   0.999997
   93        3.489737   0.999997
   94        3.506363   0.999996
   95        3.547413   0.999996
   96        3.590550   0.999995
   97        3.602408   0.999995
   98        3.619024   0.999994
   99        3.651484   0.999994
  100        3.683612   0.999993
  101        3.709104   0.999992
  102        3.752916   0.999991
  103        3.771680   0.999991
  104        3.812532   0.999989
  105        3.849473   0.999987
  106        3.872492   0.999986
  107        3.917661   0.999984
  108        3.950498   0.999982
  109        3.973384   0.999980
  110        4.017801   0.999977
  111        4.050021   0.999974
  112        4.081964   0.999971
  113        4.092874   0.999970
  114        4.141713   0.999964
  115        4.157924   0.999962
  116        4.191287   0.999958
  117        4.217444   0.999953
  118        4.258006   0.999946
  119        4.293397   0.999939
  120        4.319639   0.999933
  121        4.349596   0.999925
  122        4.367846   0.999920
  123        4.421105   0.999903
  124        4.425211   0.999902
  125        4.460330   0.999889
  126        4.512813   0.999866
  127        4.537271   0.999854
  128        4.578568   0.999831
  129        4.626462   0.999799
  130        4.662560   0.999771
  131        4.694745   0.999744
  132        4.726215   0.999713
  133        4.756952   0.999680
  134        4.773629   0.999660
  135        4.818105   0.999602
  136        4.837933   0.999572
  137        4.869385   0.999522
  138        4.886009   0.999492
  139        4.941798   0.999381
  140        4.962872   0.999332
  141        5.006950   0.999218
  142        5.019287   0.999183
  143        5.049662   0.999090
  144        5.078086   0.998993
  145        5.095081   0.998930
  146        5.122143   0.998821
  147        5.161533   0.998643
  148        5.190397   0.998496
  149        5.232151   0.998255
  150        5.298791   0.997787
  151        5.330218   0.997525
  152        5.337715   0.997458
  153        5.363748   0.997211
  154        5.387273   0.996967
  155        5.433384   0.996426
  156        5.459468   0.996078
  157        5.473187   0.995882
  158        5.524039   0.995066
  159        5.564129   0.994311
  160        5.607095   0.993374
  161        5.653861   0.992179
  162        5.678825   0.991456
  163        5.697501   0.990872
  164        5.750391   0.988995
  165        5.801721   0.986810
  166        5.830155   0.985421
  167        5.837967   0.985014
  168        5.868476   0.983318
  169        5.929266   0.979356
  170        5.959679   0.977042
  171        5.993229   0.974195
  172        6.036234   0.970040
  173        6.052495   0.968305
  174        6.073925   0.965870
  175        6.096913   0.963057
  176        6.111532   0.961154
  177        6.140229   0.957141
  178        6.181924   0.950599
  179        6.218526   0.944086
  180        6.255352   0.936725
  181        6.280762   0.931128
  182        6.316127   0.922573
  183        6.358682   0.910996
  184        6.411985   0.894305
  185        6.476358   0.870522
  186        6.480785   0.868730
  187        6.496137   0.862350
  188        6.517286   0.853136
  189        6.560981   0.832487
  190        6.567885   0.829021
  191        6.618207   0.802022
  192        6.626440   0.797312
  193        6.657238   0.778954
  194        6.700719   0.751064
  195        6.704750   0.748363
  196        6.742784   0.721932
  197        6.811269   0.670284
  198        6.864410   0.627074
  199        6.874556   0.618561
  200        6.882344   0.611978
  201        6.918929   0.580536
  202        6.951022   0.552395
  203        6.965496   0.539582
  204        7.034784   0.477816
  205        7.054027   0.460701
  206        7.073148   0.443787
  207        7.106339   0.414754
  208        7.144207   0.382349
  209        7.166037   0.364113
  210        7.201189   0.335570
  211        7.216616   0.323399
  212        7.227949   0.314606
  213        7.237373   0.307394
  214        7.283748   0.273298
  215        7.330267   0.241570
  216        7.342471   0.233674
  217        7.392053   0.203469
  218        7.430208   0.182273
  219        7.451960   0.170978
  220        7.475733   0.159278
  221        7.531696   0.134298
  222        7.547831   0.127738
  223        7.564410   0.121285
  224        7.585131   0.113617
  225        7.598494   0.108898
  226        7.638472   0.095797
  227        7.643452   0.094267
  228        7.690527   0.080859
  229        7.730353   0.070899
  230        7.744517   0.067638
  231        7.768521   0.062428
  232        7.789263   0.058230
  233        7.821027   0.052312
  234        7.847744   0.047778
  235        7.879652   0.042853
  236        7.909064   0.038746
  237        7.927723   0.036338
  238        7.993644   0.028936
  239        8.012871   0.027068
  240        8.039413   0.024680
  241        8.063575   0.022686
  242        8.095592   0.020285
  243        8.133965   0.017733
  244        8.174244   0.015394
  245        8.220538   0.013078
  246        8.247569   0.011889
  247        8.292015   0.010162
  248        8.330768   0.008860
  249        8.348999   0.008306
  250        8.475142   0.005310
  251        8.481172   0.005197
  252        8.494668   0.004954
  253        8.539373   0.004226
  254        8.615245   0.003226
  255        8.686534   0.002503
  256        8.706895   0.002328
  257        8.798760   0.001678
  258        8.891439   0.001205
  259        9.040003   0.000709
  260        9.189494   0.000416
  261        9.255203   0.000329
  262        9.320687   0.000260
  263        9.437323   0.000172
  264        9.482267   0.000146
  265        9.506389   0.000134
  266        9.646763   0.000081
  267        9.682754   0.000071
  268        9.871888   0.000036
  269        9.934450   0.000029
  270       10.097075   0.000016
  271       10.172033   0.000012
  272       10.470128   0.000004
  273       10.549779   0.000003
  274       10.645484   0.000002
  275       10.863476   0.000001
  276       11.012962   0.000001
  277       11.138016   0.000000
  278       11.143983   0.000000
  279       11.424828   0.000000
  280       11.496736   0.000000
  281       11.574028   0.000000
  282       11.867638   0.000000
  283       12.005228   0.000000
  284       12.125810   0.000000
  285       12.440923   0.000000
  286       12.599571   0.000000
  287       12.936826   0.000000
  288       13.324480   0.000000
  289       13.430058   0.000000
  290       13.659645   0.000000
  291       13.778155   0.000000
  292       13.802751   0.000000
  293       14.124004   0.000000
  294       14.309575   0.000000
  295       14.428404   0.000000
  296       14.565360   0.000000
  297       14.633006   0.000000
  298       14.817137   0.000000
  299       14.905525   0.000000
  300       14.963028   0.000000
  301       15.179682   0.000000
  302       15.305337   0.000000
  303       15.478779   0.000000
  304       15.539399   0.000000
  305       15.813749   0.000000
  306       15.908298   0.000000
  307       16.019847   0.000000
  308       16.156959   0.000000
  309       16.203048   0.000000
  310       16.283807   0.000000
  311       16.392573   0.000000
  312       16.472400   0.000000
  313       16.525470   0.000000
  314       16.635463   0.000000
  315       16.757522   0.000000
  316       16.797602   0.000000
  317       16.964002   0.000000
  318       17.075676   0.000000
  319       17.111763   0.000000
  320       17.215534   0.000000
  321       17.265739   0.000000
  322       17.332356   0.000000
  323       17.436551   0.000000
  324       17.537708   0.000000
  325       17.658525   0.000000
  326       17.689277   0.000000
  327       17.765539   0.000000
  328       17.881861   0.000000
  329       18.024177   0.000000
  330       18.193278   0.000000
  331       18.292890   0.000000
  332       18.386475   0.000000
  333       18.435814   0.000000
  334       18.491685   0.000000
  335       18.581922   0.000000
  336       18.651437   0.000000
  337       18.749297   0.000000
  338       18.843443   0.000000
  339       19.009539   0.000000
  340       19.110796   0.000000
  341       19.158437   0.000000
  342       19.256038   0.000000
  343       19.381180   0.000000
  344       19.431003   0.000000
  345       19.644589   0.000000
  346       19.776439   0.000000
  347       19.831581   0.000000
  348       19.994873   0.000000
  349       20.049617   0.000000
  350       20.160148   0.000000
 
  0.1250000E+00  0.0000000E+00 -0.1387779E-16  0.1000000E-01
    1       -1.396828   1.000000
    2       -0.292443   1.000000
    3       -0.263763   1.000000
    4        0.051543   1.000000
    5        0.213365   1.000000
    6        0.347837   1.000000
    7        0.419855   1.000000
    8        0.505229   1.000000
    9        0.579932   1.000000
   10        0.631025   1.000000
   11        0.774603   1.000000
   12        0.820502   1.000000
   13        0.869020   1.000000
   14        0.913352   1.000000
   15        1.011499   1.000000
   16        1.055261   1.000000
   17        1.102396   1.000000
   18        1.145440   1.000000
   19        1.197671   1.000000
   20        1.255770   1.000000
   21        1.281322   1.000000
   22        1.319816   1.000000
   23        1.352724   1.000000
   24        1.365504   1.000000
   25        1.415594   1.000000
   26        1.460226   1.000000
   27        1.489349   1.000000
   28        1.518666   1.000000
   29        1.557995   1.000000
   30        1.584158   1.000000
   31        1.612263   1.000000
   32        1.646917   1.000000
   33        1.700929   1.000000
   34        1.708809   1.000000
   35        1.755293   1.000000
   36        1.763439   1.000000
   37        1.799870   1.000000
   38        1.826481   1.000000
   39        1.859288   1.000000
   40        1.888759   1.000000
   41        1.909291   1.000000
   42        1.949297   1.000000
   43        1.974834   1.000000
   44        2.015254   1.000000
   45        2.046441   1.000000
   46        2.082715   1.000000
   47        2.130304   1.000000
   48        2.148833   1.000000
   49        2.178177   1.000000
   50        2.216387   1.000000
   51        2.253774   1.000000
   52        2.275084   1.000000
   53        2.318935   1.000000
   54        2.341241   1.000000
   55        2.376863   1.000000
   56        2.399913   1.000000
   57        2.433587   1.000000
   58        2.459161   1.000000
   59        2.476434   1.000000
   60        2.516627   1.000000
   61        2.539357   1.000000
   62        2.565580   1.000000
   63        2.600091   1.000000
   64        2.632233   1.000000
   65        2.645202   1.000000
   66        2.677595   1.000000
   67        2.697288   1.000000
   68        2.737590   1.000000
   69        2.742182   1.000000
   70        2.801712   1.000000
   71        2.815924   1.000000
   72        2.857362   1.000000
   73        2.878807   1.000000
   74        2.919351   1.000000
   75        2.927576   1.000000
   76        2.959520   0.999999
   77        2.974773   0.999999
   78        3.022856   0.999999
   79        3.045936   0.999999
   80        3.075497   0.999999
   81        3.096815   0.999999
   82        3.130684   0.999999
   83        3.167998   0.999999
   84        3.188017   0.999999
   85        3.245654   0.999999
   86        3.269004   0.999998
   87        3.309666   0.999998
   88        3.343759   0.999998
   89        3.374879   0.999998
   90        3.404510   0.999997
   91        3.435805   0.999997
   92        3.471666   0.999997
   93        3.489733   0.999997
   94        3.512331   0.999996
   95        3.542466   0.999996
   96        3.571205   0.999995
   97        3.591313   0.999995
   98        3.634129   0.999994
   99        3.677768   0.999993
  100        3.699416   0.999993
  101        3.726855   0.999992
  102        3.765621   0.999991
  103        3.796348   0.999990
  104        3.814986   0.999989
  105        3.864593   0.999987
  106        3.890492   0.999985
  107        3.920723   0.999984
  108        3.945198   0.999982
  109        3.978393   0.999980
  110        4.016628   0.999977
  111        4.025004   0.999977
  112        4.059526   0.999973
  113        4.087413   0.999971
  114        4.099000   0.999969
  115        4.137911   0.999965
  116        4.190714   0.999958
  117        4.202671   0.999956
  118        4.257517   0.999946
  119        4.299404   0.999938
  120        4.331854   0.999930
  121        4.348986   0.999925
  122        4.371062   0.999919
  123        4.423209   0.999903
  124        4.445567   0.999895
  125        4.476946   0.999882
  126        4.522297   0.999861
  127        4.548359   0.999848
  128        4.571258   0.999835
  129        4.634873   0.999793
  130        4.676231   0.999760
  131        4.709531   0.999730
  132        4.723487   0.999716
  133        4.748391   0.999689
  134        4.768477   0.999666
  135        4.785874   0.999645
  136        4.814785   0.999606
  137        4.865372   0.999528
  138        4.912833   0.999441
  139        4.937747   0.999390
  140        4.958010   0.999344
  141        5.003524   0.999228
  142        5.014267   0.999198
  143        5.042193   0.999114
  144        5.066440   0.999034
  145        5.106284   0.998886
  146        5.133355   0.998773
  147        5.172060   0.998591
  148        5.216818   0.998348
  149        5.249279   0.998145
  150        5.259532   0.998076
  151        5.312776   0.997674
  152        5.348228   0.997361
  153        5.357969   0.997268
  154        5.390800   0.996929
  155        5.435183   0.996403
  156        5.459279   0.996081
  157        5.483493   0.995729
  158        5.520050   0.995136
  159        5.591621   0.993728
  160        5.617692   0.993120
  161        5.657714   0.992071
  162        5.683201   0.991322
  163        5.713520   0.990340
  164        5.735747   0.989550
  165        5.799139   0.986929
  166        5.846486   0.984558
  167        5.859288   0.983848
  168        5.899483   0.981401
  169        5.917788   0.980169
  170        5.961919   0.976862
  171        5.966951   0.976452
  172        6.014101   0.972253
  173        6.026422   0.971041
  174        6.063317   0.967097
  175        6.103685   0.962187
  176        6.123312   0.959552
  177        6.143465   0.956665
  178        6.208943   0.945866
  179        6.223338   0.943172
  180        6.250493   0.937745
  181        6.259162   0.935913
  182        6.325462   0.920158
  183        6.350753   0.913265
  184        6.408199   0.895576
  185        6.428347   0.888653
  186        6.467301   0.874125
  187        6.492916   0.863710
  188        6.528545   0.848026
  189        6.558948   0.833497
  190        6.588192   0.818494
  191        6.603707   0.810116
  192        6.633130   0.793423
  193        6.675115   0.767766
  194        6.705123   0.748111
  195        6.716752   0.740205
  196        6.776098   0.697429
  197        6.818878   0.664252
  198        6.837729   0.649075
  199        6.864014   0.627404
  200        6.888520   0.606727
  201        6.920506   0.579164
  202        6.941737   0.560580
  203        6.988260   0.519331
  204        7.014230   0.496153
  205        7.047978   0.466073
  206        7.066141   0.449972
  207        7.085305   0.433097
  208        7.116279   0.406163
  209        7.143028   0.383343
  210        7.164681   0.365235
  211        7.222003   0.319204
  212        7.245817   0.301012
  213        7.252231   0.296214
  214        7.291561   0.267792
  215        7.325702   0.244570
  216        7.333170   0.239676
  217        7.374528   0.213801
  218        7.436025   0.179197
  219        7.446064   0.173984
  220        7.489013   0.153029
  221        7.510260   0.143450
  222        7.528769   0.135518
  223        7.567890   0.119967
  224        7.584521   0.113836
  225        7.605805   0.106390
  226        7.616989   0.102652
  227        7.648623   0.092702
  228        7.679772   0.083760
  229        7.706340   0.076760
  230        7.727473   0.071579
  231        7.766358   0.062881
  232        7.798506   0.056446
  233        7.837979   0.049390
  234        7.864270   0.045164
  235        7.885218   0.042045
  236        7.911735   0.038392
  237        7.930110   0.036041
  238        7.969699   0.031439
  239        8.003808   0.027934
  240        8.047431   0.024000
  241        8.100808   0.019918
  242        8.112052   0.019149
  243        8.145126   0.017052
  244        8.189516   0.014588
  245        8.236194   0.012376
  246        8.272974   0.010869
  247        8.300147   0.009874
  248        8.357514   0.008059
  249        8.368852   0.007742
  250        8.402444   0.006873
  251        8.477832   0.005259
  252        8.511253   0.004670
  253        8.619959   0.003172
  254        8.674859   0.002609
  255        8.690634   0.002466
  256        8.757266   0.001945
  257        8.843800   0.001429
  258        8.919903   0.001089
  259        9.041317   0.000706
  260        9.135665   0.000504
  261        9.250305   0.000335
  262        9.324963   0.000257
  263        9.389413   0.000204
  264        9.469731   0.000153
  265        9.539750   0.000119
  266        9.622366   0.000089
  267        9.726650   0.000061
  268        9.856002   0.000039
  269        9.904703   0.000032
  270       10.112134   0.000015
  271       10.257058   0.000009
  272       10.425155   0.000005
  273       10.479278   0.000004
  274       10.588007   0.000003
  275       10.756012   0.000002
  276       11.038928   0.000001
  277       11.179731   0.000000
  278       11.331351   0.000000
  279       11.453913   0.000000
  280       11.541301   0.000000
  281       11.714712   0.000000
  282       11.846194   0.000000
  283       12.206756   0.000000
  284       12.292808   0.000000
  285       12.631911   0.000000
  286       12.823548   0.000000
  287       13.021535   0.000000
  288       13.291187   0.000000
  289       13.430668   0.000000
  290       13.536339   0.000000
  291       13.703057   0.000000
  292       13.844797   0.000000
  293       13.930496   0.000000
  294       14.136631   0.000000
  295       14.299224   0.000000
  296       14.395780   0.000000
  297       14.671824   0.000000
  298       14.714784   0.000000
  299       14.855791   0.000000
  300       14.999947   0.000000
  301       15.039552   0.000000
  302       15.247458   0.000000
  303       15.375701   0.000000
  304       15.523652   0.000000
  305       15.636226   0.000000
  306       15.771434   0.000000
  307       15.892725   0.000000
  308       15.996682   0.000000
  309       16.102857   0.000000
  310       16.128318   0.000000
  311       16.301986   0.000000
  312       16.356032   0.000000
  313       16.435946   0.000000
  314       16.621004   0.000000
  315       16.675687   0.000000
  316       16.815770   0.000000
  317       16.830553   0.000000
  318       16.906907   0.000000
  319       17.087861   0.000000
  320       17.154127   0.000000
  321       17.244053   0.000000
  322       17.374434   0.000000
  323       17.524120   0.000000
  324       17.551297   0.000000
  325       17.611136   0.000000
  326       17.694443   0.000000
  327       17.847788   0.000000
  328       17.932383   0.000000
  329       18.156450   0.000000
  330       18.237539   0.000000
  331       18.381783   0.000000
  332       18.420346   0.000000
  333       18.522421   0.000000
  334       18.599466   0.000000
  335       18.681967   0.000000
  336       18.747507   0.000000
  337       18.864441   0.000000
  338       18.991228   0.000000
  339       19.013857   0.000000
  340       19.113611   0.000000
  341       19.170038   0.000000
  342       19.252941   0.000000
  343       19.398695   0.000000
  344       19.466298   0.000000
  345       19.649036   0.000000
  346       19.725623   0.000000
  347       19.808355   0.000000
  348       19.949605   0.000000
  349       20.024786   0.000000
  350       20.189531   0.000000
 
  0.2500000E+00  0.0000000E+00 -0.2775558E-16  0.1000000E-01
    1       -1.236894   1.000000
    2       -0.299202   1.000000
    3       -0.221556   1.000000
    4        0.049413   1.000000
    5        0.199704   1.000000
    6        0.347498   1.000000
    7        0.442722   1.000000
    8        0.526911   1.000000
    9        0.553081   1.000000
   10        0.617037   1.000000
   11        0.719167   1.000000
   12        0.795361   1.000000
   13        0.839359   1.000000
   14        0.883428   1.000000
   15        0.984683   1.000000
   16        1.049859   1.000000
   17        1.113632   1.000000
   18        1.154061   1.000000
   19        1.181603   1.000000
   20        1.223081   1.000000
   21        1.237180   1.000000
   22        1.303918   1.000000
   23        1.349462   1.000000
   24        1.367434   1.000000
   25        1.401439   1.000000
   26        1.444813   1.000000
   27        1.482522   1.000000
   28        1.499647   1.000000
   29        1.533448   1.000000
   30        1.574038   1.000000
   31        1.610388   1.000000
   32        1.640314   1.000000
   33        1.692881   1.000000
   34        1.704550   1.000000
   35        1.771182   1.000000
   36        1.790617   1.000000
   37        1.823150   1.000000
   38        1.829037   1.000000
   39        1.853332   1.000000
   40        1.884484   1.000000
   41        1.921622   1.000000
   42        1.948678   1.000000
   43        1.987970   1.000000
   44        2.007709   1.000000
   45        2.037191   1.000000
   46        2.068441   1.000000
   47        2.116736   1.000000
   48        2.153109   1.000000
   49        2.185086   1.000000
   50        2.191814   1.000000
   51        2.240053   1.000000
   52        2.267257   1.000000
   53        2.305563   1.000000
   54        2.320504   1.000000
   55        2.340182   1.000000
   56        2.368804   1.000000
   57        2.408344   1.000000
   58        2.436019   1.000000
   59        2.468425   1.000000
   60        2.521556   1.000000
   61        2.553896   1.000000
   62        2.577758   1.000000
   63        2.608703   1.000000
   64        2.637562   1.000000
   65        2.655742   1.000000
   66        2.682503   1.000000
   67        2.715862   1.000000
   68        2.729114   1.000000
   69        2.772830   1.000000
   70        2.803030   1.000000
   71        2.825516   1.000000
   72        2.857644   1.000000
   73        2.878042   1.000000
   74        2.911754   1.000000
   75        2.952637   0.999999
   76        2.967733   0.999999
   77        3.003032   0.999999
   78        3.021849   0.999999
   79        3.057315   0.999999
   80        3.079896   0.999999
   81        3.095779   0.999999
   82        3.134046   0.999999
   83        3.157257   0.999999
   84        3.195510   0.999999
   85        3.223490   0.999999
   86        3.273772   0.999998
   87        3.306194   0.999998
   88        3.336429   0.999998
   89        3.366819   0.999998
   90        3.391627   0.999998
   91        3.417270   0.999997
   92        3.444317   0.999997
   93        3.484628   0.999997
   94        3.518331   0.999996
   95        3.531816   0.999996
   96        3.548124   0.999996
   97        3.603913   0.999995
   98        3.649424   0.999994
   99        3.678381   0.999993
  100        3.708129   0.999992
  101        3.749892   0.999991
  102        3.788609   0.999990
  103        3.813101   0.999989
  104        3.843285   0.999988
  105        3.872147   0.999986
  106        3.883271   0.999986
  107        3.898529   0.999985
  108        3.951481   0.999982
  109        3.969549   0.999981
  110        3.987667   0.999979
  111        4.040387   0.999975
  112        4.047248   0.999975
  113        4.088589   0.999971
  114        4.127530   0.999966
  115        4.149063   0.999963
  116        4.187225   0.999958
  117        4.220997   0.999953
  118        4.250975   0.999947
  119        4.263183   0.999945
  120        4.320242   0.999933
  121        4.348641   0.999925
  122        4.392393   0.999913
  123        4.405317   0.999909
  124        4.466672   0.999886
  125        4.493165   0.999875
  126        4.521594   0.999862
  127        4.549823   0.999847
  128        4.588619   0.999824
  129        4.630622   0.999796
  130        4.650486   0.999781
  131        4.690449   0.999747
  132        4.705286   0.999734
  133        4.734510   0.999704
  134        4.749867   0.999688
  135        4.797870   0.999629
  136        4.825812   0.999591
  137        4.867681   0.999525
  138        4.887857   0.999489
  139        4.942059   0.999380
  140        4.973145   0.999307
  141        4.990516   0.999263
  142        5.014671   0.999197
  143        5.043438   0.999110
  144        5.078251   0.998992
  145        5.121807   0.998823
  146        5.158688   0.998657
  147        5.177232   0.998565
  148        5.186094   0.998519
  149        5.216017   0.998352
  150        5.248657   0.998149
  151        5.293570   0.997828
  152        5.350953   0.997335
  153        5.373165   0.997116
  154        5.403719   0.996784
  155        5.471134   0.995912
  156        5.489895   0.995630
  157        5.506389   0.995366
  158        5.537127   0.994831
  159        5.578957   0.994004
  160        5.617297   0.993130
  161        5.638539   0.992592
  162        5.666010   0.991835
  163        5.714518   0.990305
  164        5.743429   0.989262
  165        5.823008   0.985783
  166        5.844742   0.984653
  167        5.861386   0.983728
  168        5.913781   0.980445
  169        5.924156   0.979722
  170        5.955754   0.977354
  171        5.962079   0.976849
  172        6.010158   0.972631
  173        6.027825   0.970900
  174        6.058370   0.967654
  175        6.092723   0.963586
  176        6.125563   0.959239
  177        6.155619   0.954829
  178        6.183650   0.950309
  179        6.213157   0.945090
  180        6.262775   0.935135
  181        6.283782   0.930433
  182        6.329088   0.919202
  183        6.370812   0.907420
  184        6.399999   0.898283
  185        6.425205   0.889758
  186        6.461222   0.876494
  187        6.481280   0.868528
  188        6.547806   0.838947
  189        6.551155   0.837324
  190        6.567713   0.829108
  191        6.594429   0.815161
  192        6.645559   0.786053
  193        6.679862   0.764729
  194        6.725064   0.734456
  195        6.749670   0.716967
  196        6.772864   0.699861
  197        6.793803   0.683921