Ir_Ru                                   
           1
     5.472881    2.124291   -4.383909
     5.331955    7.942296    5.174572
     9.701417   -3.233806    6.467611
   Ir   Ru
  24  24
Direct configuration=     1
   0.80998743  0.33329935  0.39660699
   0.22264068  0.68987099  0.07707331
   0.42711540  0.88070556  0.05324374
   0.49666998  0.03975250  0.14309755
   0.77269520  0.61001902  0.39086363
   0.18633803  0.20853472  0.49652689
   0.57603255  0.36211944  0.54745881
   0.75789520  0.10884761  0.70915631
   0.71114923  0.66177053  0.90228997
   0.87923426  0.06972007  0.15210661
   0.35124177  0.20028008  0.24913740
   0.97066736  0.81041628  0.30507939
   0.18486580  0.04460846  0.71817071
   0.57920226  0.72052561  0.69802408
   0.97811300  0.85041592  0.81547801
   0.91173264  0.32967894  0.60584038
   0.41969944  0.38735066  0.74559059
   0.74124368  0.47049629  0.72810271
   0.36363629  0.66503152  0.26421800
   0.39218651  0.08684363  0.84853045
   0.75726168  0.16978914  0.30173662
   0.62797152  0.94618832  0.37720918
   0.56656811  0.05302505  0.56671590
   0.24137346  0.66856692  0.73046896
   0.73812804  0.21195653  0.92788388
   0.97041379  0.34349751  0.16592717
   0.72650845  0.55417158  0.19311964
   0.88119758  0.68663285  0.54355406
   0.87507021  0.85436429  0.64213585
   0.07748147  0.06158539  0.37098643
   0.19642147  0.96913903  0.22659452
   0.48001771  0.49115701  0.92410797
   0.43194957  0.80117769  0.86593154
   0.01933824  0.57304202  0.02440206
   0.45023944  0.31654986  0.38806948
   0.85760601  0.77722085  0.08415333
   0.10178918  0.47263595  0.30705162
   0.06151427  0.24254941  0.84949602
   0.16791496  0.78464684  0.48100503
   0.22703783  0.28884699  0.00172361
   0.83419646  0.41411348  0.98886213
   0.69178355  0.00293911  0.94070984
   0.07864049  0.94938593  0.98108257
   0.42546522  0.40606199  0.16266982
   0.47403078  0.60343404  0.55065568
   0.28548231  0.93873538  0.55472744
   0.22251109  0.49406618  0.49179409
   0.06088738  0.52053132  0.79149715
Ir_Ru                                   
           1
     5.478613    2.124384   -4.379560
     5.332309    7.943191    5.174977
     9.702850   -3.234283    6.468567
   Ir   Ru
  24  24
Direct configuration=     2
   0.80977181  0.33305787  0.39662629
   0.22142049  0.69118489  0.07685488
   0.42727076  0.88077975  0.05432378
   0.49654085  0.03956362  0.14268265
   0.77259033  0.60975786  0.39102610
   0.18454448  0.20900800  0.49653476
   0.57643070  0.36271812  0.54647231
   0.75789940  0.10876346  0.70969496
   0.71082191  0.66218288  0.90181753
   0.87859729  0.06902565  0.15203914
   0.35043000  0.20031463  0.24957213
   0.97061523  0.81013148  0.30485711
   0.18424672  0.04442224  0.71860855
   0.57902147  0.72057330  0.69798481
   0.97795445  0.85166465  0.81532649
   0.91173107  0.32921405  0.60554390
   0.41936203  0.38696687  0.74567967
   0.74039879  0.47115594  0.72806069
   0.36253795  0.66462402  0.26511701
   0.39312324  0.08744079  0.84753241
   0.75667853  0.16981012  0.30190497
   0.62823365  0.94628851  0.37783420
   0.56794801  0.05351282  0.56652094
   0.24195965  0.66871727  0.73006944
   0.73858420  0.21258995  0.92826104
   0.96961875  0.34333262  0.16493561
   0.72627829  0.55599458  0.19226970
   0.88140844  0.68765270  0.54417677
   0.87425094  0.85339754  0.64319557
   0.07869887  0.06022910  0.37087481
   0.19508930  0.97042032  0.22626036
   0.47883073  0.49053823  0.92329764
   0.43259667  0.80120043  0.86541163
   0.01847528  0.57325561  0.02376486
   0.45025973  0.31678352  0.38706534
   0.85777071  0.77738133  0.08417314
   0.10116169  0.47323203  0.30653911
   0.06207192  0.24178177  0.84960307
   0.16821521  0.78653461  0.48001699
   0.22716096  0.28815714  0.00106744
   0.83208694  0.41313813  0.98913449
   0.69124750  0.00272344  0.94152080
   0.07891688  0.94915779  0.98127743
   0.42452973  0.40580898  0.16302550
   0.47578078  0.60373132  0.55099886
   0.28655767  0.93811701  0.55455167
   0.22106208  0.49448930  0.49154392
   0.06168194  0.52082385  0.79084270
Ir_Ru                                   
           1
     5.484309    2.124523   -4.375154
     5.332672    7.944054    5.175383
     9.704243   -3.234748    6.469495
   Ir   Ru
  24  24
Direct configuration=     3
   0.80961797  0.33280995  0.39661946
   0.22021745  0.69248759  0.07664252
   0.42742495  0.88083221  0.05542332
   0.49645011  0.03937374  0.14226101
   0.77248415  0.60949326  0.39118608
   0.18274792  0.20948047  0.49652501
   0.57677646  0.36331590  0.54550945
   0.75790091  0.10868556  0.71022463
   0.71057551  0.66258510  0.90135087
   0.87793868  0.06833919  0.15194927
   0.34959431  0.20031306  0.25002758
   0.97055036  0.80982340  0.30464202
   0.18361533  0.04423685  0.71906305
   0.57884351  0.72063222  0.69792091
   0.97780715  0.85290370  0.81519930
   0.91174162  0.32875057  0.60524839
   0.41901662  0.38656907  0.74579225
   0.73956794  0.47180223  0.72803117
   0.36143757  0.66420622  0.26602481
   0.39404316  0.08805316  0.84650864
   0.75605799  0.16983757  0.30209087
   0.62848655  0.94638624  0.37846078
   0.56932135  0.05399733  0.56632252
   0.24257598  0.66890803  0.72965780
   0.73901640  0.21325233  0.92863967
   0.96888472  0.34309960  0.16401164
   0.72602012  0.55782598  0.19142277
   0.88160167  0.68865803  0.54480249
   0.87341638  0.85244582  0.64422488
   0.07992827  0.05889112  0.37079262
   0.19378566  0.97168424  0.22592154
   0.47762832  0.48991824  0.92247784
   0.43304531  0.80131500  0.86489899
   0.01764987  0.57348873  0.02309852
   0.45030016  0.31703834  0.38606673
   0.85792079  0.77753015  0.08422407
   0.10053804  0.47383436  0.30601577
   0.06262449  0.24103761  0.84969838
   0.16852407  0.78841292  0.47902375
   0.22730657  0.28746669  0.00040561
   0.82996798  0.41211522  0.98938341
   0.69077263  0.00249882  0.94232473
   0.07919472  0.94897367  0.98143983
   0.42363191  0.40565933  0.16331419
   0.47753164  0.60405759  0.55132262
   0.28766225  0.93748116  0.55438222
   0.21960109  0.49492029  0.49130168
   0.06238469  0.52104621  0.79021673
Ir_Ru                                   
           1
     5.489968    2.124709   -4.370695
     5.333047    7.944882    5.175792
     9.705596   -3.235199    6.470397
   Ir   Ru
  24  24
Direct configuration=     4
   0.80952782  0.33255568  0.39658411
   0.21903298  0.69377718  0.07643708
   0.42757583  0.88086355  0.05654011
   0.49639761  0.03918417  0.14183356
   0.77237736  0.60922531  0.39134353
   0.18095245  0.20995094  0.49649711
   0.57706659  0.36391355  0.54457206
   0.75789880  0.10861471  0.71074528
   0.71041263  0.66297415  0.90089088
   0.87725706  0.06766159  0.15183768
   0.34873562  0.20027472  0.25050336
   0.97047318  0.80949167  0.30443459
   0.18297248  0.04405303  0.71953287
   0.57866801  0.72070292  0.69783207
   0.97767112  0.85413210  0.81509666
   0.91176217  0.32828985  0.60495497
   0.41866420  0.38615744  0.74592736
   0.73875259  0.47243384  0.72801398
   0.36033548  0.66377820  0.26694065
   0.39494722  0.08867812  0.84546157
   0.75540239  0.16987084  0.30229404
   0.62873024  0.94648126  0.37908882
   0.57068756  0.05447895  0.56612049
   0.24322081  0.66913952  0.72923401
   0.73942398  0.21394187  0.92901840
   0.96820926  0.34280150  0.16315439
   0.72573469  0.55966232  0.19058118
   0.88177893  0.68964749  0.54542933
   0.87256712  0.85150988  0.64522458
   0.08116371  0.05757641  0.37073997
   0.19251227  0.97292915  0.22557578
   0.47641097  0.48929695  0.92164953
   0.43329235  0.80152370  0.86439471
   0.01686413  0.57374074  0.02240383
   0.45035700  0.31731335  0.38507715
   0.85805558  0.77766711  0.08430630
   0.09991819  0.47444285  0.30548173
   0.06317084  0.24031786  0.84978139
   0.16884261  0.79027480  0.47802871
   0.22747481  0.28677584  0.99973819
   0.82783895  0.41105006  0.98960689
   0.69035933  0.00226769  0.94312034
   0.07947301  0.94883649  0.98156881
   0.42277143  0.40561411  0.16353331
   0.47928116  0.60441222  0.55162677
   0.28879642  0.93683117  0.55421967
   0.21812943  0.49535909  0.49106739
   0.06299440  0.52119832  0.78961992
Ir_Ru                                   
           1
     5.495590    2.124940   -4.366183
     5.333435    7.945674    5.176204
     9.706908   -3.235636    6.471272
   Ir   Ru
  24  24
Direct configuration=     5
   0.80950338  0.33229529  0.39651810
   0.21786937  0.69505125  0.07623928
   0.42772215  0.88087414  0.05767211
   0.49638254  0.03899630  0.14140111
   0.77227016  0.60895416  0.39149848
   0.17916277  0.21041821  0.49645066
   0.57729791  0.36451204  0.54366169
   0.75789222  0.10855157  0.71125698
   0.71033498  0.66334749  0.90043836
   0.87655136  0.06699326  0.15170511
   0.34785482  0.20019923  0.25099910
   0.97038415  0.80913641  0.30423529
   0.18231925  0.04387173  0.72001634
   0.57849468  0.72078571  0.69771809
   0.97754637  0.85534836  0.81501893
   0.91179069  0.32783296  0.60466486
   0.41830581  0.38573232  0.74608388
   0.73795477  0.47304899  0.72800890
   0.35923180  0.66334008  0.26786350
   0.39583686  0.08931362  0.84439284
   0.75471387  0.16990917  0.30251423
   0.62896478  0.94657334  0.37971780
   0.57204562  0.05495818  0.56591482
   0.24389203  0.66941151  0.72879850
   0.73980562  0.21465748  0.92939643
   0.96759034  0.34244145  0.16236277
   0.72542312  0.56149995  0.18974688
   0.88194158  0.69061988  0.54605443
   0.87170372  0.85058995  0.64619613
   0.08239834  0.05629154  0.37071731
   0.19127157  0.97415346  0.22522086
   0.47517867  0.48867354  0.92081424
   0.43333509  0.80182803  0.86390024
   0.01611959  0.57401100  0.02168137
   0.45042729  0.31760781  0.38410057
   0.85817421  0.77779204  0.08442008
   0.09930211  0.47505760  0.30493684
   0.06371055  0.23962383  0.84985117
   0.16917158  0.79211391  0.47703495
   0.22766503  0.28608473  0.99906554
   0.82569990  0.40994738  0.98980374
   0.69000828  0.00203266  0.94390591
   0.07975095  0.94874923  0.98166352
   0.42194764  0.40567381  0.16368048
   0.48102670  0.60479409  0.55191126
   0.28995919  0.93617082  0.55406444
   0.21664799  0.49580541  0.49084116
   0.06350984  0.52128079  0.78905282
Ir_Ru                                   
           1
     5.501172    2.125215   -4.361621
     5.333839    7.946426    5.176621
     9.708178   -3.236059    6.472119
   Ir   Ru
  24  24
Direct configuration=     6
   0.80954631  0.33202888  0.39641958
   0.21672865  0.69630687  0.07604999
   0.42786252  0.88086408  0.05881752
   0.49640439  0.03881137  0.14096451
   0.77216302  0.60867998  0.39165084
   0.17738236  0.21088113  0.49638515
   0.57746731  0.36511244  0.54277978
   0.75788034  0.10849720  0.71175942
   0.71034343  0.66370325  0.89999371
   0.87582038  0.06633455  0.15155247
   0.34695285  0.20008645  0.25151448
   0.97028388  0.80875765  0.30404465
   0.18165667  0.04369402  0.72051182
   0.57832316  0.72088115  0.69757905
   0.97743253  0.85655123  0.81496614
   0.91182440  0.32738147  0.60437929
   0.41794233  0.38529382  0.74626086
   0.73717631  0.47364620  0.72801578
   0.35812658  0.66289230  0.26879245
   0.39671321  0.08995776  0.84330438
   0.75399499  0.16995178  0.30275090
   0.62919018  0.94666236  0.38034765
   0.57339451  0.05543513  0.56570555
   0.24458717  0.66972356  0.72835158
   0.74015992  0.21539733  0.92977274
   0.96702588  0.34202252  0.16163519
   0.72508643  0.56333544  0.18892205
   0.88209108  0.69157479  0.54667569
   0.87082615  0.84968625  0.64714058
   0.08362527  0.05504246  0.37072529
   0.19006608  0.97535528  0.22485421
   0.47393216  0.48804830  0.91997270
   0.43317301  0.80222869  0.86341709
   0.01541773  0.57429886  0.02093199
   0.45050765  0.31792083  0.38314025
   0.85827557  0.77790470  0.08456554
   0.09868961  0.47567832  0.30438105
   0.06424275  0.23895618  0.84990715
   0.16951334  0.79392357  0.47604530
   0.22787693  0.28539316  0.99838799
   0.82355250  0.40881253  0.98997280
   0.68972002  0.00179635  0.94467962
   0.08002763  0.94871478  0.98172326
   0.42115971  0.40583841  0.16375379
   0.48276664  0.60520234  0.55217607
   0.29115076  0.93550316  0.55391700
   0.21515812  0.49625896  0.49062352
   0.06393085  0.52129455  0.78851552
Ir_Ru                                   
           1
     5.506716    2.125536   -4.357012
     5.334259    7.947136    5.177043
     9.709407   -3.236469    6.472938
   Ir   Ru
  24  24
Direct configuration=     7
   0.80965781  0.33175660  0.39628666
   0.21561291  0.69754167  0.07587009
   0.42799547  0.88083337  0.05997461
   0.49646218  0.03863090  0.14052451
   0.77205644  0.60840302  0.39180047
   0.17561546  0.21133829  0.49629999
   0.57757189  0.36571539  0.54192766
   0.75786229  0.10845268  0.71225211
   0.71043775  0.66404002  0.89955743
   0.87506268  0.06568603  0.15138071
   0.34603128  0.19993673  0.25204869
   0.97017242  0.80835553  0.30386298
   0.18098642  0.04352083  0.72101763
   0.57815308  0.72098968  0.69741514
   0.97732987  0.85773950  0.81493827
   0.91186082  0.32693709  0.60409939
   0.41757506  0.38484236  0.74645705
   0.73641915  0.47422383  0.72803467
   0.35702028  0.66243495  0.26972687
   0.39757687  0.09060860  0.84219837
   0.75324779  0.16999813  0.30300352
   0.62940648  0.94674848  0.38097801
   0.57473392  0.05591000  0.56549281
   0.24530301  0.67007550  0.72789380
   0.74048554  0.21616003  0.93014637
   0.96651454  0.34154827  0.16096976
   0.72472494  0.56516499  0.18810866
   0.88222967  0.69251038  0.54729074
   0.86993442  0.84879944  0.64805954
   0.08483705  0.05383529  0.37076490
   0.18889753  0.97653346  0.22447265
   0.47267249  0.48742078  0.91912642
   0.43280674  0.80272539  0.86294639
   0.01475943  0.57460300  0.02015726
   0.45059516  0.31825134  0.38219838
   0.85835884  0.77800504  0.08474266
   0.09808078  0.47630511  0.30381438
   0.06476706  0.23831604  0.84994857
   0.16986855  0.79569721  0.47506294
   0.22811114  0.28470077  0.99770601
   0.82139838  0.40764969  0.99011338
   0.68949419  0.00156103  0.94543977
   0.08030201  0.94873609  0.98174724
   0.42040680  0.40610725  0.16375184
   0.48449794  0.60563540  0.55242124
   0.29237105  0.93483123  0.55377785
   0.21366134  0.49671876  0.49041512
   0.06425830  0.52124113  0.78800801
Ir_Ru                                   
           1
     5.512219    2.125900   -4.352357
     5.334697    7.947804    5.177471
     9.710595   -3.236865    6.473730
   Ir   Ru
  24  24
Direct configuration=     8
   0.80983845  0.33147886  0.39611794
   0.21452465  0.69875283  0.07570068
   0.42811960  0.88078191  0.06114158
   0.49655490  0.03845637  0.14008212
   0.77195075  0.60812342  0.39194726
   0.17386579  0.21178844  0.49619477
   0.57760939  0.36632174  0.54110639
   0.75783710  0.10841900  0.71273471
   0.71061694  0.66435696  0.89912963
   0.87427693  0.06504832  0.15119096
   0.34509150  0.19975082  0.25260104
   0.97005043  0.80792994  0.30369061
   0.18030977  0.04335337  0.72153185
   0.57798437  0.72111185  0.69722685
   0.97723834  0.85891197  0.81493523
   0.91189765  0.32650102  0.60382632
   0.41720476  0.38437851  0.74667126
   0.73568552  0.47478005  0.72806546
   0.35591352  0.66196832  0.27066602
   0.39842920  0.09126415  0.84107665
   0.75247480  0.17004738  0.30327158
   0.62961359  0.94683192  0.38160863
   0.57606320  0.05638332  0.56527646
   0.24603640  0.67046664  0.72742569
   0.74078118  0.21694306  0.93051633
   0.96605407  0.34102217  0.16036395
   0.72433987  0.56698481  0.18730840
   0.88235948  0.69342508  0.54789705
   0.86902897  0.84793038  0.64895485
   0.08602682  0.05267682  0.37083637
   0.18776719  0.97768690  0.22407278
   0.47140051  0.48679091  0.91827629
   0.43223928  0.80331728  0.86248902
   0.01414517  0.57492201  0.01935863
   0.45068616  0.31859803  0.38127787
   0.85842340  0.77809289  0.08495145
   0.09747503  0.47693773  0.30323706
   0.06528289  0.23770451  0.84997456
   0.17023836  0.79742759  0.47409091
   0.22836731  0.28400749  0.99702002
   0.81923808  0.40646349  0.99022547
   0.68933018  0.00132873  0.94618466
   0.08057331  0.94881604  0.98173483
   0.41968805  0.40647915  0.16367372
   0.48621872  0.60609243  0.55264662
   0.29361996  0.93415821  0.55364783
   0.21215883  0.49718455  0.49021599
   0.06449310  0.52112189  0.78753097
Ir_Ru                                   
           1
     5.517681    2.126308   -4.347659
     5.335155    7.948426    5.177905
     9.711740   -3.237247    6.474493
   Ir   Ru
  24  24
Direct configuration=     9
   0.81008879  0.33119581  0.39591232
   0.21346571  0.69993813  0.07554247
   0.42823332  0.88070901  0.06231689
   0.49668150  0.03828933  0.13963850
   0.77184627  0.60784127  0.39209112
   0.17213702  0.21223027  0.49606899
   0.57757788  0.36693249  0.54031675
   0.75780407  0.10839688  0.71320707
   0.71087924  0.66465372  0.89871029
   0.87346190  0.06442140  0.15098444
   0.34413530  0.19953012  0.25317078
   0.96991857  0.80748101  0.30352763
   0.17962805  0.04319306  0.72205277
   0.57781677  0.72124821  0.69701468
   0.97715780  0.86006776  0.81495709
   0.91193260  0.32607451  0.60356123
   0.41683182  0.38390273  0.74690253
   0.73497695  0.47531337  0.72810807
   0.35480634  0.66149256  0.27160942
   0.39927163  0.09192252  0.83994099
   0.75167843  0.17009912  0.30355426
   0.62981186  0.94691240  0.38223935
   0.57738227  0.05685506  0.56505644
   0.24678435  0.67089596  0.72694781
   0.74104533  0.21774484  0.93088178
   0.96564190  0.34044801  0.15981574
   0.72393201  0.56879260  0.18652238
   0.88248294  0.69431693  0.54849209
   0.86810998  0.84707995  0.64982820
   0.08718831  0.05157324  0.37093987
   0.18667572  0.97881476  0.22365153
   0.47011696  0.48615780  0.91742331
   0.43147476  0.80400230  0.86204586
   0.01357633  0.57525472  0.01853714
   0.45077794  0.31896037  0.38038104
   0.85846867  0.77816817  0.08519202
   0.09687290  0.47757577  0.30264948
   0.06578952  0.23712288  0.84998406
   0.17062345  0.79910703  0.47313257
   0.22864577  0.28331314  0.99633059
   0.81707343  0.40525811  0.99030949
   0.68922722  0.00110158  0.94691251
   0.08084041  0.94895759  0.98168532
   0.41900205  0.40695217  0.16351899
   0.48792632  0.60657193  0.55285231
   0.29489692  0.93348722  0.55352746
   0.21065107  0.49765580  0.49002659
   0.06463725  0.52093944  0.78708377
Ir_Ru                                   
           1
     5.523102    2.126759   -4.342921
     5.335635    7.949002    5.178348
     9.712844   -3.237615    6.475229
   Ir   Ru
  24  24
Direct configuration=    10
   0.81040928  0.33090761  0.39566879
   0.21243853  0.70109530  0.07539610
   0.42833542  0.88061412  0.06349903
   0.49684090  0.03813144  0.13919467
   0.77174358  0.60755684  0.39223193
   0.17043340  0.21266211  0.49592257
   0.57747552  0.36754824  0.53955950
   0.75776238  0.10838689  0.71366925
   0.71122231  0.66493011  0.89829926
   0.87261756  0.06380527  0.15076291
   0.34316422  0.19927619  0.25375681
   0.96977749  0.80700902  0.30337438
   0.17894279  0.04304098  0.72257847
   0.57765008  0.72139931  0.69677937
   0.97708770  0.86120552  0.81500401
   0.91196283  0.32565900  0.60330562
   0.41645681  0.38341566  0.74714974
   0.73429536  0.47582212  0.72816244
   0.35369890  0.66100757  0.27255655
   0.40010573  0.09258189  0.83879293
   0.75086071  0.17015250  0.30385091
   0.63000143  0.94698978  0.38286998
   0.57869075  0.05732546  0.56483283
   0.24754351  0.67136239  0.72646068
   0.74127682  0.21856423  0.93124146
   0.96527644  0.33982903  0.15932251
   0.72350104  0.57058615  0.18575167
   0.88260191  0.69518478  0.54907383
   0.86717843  0.84624888  0.65068166
   0.08831408  0.05053091  0.37107530
   0.18562349  0.97991698  0.22320566
   0.46882123  0.48552185  0.91656811
   0.43051881  0.80477781  0.86161806
   0.01305350  0.57559941  0.01769372
   0.45086774  0.31933817  0.37950957
   0.85849388  0.77823075  0.08546451
   0.09627464  0.47821868  0.30205177
   0.06628662  0.23657224  0.84997600
   0.17102468  0.80072855  0.47219084
   0.22894632  0.28261748  0.99563873
   0.81490545  0.40403801  0.99036576
   0.68918462  0.00088127  0.94762133
   0.08110201  0.94916295  0.98159849
   0.41834759  0.40752367  0.16328757
   0.48961857  0.60707253  0.55303791
   0.29620155  0.93282106  0.55341661
   0.20913866  0.49813255  0.48984686
   0.06469336  0.52069683  0.78666584
Ir_Ru                                   
           1
     5.528480    2.127253   -4.338143
     5.336138    7.949529    5.178799
     9.713904   -3.237968    6.475936
   Ir   Ru
  24  24
Direct configuration=    11
   0.81079988  0.33061444  0.39538659
   0.21144498  0.70222207  0.07526230
   0.42842527  0.88049658  0.06468684
   0.49703207  0.03798437  0.13875143
   0.77164272  0.60727020  0.39236961
   0.16875917  0.21308215  0.49575495
   0.57730128  0.36816965  0.53883511
   0.75771110  0.10838986  0.71412088
   0.71164301  0.66518658  0.89789617
   0.87174315  0.06320024  0.15052757
   0.34218021  0.19899065  0.25435803
   0.96962779  0.80651431  0.30323102
   0.17825484  0.04289854  0.72310722
   0.57748410  0.72156567  0.69652198
   0.97702736  0.86232364  0.81507607
   0.91198566  0.32525586  0.60306047
   0.41607994  0.38291762  0.74741202
   0.73364230  0.47630499  0.72822854
   0.35259133  0.66051381  0.27350665
   0.40093254  0.09324087  0.83763409
   0.75002402  0.17020715  0.30416048
   0.63018269  0.94706379  0.38350059
   0.57998842  0.05779480  0.56460561
   0.24831008  0.67186464  0.72596492
   0.74147338  0.21939962  0.93159423
   0.96495556  0.33916878  0.15888116
   0.72304745  0.57236290  0.18499739
   0.88271837  0.69602779  0.54964024
   0.86623562  0.84543762  0.65151715
   0.08939782  0.04955629  0.37124290
   0.18461073  0.98099330  0.22273235
   0.46751409  0.48488283  0.91571188
   0.42937911  0.80563955  0.86120658
   0.01257771  0.57595408  0.01683020
   0.45095250  0.31973091  0.37866549
   0.85849817  0.77828085  0.08576870
   0.09568104  0.47886565  0.30144439
   0.06677309  0.23605391  0.84994940
   0.17144317  0.80228591  0.47126861
   0.22926866  0.28192055  0.99494543
   0.81273554  0.40280664  0.99039527
   0.68920035  0.00066947  0.94830927
   0.08135690  0.94943428  0.98147420
   0.41772315  0.40819065  0.16297968
   0.49129448  0.60759343  0.55320378
   0.29753463  0.93216187  0.55331547
   0.20762195  0.49861460  0.48967673
   0.06466467  0.52039728  0.78627614
Ir_Ru                                   
           1
     5.533815    2.127787   -4.333330
     5.336664    7.950006    5.179259
     9.714923   -3.238308    6.476615
   Ir   Ru
  24  24
Direct configuration=    12
   0.81126022  0.33031647  0.39506544
   0.21048652  0.70331676  0.07514178
   0.42850204  0.88035586  0.06587900
   0.49725388  0.03784979  0.13831016
   0.77154424  0.60698124  0.39250403
   0.16711799  0.21348929  0.49556587
   0.57705452  0.36879739  0.53814399
   0.75764988  0.10840619  0.71456165
   0.71213767  0.66542380  0.89750060
   0.87083799  0.06260640  0.15027947
   0.34118526  0.19867525  0.25497336
   0.96946982  0.80599711  0.30309789
   0.17756515  0.04276710  0.72363731
   0.57731857  0.72174801  0.69624355
   0.97697663  0.86342062  0.81517292
   0.91199867  0.32486613  0.60282677
   0.41570143  0.38240926  0.74768841
   0.73301934  0.47676067  0.72830630
   0.35148408  0.66001154  0.27445898
   0.40175365  0.09389831  0.83646573
   0.74917040  0.17026217  0.30448234
   0.63035613  0.94713433  0.38413093
   0.58127487  0.05826323  0.56437475
   0.24907990  0.67240130  0.72546144
   0.74163348  0.22024902  0.93193887
   0.96467703  0.33847114  0.15848837
   0.72257148  0.57411995  0.18426078
   0.88283443  0.69684488  0.55018880
   0.86528200  0.84464678  0.65233684
   0.09043325  0.04865560  0.37144285
   0.18363717  0.98204377  0.22222874
   0.46619565  0.48424069  0.91485557
   0.42806545  0.80658228  0.86081275
   0.01214913  0.57631719  0.01594790
   0.45102949  0.32013853  0.37785019
   0.85848122  0.77831862  0.08610422
   0.09509251  0.47951610  0.30082750
   0.06724855  0.23556902  0.84990360
   0.17187964  0.80377119  0.47036848
   0.22961228  0.28122209  0.99425213
   0.81056424  0.40156822  0.99039935
   0.68927336  0.00046767  0.94897441
   0.08160429  0.94977391  0.98131209
   0.41712709  0.40894949  0.16259604
   0.49295318  0.60813353  0.55334982
   0.29889638  0.93151247  0.55322431
   0.20610099  0.49910188  0.48951633
   0.06455427  0.52004427  0.78591351
Ir_Ru                                   
           1
     5.539106    2.128362   -4.328482
     5.337216    7.950433    5.179728
     9.715898   -3.238633    6.477265
   Ir   Ru
  24  24
Direct configuration=    13
   0.81178958  0.33001402  0.39470523
   0.20956495  0.70437742  0.07503537
   0.42856522  0.88019129  0.06707407
   0.49750542  0.03772944  0.13787195
   0.77144840  0.60669010  0.39263507
   0.16551351  0.21388196  0.49535490
   0.57673493  0.36943201  0.53748618
   0.75757797  0.10843654  0.71499114
   0.71270187  0.66564250  0.89711192
   0.86990183  0.06202365  0.15001975
   0.34018130  0.19833191  0.25560154
   0.96930409  0.80545811  0.30297487
   0.17687476  0.04264789  0.72416721
   0.57715310  0.72194698  0.69594545
   0.97693502  0.86449522  0.81529439
   0.91199934  0.32449107  0.60260549
   0.41532199  0.38189083  0.74797781
   0.73242841  0.47718788  0.72839575
   0.35037755  0.65950072  0.27541293
   0.40257066  0.09455282  0.83528956
   0.74830187  0.17031696  0.30481555
   0.63052193  0.94720122  0.38476071
   0.58255001  0.05873102  0.56414032
   0.24984835  0.67297049  0.72495165
   0.74175477  0.22111015  0.93227423
   0.96443899  0.33773908  0.15814164
   0.72207213  0.57585501  0.18354275
   0.88295198  0.69763484  0.55071672
   0.86431819  0.84387672  0.65314362
   0.09141459  0.04783473  0.37167490
   0.18270309  0.98306826  0.22169191
   0.46486618  0.48359552  0.91399974
   0.42658645  0.80760143  0.86043762
   0.01176809  0.57668719  0.01504809
   0.45109547  0.32056134  0.37706472
   0.85844263  0.77834448  0.08647102
   0.09450959  0.48016953  0.30020089
   0.06771333  0.23511816  0.84983778
   0.17233556  0.80517855  0.46949275
   0.22997704  0.28052185  0.99355983
   0.80839303  0.40032717  0.99037996
   0.68940252  0.00027698  0.94961542
   0.08184360  0.95018353  0.98111191
   0.41655806  0.40979636  0.16213763
   0.49459329  0.60869245  0.55347562
   0.30028699  0.93087559  0.55314323
   0.20457557  0.49959381  0.48936630
   0.06436526  0.51964173  0.78557680
Ir_Ru                                   
           1
     5.544351    2.128977   -4.323603
     5.337793    7.950808    5.180207
     9.716830   -3.238943    6.477887
   Ir   Ru
  24  24
Direct configuration=    14
   0.81238724  0.32970726  0.39430606
   0.20868202  0.70540227  0.07494363
   0.42861440  0.88000228  0.06827052
   0.49778549  0.03762517  0.13743806
   0.77135541  0.60639674  0.39276261
   0.16394911  0.21425899  0.49512147
   0.57634324  0.37007373  0.53686145
   0.75749466  0.10848178  0.71540905
   0.71333068  0.66584406  0.89672940
   0.86893458  0.06145192  0.14974942
   0.33917007  0.19796316  0.25624134
   0.96913093  0.80489748  0.30286195
   0.17618482  0.04254221  0.72469536
   0.57698757  0.72216317  0.69562907
   0.97690173  0.86554572  0.81544077
   0.91198525  0.32413189  0.60239778
   0.41494192  0.38136286  0.74827920
   0.73187097  0.47758537  0.72849690
   0.34927296  0.65898145  0.27636741
   0.40338470  0.09520338  0.83410664
   0.74742027  0.17037078  0.30515938
   0.63068048  0.94726431  0.38538952
   0.58381376  0.05919868  0.56390230
   0.25061130  0.67357067  0.72443638
   0.74183515  0.22198043  0.93259959
   0.96423984  0.33697601  0.15783796
   0.72154899  0.57756468  0.18284485
   0.88307290  0.69839698  0.55122171
   0.86334422  0.84312834  0.65393977
   0.09233602  0.04709952  0.37193844
   0.18180863  0.98406672  0.22111940
   0.46352501  0.48294738  0.91314517
   0.42495150  0.80869218  0.86008204
   0.01143469  0.57706215  0.01413249
   0.45114778  0.32099943  0.37631001
   0.85838190  0.77835872  0.08686896
   0.09393223  0.48082560  0.29956486
   0.06816765  0.23470184  0.84975103
   0.17281237  0.80650159  0.46864432
   0.23036283  0.27981968  0.99286922
   0.80622463  0.39908717  0.99033934
   0.68958586  0.00009868  0.95023032
   0.08207357  0.95066493  0.98087373
   0.41601471  0.41072680  0.16160593
   0.49621347  0.60926910  0.55358135
   0.30170613  0.93025357  0.55307258
   0.20304591  0.50009024  0.48922683
   0.06410129  0.51919318  0.78526513
Ir_Ru                                   
           1
     5.549552    2.129631   -4.318695
     5.338396    7.951131    5.180697
     9.717720   -3.239240    6.478480
   Ir   Ru
  24  24
Direct configuration=    15
   0.81305127  0.32939662  0.39386827
   0.20783957  0.70638973  0.07486701
   0.42864864  0.87978781  0.06946731
   0.49809305  0.03753861  0.13700972
   0.77126524  0.60610116  0.39288665
   0.16242806  0.21461921  0.49486516
   0.57587997  0.37072268  0.53626953
   0.75739913  0.10854253  0.71581507
   0.71401944  0.66602983  0.89635224
   0.86793653  0.06089117  0.14946965
   0.33815353  0.19757157  0.25689147
   0.96895073  0.80431562  0.30275906
   0.17549640  0.04245167  0.72521986
   0.57682202  0.72239715  0.69529598
   0.97687682  0.86657052  0.81561222
   0.91195368  0.32378994  0.60220440
   0.41456162  0.38082593  0.74859152
   0.73134866  0.47795199  0.72860955
   0.34817077  0.65845405  0.27732181
   0.40419668  0.09584907  0.83291784
   0.74652752  0.17042281  0.30551305
   0.63083221  0.94732309  0.38601729
   0.58506618  0.05966640  0.56366078
   0.25136444  0.67419957  0.72391699
   0.74187211  0.22285715  0.93291389
   0.96407811  0.33618606  0.15757396
   0.72100147  0.57924784  0.18216734
   0.88319891  0.69913022  0.55170152
   0.86236135  0.84240238  0.65472774
   0.09319173  0.04645490  0.37223291
   0.18095281  0.98503990  0.22050904
   0.46217157  0.48229613  0.91229322