Ir-Ru                                   
           1
     9.644245    6.700755    1.217534
     5.186270   11.117060    5.598483
     8.927098   -2.975699    5.951399
   Ir   Ru
  24  24
Direct configuration=     1
   0.38918160  0.43039694  0.31683437
   0.82641044  0.07576505  0.18167831
   0.66921699  0.06927968  0.52358645
   0.44525041  0.10556582  0.94733198
   0.36746698  0.23277696  0.20243751
   0.94131678  0.38752934  0.37894541
   0.24151833  0.70676114  0.83577488
   0.79267109  0.02777490  0.75403070
   0.60042195  0.65770864  0.63091755
   0.48825536  0.36776478  0.89127055
   0.96817716  0.27910813  0.20633166
   0.55017815  0.68807795  0.27214434
   0.81586016  0.81843059  0.66394441
   0.15216803  0.00473428  0.67854549
   0.87636492  0.10630434  0.94248432
   0.98031185  0.25507208  0.86210499
   0.52636844  0.89795735  0.15172810
   0.24635003  0.91469987  0.88159772
   0.58111596  0.32991991  0.46741417
   0.62352216  0.97025976  0.31522432
   0.17864832  0.69310533  0.50411317
   0.27357120  0.18710161  0.79769957
   0.89691790  0.46216321  0.00522245
   0.82193679  0.23487099  0.58526187
   0.07526504  0.70657651  0.76115272
   0.74779879  0.69469036  0.33058230
   0.79682165  0.96458835  0.00477679
   0.05508423  0.77481375  0.32341492
   0.34419320  0.98935521  0.98519666
   0.34171894  0.32557785  0.78378574
   0.81417922  0.77280427  0.45358056
   0.76436698  0.58636507  0.79928344
   0.50733083  0.45993917  0.04531970
   0.90935381  0.70063898  0.05764380
   0.11579076  0.96824322  0.19966385
   0.04116028  0.44164508  0.10887255
   0.14124636  0.56995439  0.17823481
   0.16424672  0.42361715  0.60920957
   0.18826647  0.10904501  0.42963645
   0.19114526  0.21246101  0.60075105
   0.53237138  0.64119944  0.06679274
   0.03620372  0.96179039  0.47366868
   0.07172182  0.42490458  0.46864838
   0.49623932  0.89860833  0.68055315
   0.63967564  0.43360147  0.22186856
   0.41774783  0.67462818  0.54835270
   0.91673340  0.63530163  0.85732977
   0.65511102  0.47773685  0.78596431
Ir-Ru                                   
           1
     9.645125    6.715802    1.226863
     5.186394   11.116280    5.598442
     8.927076   -2.975692    5.951384
   Ir   Ru
  24  24
Direct configuration=     2
   0.38607493  0.43293156  0.31897827
   0.82536854  0.07467412  0.18155337
   0.67236660  0.06643021  0.52100218
   0.44407807  0.10498828  0.94569439
   0.36663829  0.23299346  0.20349470
   0.93913725  0.38824143  0.38003004
   0.24309397  0.70615903  0.83475814
   0.79832418  0.02247266  0.75337540
   0.59853620  0.65844109  0.63099324
   0.48646224  0.36908534  0.88936973
   0.96490429  0.28119690  0.20799466
   0.54828732  0.68786411  0.27506060
   0.81589601  0.81835304  0.66548439
   0.15365962  0.00318399  0.67839789
   0.87348921  0.10960511  0.94434499
   0.98258228  0.25441439  0.86029608
   0.52619740  0.89780691  0.15128568
   0.24797708  0.91528244  0.87931022
   0.58132213  0.33072470  0.46812633
   0.62324668  0.97117717  0.31628664
   0.17607574  0.69616002  0.50373544
   0.27269404  0.18780273  0.79713706
   0.89574250  0.46281240  0.00437310
   0.82632313  0.23113054  0.58531603
   0.08588950  0.69825651  0.75840729
   0.74946477  0.69313648  0.33041435
   0.79467885  0.96537322  0.00468999
   0.05295857  0.77413013  0.32416502
   0.34819031  0.98506529  0.98393743
   0.34320715  0.32412973  0.78265412
   0.81194926  0.77315475  0.45537116
   0.76821774  0.58486414  0.79952204
   0.50809262  0.46072116  0.04539297
   0.90807309  0.70291298  0.05557381
   0.11397067  0.96985423  0.20068016
   0.03913865  0.44298200  0.10690463
   0.14357975  0.56685462  0.17795021
   0.15862259  0.42722780  0.61046115
   0.19051574  0.10709769  0.42871261
   0.19100673  0.21270028  0.59870573
   0.53011319  0.64244890  0.06790512
   0.03985547  0.95775949  0.47249419
   0.07141897  0.42478957  0.46762240
   0.49898758  0.89487246  0.68073327
   0.64311188  0.43279638  0.22192533
   0.42694060  0.66788134  0.54471150
   0.91480390  0.63550158  0.85669218
   0.65405898  0.47805394  0.78838653
Ir-Ru                                   
           1
     9.646266    6.731234    1.235125
     5.186404   11.115722    5.598357
     8.927375   -2.975792    5.951583
   Ir   Ru
  24  24
Direct configuration=     3
   0.38293548  0.43543898  0.32118013
   0.82429104  0.07355322  0.18157585
   0.67532605  0.06373076  0.51845760
   0.44302553  0.10434918  0.94407457
   0.36573558  0.23326369  0.20450846
   0.93682630  0.38904436  0.38115269
   0.24478924  0.70548257  0.83373529
   0.80383743  0.01727258  0.75277532
   0.59672888  0.65912756  0.63093133
   0.48467604  0.37041519  0.88744654
   0.96175910  0.28315713  0.20966787
   0.54628160  0.68772304  0.27803949
   0.81574787  0.81834260  0.66713559
   0.15530760  0.00158092  0.67805677
   0.87015821  0.11315841  0.94627959
   0.98452051  0.25384742  0.85867600
   0.52579633  0.89779727  0.15088313
   0.24967868  0.91572918  0.87724821
   0.58153050  0.33151307  0.46888115
   0.62297378  0.97211948  0.31729934
   0.17381840  0.69901015  0.50320431
   0.27228229  0.18829560  0.79637398
   0.89456352  0.46345336  0.00348653
   0.83055076  0.22750603  0.58544256
   0.09673144  0.68976616  0.75574140
   0.75086032  0.69176366  0.33043104
   0.79244936  0.96624183  0.00460909
   0.05121728  0.77332507  0.32457730
   0.35240614  0.98051409  0.98261693
   0.34480409  0.32277359  0.78148062
   0.80990844  0.77333747  0.45713430
   0.77192190  0.58346112  0.79972080
   0.50878765  0.46157444  0.04554763
   0.90719434  0.70507246  0.05337339
   0.11199161  0.97160001  0.20177442
   0.03743042  0.44411282  0.10499324
   0.14603925  0.56365146  0.17763031
   0.15342306  0.43069282  0.61165441
   0.19318683  0.10485256  0.42774637
   0.19113816  0.21272074  0.59647387
   0.52712377  0.64409775  0.06915135
   0.04374078  0.95367213  0.47100684
   0.07086149  0.42495572  0.46645550
   0.50176866  0.89126545  0.68090940
   0.64630184  0.43205667  0.22201612
   0.43611547  0.66110579  0.54103893
   0.91259884  0.63590284  0.85613966
   0.65322537  0.47808102  0.79083203
Ir-Ru                                   
           1
     9.647681    6.747064    1.242290
     5.186303   11.115393    5.598229
     8.928004   -2.976001    5.952003
   Ir   Ru
  24  24
Direct configuration=     4
   0.37978854  0.43790388  0.32342778
   0.82318007  0.07240022  0.18174893
   0.67806791  0.06120567  0.51596585
   0.44209376  0.10365236  0.94247903
   0.36476646  0.23358038  0.20547208
   0.93440206  0.38992341  0.38230910
   0.24658890  0.70474678  0.83270744
   0.80919799  0.01218228  0.75223354
   0.59501243  0.65974523  0.63073411
   0.48289623  0.37175261  0.88550747
   0.95879602  0.28495860  0.21133495
   0.54417583  0.68765517  0.28105825
   0.81541978  0.81840456  0.66888767
   0.15709056  0.99993391  0.67753299
   0.86641042  0.11694333  0.94827040
   0.98611863  0.25337574  0.85724511
   0.52516723  0.89792421  0.15052087
   0.25139531  0.91605710  0.87545168
   0.58173465  0.33228834  0.46967978
   0.62270845  0.97308353  0.31826177
   0.17188628  0.70162819  0.50253166
   0.27235203  0.18856431  0.79540220
   0.89335873  0.46409737  0.00257817
   0.83462501  0.22398942  0.58564063
   0.10781043  0.68109000  0.75313899
   0.75199734  0.69057759  0.33060895
   0.79016381  0.96718954  0.00451680
   0.04989587  0.77238143  0.32462062
   0.35680685  0.97573317  0.98125272
   0.34650280  0.32151993  0.78026059
   0.80808940  0.77333561  0.45884540
   0.77541650  0.58217326  0.79989381
   0.50938369  0.46250948  0.04580037
   0.90671020  0.70710459  0.05106853
   0.10983627  0.97348702  0.20294160
   0.03604576  0.44503253  0.10314784
   0.14862037  0.56035009  0.17727606
   0.14871446  0.43397481  0.61275667
   0.19627073  0.10232089  0.42673528
   0.19154708  0.21251087  0.59406064
   0.52340949  0.64614239  0.07053354
   0.04781957  0.94959104  0.46920391
   0.07003080  0.42541394  0.46516239
   0.50459407  0.88781886  0.68107213
   0.64916305  0.43140650  0.22215340
   0.44526115  0.65429794  0.53735438
   0.91013404  0.63651537  0.85569799
   0.65259945  0.47785052  0.79327912
Ir-Ru                                   
           1
     9.649373    6.763298    1.248335
     5.186097   11.115297    5.598064
     8.928968   -2.976323    5.952645
   Ir   Ru
  24  24
Direct configuration=     5
   0.37666101  0.44030768  0.32570889
   0.82203998  0.07121218  0.18207399
   0.68056825  0.05887748  0.51353687
   0.44128105  0.10290110  0.94091576
   0.36374412  0.23393177  0.20637586
   0.93188705  0.39086208  0.38349354
   0.24847641  0.70396592  0.83167576
   0.81439795  0.00720438  0.75175316
   0.59339730  0.66027391  0.63040675
   0.48111820  0.37309906  0.88356000
   0.95606835  0.28657139  0.21298250
   0.54198516  0.68766335  0.28409095
   0.81492351  0.81853788  0.67072620
   0.15898336  0.99825352  0.67684137
   0.86229847  0.12092892  0.95029687
   0.98737775  0.25300059  0.85599702
   0.52432029  0.89817999  0.15019668
   0.25306663  0.91628359  0.87395480
   0.58192712  0.33305490  0.47052350
   0.62245524  0.97406685  0.31917361
   0.17028374  0.70398773  0.50173465
   0.27290563  0.18860154  0.79421751
   0.89210728  0.46475189  0.00166884
   0.83854884  0.22057641  0.58590900
   0.11913630  0.67221726  0.75058332
   0.75289055  0.68957882  0.33092598
   0.78785681  0.96820664  0.00439815
   0.04902785  0.77127893  0.32426636
   0.36136299  0.97075368  0.97985662
   0.34830177  0.32037332  0.77898880
   0.80653262  0.77312821  0.46047958
   0.77862986  0.58102046  0.80004887
   0.50984674  0.46353652  0.04616820
   0.90660485  0.70899914  0.04868200
   0.10748920  0.97552203  0.20417674
   0.03499084  0.44574617  0.10137282
   0.15131306  0.55695842  0.17689339
   0.14455632  0.43703863  0.61373203
   0.19974672  0.09951872  0.42568004
   0.19222844  0.21207022  0.59147987
   0.51900477  0.64856442  0.07204536
   0.05203623  0.94560446  0.46709017
   0.06890460  0.42617734  0.46376919
   0.50747197  0.88456461  0.68121362
   0.65160394  0.43088614  0.22234440
   0.45435700  0.64745586  0.53368807
   0.90742397  0.63735089  0.85539710
   0.65218348  0.47738262  0.79570153
Ir-Ru                                   
           1
     9.651350    6.779926    1.253234
     5.185798   11.115443    5.597872
     8.930270   -2.976757    5.953514
   Ir   Ru
  24  24
Direct configuration=     6
   0.37357673  0.44263393  0.32801276
   0.82087111  0.06999011  0.18254754
   0.68280310  0.05676563  0.51118190
   0.44059206  0.10209500  0.93939084
   0.36267901  0.23430753  0.20721243
   0.92930887  0.39184082  0.38470094
   0.25043719  0.70315391  0.83063961
   0.81943327  0.00234052  0.75133339
   0.59189077  0.66069851  0.62995710
   0.47933897  0.37445497  0.88160821
   0.95363578  0.28796210  0.21459240
   0.53972411  0.68775096  0.28711122
   0.81426828  0.81874552  0.67263412
   0.16096139  0.99655137  0.67599648
   0.85788421  0.12507937  0.95233656
   0.98830817  0.25271974  0.85492364
   0.52327207  0.89855306  0.14990652
   0.25462994  0.91642778  0.87278788
   0.58210346  0.33381456  0.47141369
   0.62221767  0.97506847  0.32003621
   0.16901194  0.70606002  0.50083483
   0.27393895  0.18840291  0.79281907
   0.89079248  0.46542276  0.00077611
   0.84232683  0.21726227  0.58624521
   0.13071715  0.66313907  0.74805414
   0.75355921  0.68876307  0.33135855
   0.78554283  0.96929218  0.00424572
   0.04862540  0.77001092  0.32350578
   0.36604380  0.96561041  0.97844776
   0.35019159  0.31934110  0.77766360
   0.80527125  0.77270229  0.46200759
   0.78150262  0.58001276  0.80019558
   0.51014611  0.46466649  0.04666717
   0.90685824  0.71074756  0.04623433
   0.10494044  0.97770827  0.20547236
   0.03427229  0.44625611  0.09966971
   0.15410641  0.55348626  0.17648257
   0.14100542  0.43984798  0.61454519
   0.20358684  0.09647035  0.42457808
   0.19317658  0.21139655  0.58876041
   0.51395955  0.65133694  0.07367641
   0.05632687  0.94180656  0.46467128
   0.06745611  0.42726372  0.46230360
   0.51040271  0.88152647  0.68133366
   0.65354961  0.43052810  0.22259391
   0.46336794  0.64058188  0.53008113
   0.90448983  0.63841426  0.85526584
   0.65196741  0.47670661  0.79806779
Ir-Ru                                   
           1
     9.653609    6.796933    1.256975
     5.185421   11.115834    5.597665
     8.931911   -2.977304    5.954607
   Ir   Ru
  24  24
Direct configuration=     7
   0.37056268  0.44486309  0.33032856
   0.81967523  0.06873508  0.18316327
   0.68475469  0.05488510  0.50891004
   0.44002301  0.10123805  0.93791536
   0.36158745  0.23469295  0.20797332
   0.92670262  0.39283497  0.38592321
   0.25245792  0.70232451  0.82959880
   0.82430273  0.99759140  0.75097090
   0.59050194  0.66100583  0.62939367
   0.47755276  0.37582351  0.87965657
   0.95154636  0.28910504  0.21615087
   0.53740105  0.68792525  0.29009493
   0.81346881  0.81902726  0.67459279
   0.16299839  0.99483968  0.67501652
   0.85323002  0.12935814  0.95436846
   0.98892354  0.25253177  0.85401667
   0.52204208  0.89902971  0.14964692
   0.25603214  0.91650847  0.87197126
   0.58225927  0.33456972  0.47235083
   0.62200080  0.97608641  0.32084910
   0.16806589  0.70781760  0.49985768
   0.27543754  0.18797075  0.79120630
   0.88939754  0.46611156  0.99991851
   0.84596959  0.21403786  0.58664615
   0.14255824  0.65384450  0.74553177
   0.75401831  0.68813264  0.33188111
   0.78322973  0.97045224  0.00405890
   0.04869768  0.76856804  0.32232883
   0.37081862  0.96033706  0.97704120
   0.35215820  0.31843163  0.77628560
   0.80433076  0.77204994  0.46341091
   0.78398542  0.57915473  0.80033602
   0.51024476  0.46591392  0.04731905
   0.90744353  0.71235005  0.04374327
   0.10218097  0.98004732  0.20682118
   0.03388555  0.44657316  0.09803747
   0.15699416  0.54994175  0.17604206
   0.13811978  0.44236175  0.61515775
   0.20776768  0.09319486  0.42342602
   0.19437197  0.21050257  0.58592379
   0.50834459  0.65442557  0.07540660
   0.06062251  0.93829781  0.46196489
   0.06566545  0.42868151  0.46080722
   0.51338336  0.87872379  0.68143154
   0.65493253  0.43035693  0.22289657
   0.47225968  0.63367530  0.52657318
   0.90134957  0.63971107  0.85534150
   0.65193898  0.47585368  0.80034676
Ir-Ru                                   
           1
     9.656148    6.814286    1.259551
     5.184987   11.116477    5.597459
     8.933886   -2.977962    5.955924
   Ir   Ru
  24  24
Direct configuration=     8
   0.36764193  0.44697803  0.33264659
   0.81845464  0.06744936  0.18391282
   0.68641021  0.05324750  0.50672829
   0.43957018  0.10033262  0.93649910
   0.36048530  0.23507352  0.20865087
   0.92410786  0.39381532  0.38715438
   0.25452272  0.70149294  0.82855399
   0.82900787  0.99295365  0.75066313
   0.58922823  0.66119020  0.62873118
   0.47575358  0.37720820  0.87770763
   0.94983776  0.28997891  0.21764719
   0.53502589  0.68819207  0.29301759
   0.81254453  0.81938044  0.67657819
   0.16506846  0.99313095  0.67392364
   0.84839682  0.13372843  0.95637558
   0.98924501  0.25243217  0.85326346
   0.52064982  0.89959625  0.14941512
   0.25723061  0.91654112  0.87151625
   0.58239118  0.33532119  0.47333470
   0.62180797  0.97711911  0.32161578
   0.16744063  0.70923465  0.49882926
   0.27736875  0.18731946  0.78938766
   0.88791002  0.46681814  0.99911017
   0.84948466  0.21089590  0.58710915
   0.15466043  0.64432747  0.74299635
   0.75428416  0.68768384  0.33247092
   0.78092670  0.97169218  0.00383752
   0.04923491  0.76695595  0.32074060
   0.37566094  0.95496710  0.97565217
   0.35418899  0.31764928  0.77485474
   0.80374958  0.77116275  0.46465624
   0.78603626  0.57844853  0.80046624
   0.51010602  0.46729695  0.04814584
   0.90833599  0.71380773  0.04122480
   0.09919383  0.98254724  0.20821728
   0.03381599  0.44671105  0.09647769
   0.15996791  0.54633607  0.17556950
   0.13593793  0.44455185  0.61553493
   0.21225977  0.08971261  0.42222533
   0.19580572  0.20939295  0.58298839
   0.50223201  0.65779185  0.07722015
   0.06485537  0.93517534  0.45898247
   0.06352181  0.43043260  0.45931017
   0.51642047  0.87615557  0.68151160
   0.65569720  0.43039637  0.22324769
   0.48099770  0.62673569  0.52320477
   0.89803554  0.64124590  0.85564608
   0.65208621  0.47484943  0.80251459
Ir-Ru                                   
           1
     9.658957    6.831955    1.260957
     5.184521   11.117373    5.597272
     8.936192   -2.978731    5.957462
   Ir   Ru
  24  24
Direct configuration=     9
   0.36483352  0.44896313  0.33495868
   0.81720860  0.06613626  0.18478810
   0.68776266  0.05185806  0.50464365
   0.43922637  0.09938381  0.93515503
   0.35938877  0.23543370  0.20923681
   0.92156821  0.39475150  0.38838543
   0.25661817  0.70067325  0.82750402
   0.83355586  0.98842322  0.75040428
   0.58806477  0.66125374  0.62798616
   0.47393637  0.37861102  0.87576538
   0.94854160  0.29056630  0.21906838
   0.53260880  0.68855643  0.29585550
   0.81151489  0.81980292  0.67856751
   0.16714675  0.99143680  0.67273927
   0.84345143  0.13814395  0.95834006
   0.98930098  0.25241270  0.85264937
   0.51911903  0.90023904  0.14920511
   0.25819009  0.91654014  0.87142704
   0.58249803  0.33606856  0.47436416
   0.62164433  0.97816484  0.32233493
   0.16712210  0.71029351  0.49777392
   0.27969186  0.18646819  0.78737117
   0.88632279  0.46753934  0.99836758
   0.85287689  0.20783266  0.58763206
   0.16700364  0.63460402  0.74043621
   0.75437555  0.68740772  0.33310598
   0.77863901  0.97301664  0.00358302
   0.05022271  0.76517850  0.31874421
   0.38054152  0.94953944  0.97429776
   0.35628067  0.31698859  0.77336991
   0.80356381  0.77003724  0.46570589
   0.78762799  0.57788858  0.80057890
   0.50969749  0.46883266  0.04916310
   0.90951341  0.71511908  0.03868769
   0.09596952  0.98521381  0.20965213
   0.03404452  0.44668471  0.09499354
   0.16301788  0.54268120  0.17506393
   0.13448188  0.44639573  0.61565439
   0.21702240  0.08605081  0.42098366
   0.19745158  0.20808770  0.57998341
   0.49571401  0.66138620  0.07910057
   0.06896909  0.93251571  0.45573758
   0.06101710  0.43251447  0.45785015
   0.51949055  0.87383242  0.68159100
   0.65580747  0.43066381  0.22364215
   0.48953258  0.61976754  0.52002207
   0.89458729  0.64301558  0.85619635
   0.65239505  0.47371997  0.80454488
Ir-Ru                                   
           1
     9.662029    6.849889    1.261207
     5.184047   11.118524    5.597121
     8.938819   -2.979606    5.959212
   Ir   Ru
  24  24
Direct configuration=    10
   0.36215598  0.45080108  0.33725731
   0.81593931  0.06479861  0.18577854
   0.68881245  0.05071579  0.50265777
   0.43898146  0.09839980  0.93389733
   0.35831424  0.23575721  0.20972535
   0.91913455  0.39561152  0.38960437
   0.25873475  0.69987693  0.82644571
   0.83795202  0.98399599  0.75019102
   0.58700144  0.66120477  0.62717913
   0.47209523  0.38003486  0.87383118
   0.94767277  0.29085859  0.22040527
   0.53015675  0.68902842  0.29858665
   0.81039938  0.82029354  0.68053796
   0.16921212  0.98976854  0.67148272
   0.83844647  0.14256852  0.96025117
   0.98912201  0.25246546  0.85216010
   0.51748086  0.90094137  0.14900760
   0.25888321  0.91651898  0.87169794
   0.58258455  0.33680771  0.47543505
   0.62151608  0.97921973  0.32300727
   0.16709829  0.71097848  0.49671570
   0.28236566  0.18543721  0.78516631
   0.88463513  0.46826672  0.99770399
   0.85615480  0.20484076  0.58821215
   0.17955576  0.62469650  0.73784659
   0.75430931  0.68729713  0.33376326
   0.77637283  0.97442565  0.00329644
   0.05162411  0.76326083  0.31636190
   0.38543977  0.94407846  0.97298781
   0.35842973  0.31643742  0.77183321
   0.80379955  0.76867603  0.46653485
   0.78875394  0.57745757  0.80066180
   0.50899471  0.47053462  0.05038419
   0.91094806  0.71628271  0.03614828
   0.09250172  0.98805096  0.21111503
   0.03453965  0.44651619  0.09358301
   0.16613449  0.53899198  0.17451983
   0.13376469  0.44787564  0.61549904
   0.22201582  0.08223332  0.41970874
   0.19928538  0.20660635  0.57693140
   0.48887644  0.66516383  0.08102372
   0.07291014  0.93038590  0.45225045
   0.05814545  0.43492418  0.45645936
   0.52256702  0.87175946  0.68169281
   0.65524603  0.43116442  0.22407166
   0.49780951  0.61278007  0.51707644
   0.89103901  0.64501686  0.85700284
   0.65284663  0.47249466  0.80641620
Ir-Ru                                   
           1
     9.665346    6.868035    1.260323
     5.183594   11.119926    5.597027
     8.941756   -2.980585    5.961170
   Ir   Ru
  24  24
Direct configuration=    11
   0.35962584  0.45247690  0.33953412
   0.81464850  0.06344007  0.18687209
   0.68956675  0.04981393  0.50076852
   0.43882179  0.09738984  0.93274216
   0.35727570  0.23602942  0.21011198
   0.91686031  0.39636198  0.39079843
   0.26086118  0.69911545  0.82537863
   0.84220550  0.97966728  0.75001762
   0.58602608  0.66105580  0.62633168
   0.47022745  0.38147955  0.87190583
   0.94723671  0.29085227  0.22164662
   0.52767318  0.68961498  0.30119533
   0.80922007  0.82084998  0.68246479
   0.17124536  0.98813688  0.67017390
   0.83344293  0.14695816  0.96209342
   0.98874237  0.25257957  0.85177954
   0.51576502  0.90168691  0.14881388
   0.25929964  0.91648500  0.87231286
   0.58265877  0.33753259  0.47654004
   0.62142675  0.98028141  0.32363398
   0.16734749  0.71129194  0.49567534
   0.28534053  0.18425183  0.78278597
   0.88284716  0.46899213  0.99713114
   0.85932617  0.20191422  0.58884622
   0.19225591  0.61465166  0.73523542
   0.75410010  0.68734455  0.33442541
   0.77412465  0.97592627  0.00298296
   0.05341056  0.76121945  0.31360829
   0.39032566  0.93861693  0.97173908
   0.36063651  0.31598041  0.77024643
   0.80447467  0.76708713  0.46712108
   0.78942768  0.57713547  0.80069516
   0.50796288  0.47242592  0.05182595
   0.91261809  0.71729032  0.03362032
   0.08877450  0.99107144  0.21259906
   0.03527776  0.44621992  0.09224833
   0.16930708  0.53528047  0.17393259
   0.13378217  0.44898163  0.61506313
   0.22719355  0.07828993  0.41841356
   0.20127094  0.20497920  0.57386498
   0.48180395  0.66908059  0.08296968
   0.07663777  0.92882582  0.44854525
   0.05491322  0.43764717  0.45516212
   0.52561482  0.86993670  0.68184734
   0.65402386  0.43189405  0.22452348
   0.50577168  0.60578577  0.51440633
   0.88742745  0.64723657  0.85807618
   0.65343504  0.47119231  0.80810295
Ir-Ru                                   
           1
     9.668886    6.886339    1.258339
     5.183187   11.121576    5.597009
     8.944991   -2.981664    5.963327
   Ir   Ru
  24  24
Direct configuration=    12
   0.35725742  0.45397602  0.34178239
   0.81333445  0.06206673  0.18805622
   0.69003620  0.04914214  0.49897370
   0.43873415  0.09636046  0.93170238
   0.35628491  0.23623663  0.21039434
   0.91480296  0.39696992  0.39195403
   0.26298445  0.69840188  0.82430184
   0.84632927  0.97542950  0.74987532
   0.58511980  0.66082889  0.62546905
   0.46833212  0.38294395  0.86998965
   0.94722139  0.29055468  0.22278544
   0.52516629  0.69032006  0.30366537
   0.80799605  0.82147065  0.68432555
   0.17322744  0.98655290  0.66883164
   0.82849072  0.15127537  0.96385751
   0.98819751  0.25274246  0.85149228
   0.51399720  0.90246110  0.14861571
   0.25944361  0.91643892  0.87324743
   0.58273580  0.33823220  0.47766705
   0.62138216  0.98134643  0.32421487
   0.16784481  0.71124557  0.49466976
   0.28856290  0.18294208  0.78024399
   0.88096616  0.46970406  0.99665840
   0.86239873  0.19904699  0.58953121
   0.20502444  0.60453688  0.73262137
   0.75376318  0.68754042  0.33507551
   0.77189910  0.97751974  0.00264494
   0.05553148  0.75908648  0.31051545
   0.39517291  0.93318586  0.97056496
   0.36290027  0.31559496  0.76861457
   0.80560347  0.76528432  0.46743888
   0.78967426  0.57689904  0.80065863
   0.50659163  0.47451132  0.05348906
   0.91450039  0.71814585  0.03111828
   0.08476927  0.99429263  0.21409580
   0.03623451  0.44580838  0.09098260
   0.17252381  0.53156046  0.17329777
   0.13450074  0.44971857  0.61435835
   0.23251132  0.07424929  0.41710575
   0.20337489  0.20323417  0.57081095
   0.47457717  0.67309609  0.08492154
   0.08012016  0.92785434  0.44465527
   0.05134213  0.44065243  0.45399158
   0.52859208  0.86836051  0.68208734
   0.65217883  0.43283995  0.22498692
   0.51335498  0.59879749  0.51204806
   0.88380398  0.64964387  0.85941096
   0.65414962  0.46982875  0.80958667
Ir-Ru                                   
           1
     9.672625    6.904743    1.255290
     5.182855   11.123470    5.597085
     8.948513   -2.982838    5.965675
   Ir   Ru
  24  24
Direct configuration=    13
   0.35506548  0.45528280  0.34399492
   0.81199797  0.06068502  0.18931677
   0.69023339  0.04868999  0.49726846
   0.43870188  0.09532275  0.93079112
   0.35535362  0.23636399  0.21057126
   0.91301760  0.39740305  0.39305744
   0.26509624  0.69774361  0.82321470
   0.85033107  0.97128064  0.74975670
   0.58426557  0.66054254  0.62461358
   0.46641384  0.38442270  0.86808183
   0.94760507  0.28997783  0.22381507
   0.52264774  0.69114191  0.30598369
   0.80675073  0.82214853  0.68609661
   0.17514171  0.98502664  0.66747437
   0.82363501  0.15548526  0.96553631
   0.98752496  0.25294068  0.85128355
   0.51220413  0.90324943  0.14840456
   0.25932385  0.91638139  0.87447469
   0.58283426  0.33889324  0.47880056
   0.62138574  0.98241173  0.32475260
   0.16856090  0.71086502  0.49371307
   0.29197692  0.18154182  0.77755598
   0.87900494  0.47038863  0.99629354
   0.86537698  0.19623565  0.59026625
   0.21776066  0.59443686  0.73003119
   0.75331138  0.68787735  0.33569814
   0.76969548  0.97920861  0.00229175
   0.05794428  0.75688417  0.30711154
   0.39995214  0.92781865  0.96948097
   0.36522248  0.31524959  0.76694562
   0.80719392  0.76328670  0.46747276
   0.78953980  0.57671862  0.80052424
   0.50485088  0.47680962  0.05538605
   0.91658259  0.71884362  0.02865311
   0.08047752  0.99772625  0.21559032
   0.03738559  0.44529468  0.08978148
   0.17577160  0.52784957  0.17261032
   0.13587903  0.45009694  0.61340323
   0.23792811  0.07013811  0.41579354
   0.20557037  0.20139881  0.56778841
   0.46726866  0.67717469  0.08686124
   0.08333299  0.92746321  0.44062212
   0.04744343  0.44391980  0.45296826
   0.53144954  0.86702613  0.68244747
   0.64975296  0.43398839  0.22545357
   0.52050565  0.59182906  0.51003129
   0.88022157  0.65219806  0.86099244
   0.65497604  0.46842135  0.81085179
Ir-Ru                                   
           1
     9.676535    6.923187    1.251222
     5.182628   11.125601    5.597276
     8.952308   -2.984103    5.968205
   Ir   Ru
  24  24
Direct configuration=    14
   0.35305818  0.45638638  0.34616841
   0.81063853  0.05930300  0.19063958
   0.69017308  0.04844464  0.49564932
   0.43870715  0.09428719  0.93002295
   0.35448914  0.23640008  0.21064485
   0.91155626  0.39763249  0.39409478
   0.26718847  0.69714720  0.82211626
   0.85422057  0.96721584  0.74965501
   0.58344559  0.66021922  0.62379066
   0.46447934  0.38591006  0.86618477
   0.94835833  0.28913818  0.22472773
   0.52012754  0.69207685  0.30814576
   0.80550678  0.82287639  0.68775640
   0.17697544  0.98356533  0.66611995
   0.81891430  0.15955631  0.96712378
   0.98676337  0.25315797  0.85113821
   0.51040818  0.90404001  0.14817111
   0.25896036  0.91631071  0.87595774
   0.58297936  0.33949754  0.47992054
   0.62144078  0.98347500  0.32524767
   0.16946315  0.71018691  0.49281156
   0.29552630  0.18008583  0.77473796
   0.87697586  0.47103531  0.99604253
   0.86826440  0.19347657  0.59104940
   0.23035323  0.58444904  0.72749678
   0.75275691  0.68834578  0.33627831
   0.76751861  0.98099189  0.00193018
   0.06057568  0.75466057  0.30343979
   0.40463663  0.92254269  0.96850048
   0.36761692  0.31490536  0.76524442
   0.80923787  0.76111924  0.46721365
   0.78908319  0.57656163  0.80026467
   0.50272265  0.47933029  0.05751927
   0.91884862  0.71937785  0.02624105
   0.07589112  0.00138347  0.21706885
   0.03870170  0.44469517  0.08864354
   0.17904162  0.52416319  0.17186212
   0.13784992  0.45014059  0.61223104
   0.24340793  0.06597771  0.41448630
   0.20782996  0.19949404  0.56481865
   0.45996056  0.68127437  0.08877208
   0.08627450  0.92761877  0.43647950
   0.04324696  0.44740937  0.45211137
   0.53414095  0.86593026  0.68295698
   0.64680645  0.43531455  0.22591549
   0.52717357  0.58489930  0.50836691
   0.87671887  0.65486563  0.86280253
   0.65590378  0.46698147  0.81188665
Ir-Ru                                   
           1
     9.680585    6.941614    1.246191
     5.182534   11.127960    5.597601
     8.956359   -2.985453    5.970906
   Ir   Ru
  24  24
Direct configuration=    15
   0.35124414  0.45727606  0.34829568
   0.80925595  0.05792882  0.19200927
   0.68987403  0.04839089  0.49411126
   0.43872636  0.09326793  0.92940921
   0.35370000  0.23633185  0.21061863
   0.91046853  0.39763119  0.39505227
   0.26925496  0.69661740  0.82100588
   0.85800925  0.96323027  0.74956017
   0.58264048  0.65988215  0.62302282
   0.46253995  0.38739663  0.86430431
   0.94944964  0.28805307  0.22551594
   0.51762206  0.69311393  0.31014692
   0.80428499  0.82364576  0.68928883
   0.17871895  0.98217457  0.66478439
   0.81435786  0.16346486  0.96861699
   0.98594931  0.25337807  0.85104295
   0.50863071  0.90482157  0.14790859
   0.25837258  0.91622394  0.87766254
   0.58320187  0.34002401  0.48100227
   0.62155021  0.98453252  0.32570231
   0.17051405  0.70925971  0.49196885
   0.29916067  0.17860577  0.77180592
   0.87489005  0.47163392  0.99590619
   0.87106659  0.19076541  0.59187835
   0.24267291  0.57469096  0.72504969
   0.75211388  0.68893313  0.33680130
   0.76536968  0.98286907  0.00156454
   0.06336359  0.75245388  0.29954204
   0.40919729  0.91738551  0.96763430
   0.37010120  0.31451187  0.76352037
   0.81171200  0.75881832  0.46666073
   0.78837040  0.57639762  0.79985455