 256 256   0   0
  0.1419206E+02  0.1537080E-08  0.1537218E-08  0.1537636E-08  0.5000000E-15
  1.000000000000000E-004
  CAR 
 Ir_Ru                                   
     12.68376481     -1.29526376  301      9.24214910      1.00000000
     -1.295  0.0000E+00  0.0000E+00
     -1.249  0.0000E+00  0.0000E+00
     -1.202  0.0000E+00  0.0000E+00
     -1.155  0.0000E+00  0.0000E+00
     -1.109 -0.2745E-28 -0.1279E-29
     -1.062 -0.4093E-25 -0.1909E-26
     -1.016 -0.3938E-22 -0.1837E-23
     -0.969 -0.2445E-19 -0.1141E-20
     -0.922 -0.9794E-17 -0.4575E-18
     -0.876 -0.2457E-14 -0.1149E-15
     -0.829 -0.4074E-12 -0.1910E-13
     -0.783 -0.4351E-10 -0.2046E-11
     -0.736 -0.2994E-08 -0.1416E-09
     -0.690 -0.1329E-06 -0.6333E-08
     -0.643 -0.3808E-05 -0.1838E-06
     -0.596 -0.7067E-04 -0.3477E-05
     -0.550 -0.8516E-03 -0.4316E-04
     -0.503 -0.6668E-02 -0.3539E-03
     -0.457 -0.3351E-01 -0.1915E-02
     -0.410 -0.1020E+00 -0.6666E-02
     -0.363 -0.1379E+00 -0.1309E-01
     -0.317  0.2229E+00 -0.2703E-02
     -0.270  0.1507E+01  0.6752E-01
     -0.224  0.3536E+01  0.2323E+00
     -0.177  0.5070E+01  0.4685E+00
     -0.130  0.5733E+01  0.7357E+00
     -0.084  0.7325E+01  0.1077E+01
     -0.037  0.1019E+02  0.1552E+01
      0.009  0.1102E+02  0.2066E+01
      0.056  0.9158E+01  0.2492E+01
      0.103  0.9388E+01  0.2930E+01
      0.149  0.1315E+02  0.3543E+01
      0.196  0.1591E+02  0.4284E+01
      0.242  0.1606E+02  0.5033E+01
      0.289  0.1675E+02  0.5813E+01
      0.336  0.1850E+02  0.6675E+01
      0.382  0.1834E+02  0.7529E+01
      0.429  0.1744E+02  0.8342E+01
      0.475  0.1980E+02  0.9264E+01
      0.522  0.2337E+02  0.1035E+02
      0.569  0.2406E+02  0.1147E+02
      0.615  0.2229E+02  0.1251E+02
      0.662  0.1873E+02  0.1339E+02
      0.708  0.1408E+02  0.1404E+02
      0.755  0.1113E+02  0.1456E+02
      0.802  0.1070E+02  0.1506E+02
      0.848  0.1111E+02  0.1558E+02
      0.895  0.1211E+02  0.1614E+02
      0.941  0.1458E+02  0.1682E+02
      0.988  0.1828E+02  0.1767E+02
      1.035  0.2282E+02  0.1874E+02
      1.081  0.2801E+02  0.2004E+02
      1.128  0.3124E+02  0.2150E+02
      1.174  0.2980E+02  0.2289E+02
      1.221  0.2598E+02  0.2410E+02
      1.268  0.2311E+02  0.2517E+02
      1.314  0.2099E+02  0.2615E+02
      1.361  0.2000E+02  0.2708E+02
      1.407  0.2156E+02  0.2809E+02
      1.454  0.2401E+02  0.2921E+02
      1.501  0.2562E+02  0.3040E+02
      1.547  0.2891E+02  0.3175E+02
      1.594  0.3505E+02  0.3338E+02
      1.640  0.3875E+02  0.3519E+02
      1.687  0.3788E+02  0.3695E+02
      1.734  0.3919E+02  0.3878E+02
      1.780  0.4541E+02  0.4089E+02
      1.827  0.4934E+02  0.4319E+02
      1.873  0.4789E+02  0.4542E+02
      1.920  0.4729E+02  0.4763E+02
      1.967  0.5082E+02  0.5000E+02
      2.013  0.5403E+02  0.5251E+02
      2.060  0.5545E+02  0.5510E+02
      2.106  0.6133E+02  0.5796E+02
      2.153  0.7446E+02  0.6142E+02
      2.199  0.8922E+02  0.6558E+02
      2.246  0.1029E+03  0.7038E+02
      2.293  0.1176E+03  0.7586E+02
      2.339  0.1309E+03  0.8196E+02
      2.386  0.1382E+03  0.8840E+02
      2.432  0.1432E+03  0.9507E+02
      2.479  0.1522E+03  0.1022E+03
      2.526  0.1610E+03  0.1097E+03
      2.572  0.1618E+03  0.1172E+03
      2.619  0.1614E+03  0.1247E+03
      2.665  0.1689E+03  0.1326E+03
      2.712  0.1784E+03  0.1409E+03
      2.759  0.1847E+03  0.1495E+03
      2.805  0.1976E+03  0.1587E+03
      2.852  0.2227E+03  0.1691E+03
      2.898  0.2474E+03  0.1806E+03
      2.945  0.2562E+03  0.1926E+03
      2.992  0.2497E+03  0.2042E+03
      3.038  0.2466E+03  0.2157E+03
      3.085  0.2618E+03  0.2279E+03
      3.131  0.2862E+03  0.2412E+03
      3.178  0.3010E+03  0.2552E+03
      3.225  0.3037E+03  0.2694E+03
      3.271  0.3048E+03  0.2836E+03
      3.318  0.3082E+03  0.2980E+03
      3.364  0.3109E+03  0.3124E+03
      3.411  0.3141E+03  0.3271E+03
      3.458  0.3213E+03  0.3421E+03
      3.504  0.3329E+03  0.3576E+03
      3.551  0.3437E+03  0.3736E+03
      3.597  0.3468E+03  0.3897E+03
      3.644  0.3449E+03  0.4058E+03
      3.691  0.3486E+03  0.4221E+03
      3.737  0.3575E+03  0.4387E+03
      3.784  0.3594E+03  0.4555E+03
      3.830  0.3524E+03  0.4719E+03
      3.877  0.3479E+03  0.4881E+03
      3.924  0.3496E+03  0.5044E+03
      3.970  0.3507E+03  0.5207E+03
      4.017  0.3418E+03  0.5366E+03
      4.063  0.3232E+03  0.5517E+03
      4.110  0.3070E+03  0.5660E+03
      4.157  0.2978E+03  0.5799E+03
      4.203  0.2877E+03  0.5933E+03
      4.250  0.2717E+03  0.6060E+03
      4.296  0.2540E+03  0.6178E+03
      4.343  0.2429E+03  0.6291E+03
      4.390  0.2452E+03  0.6405E+03
      4.436  0.2576E+03  0.6525E+03
      4.483  0.2619E+03  0.6647E+03
      4.529  0.2509E+03  0.6764E+03
      4.576  0.2475E+03  0.6880E+03
      4.623  0.2666E+03  0.7004E+03
      4.669  0.2914E+03  0.7140E+03
      4.716  0.3065E+03  0.7283E+03
      4.762  0.3136E+03  0.7429E+03
      4.809  0.3136E+03  0.7575E+03
      4.856  0.3051E+03  0.7717E+03
      4.902  0.2904E+03  0.7852E+03
      4.949  0.2785E+03  0.7982E+03
      4.995  0.2808E+03  0.8113E+03
      5.042  0.2948E+03  0.8250E+03
      5.088  0.3076E+03  0.8394E+03
      5.135  0.3093E+03  0.8538E+03
      5.182  0.2980E+03  0.8677E+03
      5.228  0.2858E+03  0.8810E+03
      5.275  0.2844E+03  0.8942E+03
      5.321  0.2903E+03  0.9078E+03
      5.368  0.2972E+03  0.9216E+03
      5.415  0.3019E+03  0.9357E+03
      5.461  0.2989E+03  0.9496E+03
      5.508  0.2890E+03  0.9631E+03
      5.554  0.2867E+03  0.9764E+03
      5.601  0.3024E+03  0.9905E+03
      5.648  0.3214E+03  0.1005E+04
      5.694  0.3255E+03  0.1021E+04
      5.741  0.3203E+03  0.1036E+04
      5.787  0.3198E+03  0.1050E+04
      5.834  0.3259E+03  0.1066E+04
      5.881  0.3363E+03  0.1081E+04
      5.927  0.3498E+03  0.1098E+04
      5.974  0.3651E+03  0.1115E+04
      6.020  0.3789E+03  0.1132E+04
      6.067  0.3855E+03  0.1150E+04
      6.114  0.3876E+03  0.1168E+04
      6.160  0.3916E+03  0.1187E+04
      6.207  0.3984E+03  0.1205E+04
      6.253  0.4092E+03  0.1224E+04
      6.300  0.4268E+03  0.1244E+04
      6.347  0.4461E+03  0.1265E+04
      6.393  0.4572E+03  0.1286E+04
      6.440  0.4571E+03  0.1307E+04
      6.486  0.4532E+03  0.1329E+04
      6.533  0.4502E+03  0.1350E+04
      6.580  0.4459E+03  0.1370E+04
      6.626  0.4394E+03  0.1391E+04
      6.673  0.4319E+03  0.1411E+04
      6.719  0.4247E+03  0.1431E+04
      6.766  0.4170E+03  0.1450E+04
      6.813  0.4019E+03  0.1469E+04
      6.859  0.3773E+03  0.1487E+04
      6.906  0.3546E+03  0.1503E+04
      6.952  0.3443E+03  0.1519E+04
      6.999  0.3393E+03  0.1535E+04
      7.046  0.3279E+03  0.1550E+04
      7.092  0.3149E+03  0.1565E+04
      7.139  0.3134E+03  0.1579E+04
      7.185  0.3193E+03  0.1594E+04
      7.232  0.3137E+03  0.1609E+04
      7.279  0.2882E+03  0.1622E+04
      7.325  0.2565E+03  0.1634E+04
      7.372  0.2404E+03  0.1646E+04
      7.418  0.2484E+03  0.1657E+04
      7.465  0.2707E+03  0.1670E+04
      7.512  0.2845E+03  0.1683E+04
      7.558  0.2768E+03  0.1696E+04
      7.605  0.2588E+03  0.1708E+04
      7.651  0.2482E+03  0.1719E+04
      7.698  0.2567E+03  0.1731E+04
      7.745  0.2822E+03  0.1745E+04
      7.791  0.3051E+03  0.1759E+04
      7.838  0.3120E+03  0.1773E+04
      7.884  0.3089E+03  0.1788E+04
      7.931  0.3033E+03  0.1802E+04
      7.977  0.2962E+03  0.1816E+04
      8.024  0.2911E+03  0.1829E+04
      8.071  0.2956E+03  0.1843E+04
      8.117  0.3091E+03  0.1857E+04
      8.164  0.3172E+03  0.1872E+04
      8.210  0.3177E+03  0.1887E+04
      8.257  0.3293E+03  0.1902E+04
      8.304  0.3531E+03  0.1919E+04
      8.350  0.3625E+03  0.1936E+04
      8.397  0.3406E+03  0.1952E+04
      8.443  0.3009E+03  0.1966E+04
      8.490  0.2675E+03  0.1978E+04
      8.537  0.2557E+03  0.1990E+04
      8.583  0.2704E+03  0.2003E+04
      8.630  0.2951E+03  0.2016E+04
      8.676  0.3005E+03  0.2030E+04
      8.723  0.2846E+03  0.2044E+04
      8.770  0.2678E+03  0.2056E+04
      8.816  0.2571E+03  0.2068E+04
      8.863  0.2491E+03  0.2080E+04
      8.909  0.2451E+03  0.2091E+04
      8.956  0.2453E+03  0.2102E+04
      9.003  0.2531E+03  0.2114E+04
      9.049  0.2728E+03  0.2127E+04
      9.096  0.2841E+03  0.2140E+04
      9.142  0.2667E+03  0.2153E+04
      9.189  0.2413E+03  0.2164E+04
      9.236  0.2284E+03  0.2175E+04
      9.282  0.2201E+03  0.2185E+04
      9.329  0.2139E+03  0.2195E+04
      9.375  0.2214E+03  0.2205E+04
      9.422  0.2417E+03  0.2216E+04
      9.469  0.2618E+03  0.2229E+04
      9.515  0.2734E+03  0.2241E+04
      9.562  0.2772E+03  0.2254E+04
      9.608  0.2762E+03  0.2267E+04
      9.655  0.2711E+03  0.2280E+04
      9.702  0.2614E+03  0.2292E+04
      9.748  0.2446E+03  0.2303E+04
      9.795  0.2247E+03  0.2314E+04
      9.841  0.2192E+03  0.2324E+04
      9.888  0.2358E+03  0.2335E+04
      9.935  0.2634E+03  0.2347E+04
      9.981  0.2944E+03  0.2361E+04
     10.028  0.3266E+03  0.2376E+04
     10.074  0.3489E+03  0.2392E+04
     10.121  0.3469E+03  0.2409E+04
     10.168  0.3247E+03  0.2424E+04
     10.214  0.3102E+03  0.2438E+04
     10.261  0.3281E+03  0.2453E+04
     10.307  0.3852E+03  0.2471E+04
     10.354  0.4644E+03  0.2493E+04
     10.401  0.5179E+03  0.2517E+04
     10.447  0.5100E+03  0.2541E+04
     10.494  0.4522E+03  0.2562E+04
     10.540  0.3759E+03  0.2580E+04
     10.587  0.3039E+03  0.2594E+04
     10.634  0.2496E+03  0.2605E+04
     10.680  0.2134E+03  0.2615E+04
     10.727  0.1818E+03  0.2624E+04
     10.773  0.1432E+03  0.2630E+04
     10.820  0.9880E+02  0.2635E+04
     10.866  0.5783E+02  0.2638E+04
     10.913  0.2797E+02  0.2639E+04
     10.960  0.1056E+02  0.2639E+04
     11.006  0.2908E+01  0.2640E+04
     11.053  0.1268E+01  0.2640E+04
     11.099  0.1746E+01  0.2640E+04
     11.146  0.1645E+01  0.2640E+04
     11.193  0.7177E+00  0.2640E+04
     11.239  0.2156E-01  0.2640E+04
     11.286 -0.1151E+00  0.2640E+04
     11.332 -0.5221E-01  0.2640E+04
     11.379 -0.1149E-01  0.2640E+04
     11.426 -0.3509E-02  0.2640E+04
     11.472 -0.1315E-01  0.2640E+04
     11.519 -0.4238E-01  0.2640E+04
     11.565 -0.3581E-01  0.2640E+04
     11.612  0.1999E+00  0.2640E+04
     11.659  0.7161E+00  0.2640E+04
     11.705  0.1026E+01  0.2640E+04
     11.752  0.7224E+00  0.2640E+04
     11.798  0.2048E+00  0.2640E+04
     11.845 -0.3482E-01  0.2640E+04
     11.892 -0.4275E-01  0.2640E+04
     11.938 -0.1329E-01  0.2640E+04
     11.985 -0.2154E-02  0.2640E+04
     12.031 -0.2049E-03  0.2640E+04
     12.078 -0.1194E-04  0.2640E+04
     12.125 -0.4347E-06  0.2640E+04
     12.171 -0.1001E-07  0.2640E+04
     12.218 -0.1466E-09  0.2640E+04
     12.264 -0.1374E-11  0.2640E+04
     12.311 -0.8339E-14  0.2640E+04
     12.358  0.0000E+00  0.2640E+04
     12.404  0.0000E+00  0.2640E+04
     12.451  0.0000E+00  0.2640E+04
     12.497  0.0000E+00  0.2640E+04
     12.544  0.0000E+00  0.2640E+04
     12.591  0.0000E+00  0.2640E+04
     12.637  0.0000E+00  0.2640E+04
     12.684  0.0000E+00  0.2640E+04
