  32  32   0   0
  0.1411379E+02  0.9394088E-09  0.9398262E-09  0.5425063E-09  0.5000000E-15
  1.000000000000000E-004
  CAR 
 Ir_Ru                                   
     14.46920667     -1.12368556  301      9.07823192      1.00000000
     -1.124  0.0000E+00  0.0000E+00
     -1.072  0.0000E+00  0.0000E+00
     -1.020  0.0000E+00  0.0000E+00
     -0.968  0.0000E+00  0.0000E+00
     -0.916  0.0000E+00  0.0000E+00
     -0.864  0.0000E+00  0.0000E+00
     -0.812  0.0000E+00  0.0000E+00
     -0.760  0.0000E+00  0.0000E+00
     -0.708  0.0000E+00  0.0000E+00
     -0.656  0.0000E+00  0.0000E+00
     -0.604  0.0000E+00  0.0000E+00
     -0.552  0.0000E+00  0.0000E+00
     -0.500  0.0000E+00  0.0000E+00
     -0.448  0.0000E+00  0.0000E+00
     -0.396  0.0000E+00  0.0000E+00
     -0.344  0.0000E+00  0.0000E+00
     -0.292  0.0000E+00  0.0000E+00
     -0.240  0.0000E+00  0.0000E+00
     -0.188  0.0000E+00  0.0000E+00
     -0.136  0.0000E+00  0.0000E+00
     -0.084  0.1381E+00  0.1820E-02
     -0.032  0.5852E+00  0.2084E-01
      0.020  0.7879E+00  0.5772E-01
      0.072  0.9550E+00  0.1024E+00
      0.124  0.1192E+01  0.1579E+00
      0.176  0.1473E+01  0.2270E+00
      0.228  0.1792E+01  0.3126E+00
      0.280  0.1818E+01  0.4072E+00
      0.332  0.1939E+01  0.5036E+00
      0.384  0.2036E+01  0.6080E+00
      0.436  0.2032E+01  0.7152E+00
      0.488  0.1792E+01  0.8156E+00
      0.540  0.1561E+01  0.9023E+00
      0.592  0.1437E+01  0.9798E+00
      0.644  0.1356E+01  0.1053E+01
      0.695  0.1274E+01  0.1121E+01
      0.747  0.1313E+01  0.1187E+01
      0.799  0.1519E+01  0.1260E+01
      0.851  0.1832E+01  0.1347E+01
      0.903  0.2002E+01  0.1447E+01
      0.955  0.2243E+01  0.1557E+01
      1.007  0.2702E+01  0.1686E+01
      1.059  0.2773E+01  0.1830E+01
      1.111  0.2888E+01  0.1974E+01
      1.163  0.3139E+01  0.2139E+01
      1.215  0.3171E+01  0.2303E+01
      1.267  0.3320E+01  0.2471E+01
      1.319  0.3935E+01  0.2653E+01
      1.371  0.3727E+01  0.2838E+01
      1.423  0.3268E+01  0.3030E+01
      1.475  0.3389E+01  0.3200E+01
      1.527  0.3849E+01  0.3388E+01
      1.579  0.5061E+01  0.3613E+01
      1.631  0.5625E+01  0.3895E+01
      1.683  0.5896E+01  0.4214E+01
      1.735  0.5917E+01  0.4529E+01
      1.787  0.3598E+01  0.4775E+01
      1.839  0.3509E+01  0.4955E+01
      1.891  0.4716E+01  0.5172E+01
      1.943  0.5354E+01  0.5435E+01
      1.995  0.5918E+01  0.5721E+01
      2.047  0.7283E+01  0.6064E+01
      2.099  0.8206E+01  0.6473E+01
      2.151  0.8237E+01  0.6893E+01
      2.203  0.9414E+01  0.7340E+01
      2.255  0.1150E+02  0.7881E+01
      2.307  0.1200E+02  0.8485E+01
      2.359  0.1204E+02  0.9130E+01
      2.411  0.1386E+02  0.9757E+01
      2.463  0.1896E+02  0.1066E+02
      2.515  0.1783E+02  0.1162E+02
      2.567  0.1915E+02  0.1259E+02
      2.619  0.1993E+02  0.1358E+02
      2.671  0.2369E+02  0.1471E+02
      2.723  0.2564E+02  0.1593E+02
      2.775  0.2044E+02  0.1705E+02
      2.827  0.2525E+02  0.1823E+02
      2.878  0.2884E+02  0.1966E+02
      2.930  0.3044E+02  0.2122E+02
      2.982  0.3031E+02  0.2278E+02
      3.034  0.3459E+02  0.2447E+02
      3.086  0.3346E+02  0.2628E+02
      3.138  0.3551E+02  0.2808E+02
      3.190  0.3749E+02  0.3000E+02
      3.242  0.3920E+02  0.3199E+02
      3.294  0.4188E+02  0.3414E+02
      3.346  0.4421E+02  0.3641E+02
      3.398  0.4738E+02  0.3881E+02
      3.450  0.4970E+02  0.4132E+02
      3.502  0.4926E+02  0.4386E+02
      3.554  0.4988E+02  0.4644E+02
      3.606  0.4637E+02  0.4893E+02
      3.658  0.4281E+02  0.5126E+02
      3.710  0.4296E+02  0.5351E+02
      3.762  0.4437E+02  0.5582E+02
      3.814  0.4228E+02  0.5811E+02
      3.866  0.4246E+02  0.6040E+02
      3.918  0.4319E+02  0.6267E+02
      3.970  0.4172E+02  0.6485E+02
      4.022  0.4043E+02  0.6701E+02
      4.074  0.3836E+02  0.6902E+02
      4.126  0.3905E+02  0.7104E+02
      4.178  0.3786E+02  0.7306E+02
      4.230  0.3613E+02  0.7499E+02
      4.282  0.3735E+02  0.7693E+02
      4.334  0.3272E+02  0.7869E+02
      4.386  0.2940E+02  0.8030E+02
      4.438  0.2508E+02  0.8176E+02
      4.490  0.3215E+02  0.8325E+02
      4.542  0.3527E+02  0.8499E+02
      4.594  0.3416E+02  0.8683E+02
      4.646  0.3331E+02  0.8854E+02
      4.698  0.4512E+02  0.9063E+02
      4.750  0.3989E+02  0.9272E+02
      4.802  0.3792E+02  0.9483E+02
      4.854  0.3813E+02  0.9676E+02
      4.906  0.3811E+02  0.9874E+02
      4.958  0.3648E+02  0.1008E+03
      5.010  0.3508E+02  0.1026E+03
      5.061  0.3617E+02  0.1045E+03
      5.113  0.3500E+02  0.1064E+03
      5.165  0.3566E+02  0.1082E+03
      5.217  0.3790E+02  0.1102E+03
      5.269  0.3514E+02  0.1121E+03
      5.321  0.3660E+02  0.1139E+03
      5.373  0.3549E+02  0.1158E+03
      5.425  0.3737E+02  0.1177E+03
      5.477  0.3786E+02  0.1196E+03
      5.529  0.3892E+02  0.1216E+03
      5.581  0.4031E+02  0.1237E+03
      5.633  0.4104E+02  0.1257E+03
      5.685  0.3975E+02  0.1278E+03
      5.737  0.3963E+02  0.1299E+03
      5.789  0.4162E+02  0.1320E+03
      5.841  0.4060E+02  0.1341E+03
      5.893  0.4074E+02  0.1362E+03
      5.945  0.4194E+02  0.1383E+03
      5.997  0.4291E+02  0.1406E+03
      6.049  0.4675E+02  0.1429E+03
      6.101  0.4871E+02  0.1454E+03
      6.153  0.4930E+02  0.1480E+03
      6.205  0.5159E+02  0.1506E+03
      6.257  0.5146E+02  0.1532E+03
      6.309  0.5361E+02  0.1559E+03
      6.361  0.5634E+02  0.1588E+03
      6.413  0.5589E+02  0.1617E+03
      6.465  0.6047E+02  0.1647E+03
      6.517  0.6034E+02  0.1679E+03
      6.569  0.6634E+02  0.1712E+03
      6.621  0.7041E+02  0.1749E+03
      6.673  0.6333E+02  0.1783E+03
      6.725  0.4840E+02  0.1812E+03
      6.777  0.4533E+02  0.1837E+03
      6.829  0.4011E+02  0.1860E+03
      6.881  0.3805E+02  0.1879E+03
      6.933  0.3953E+02  0.1900E+03
      6.985  0.4107E+02  0.1920E+03
      7.037  0.4146E+02  0.1943E+03
      7.089  0.3949E+02  0.1964E+03
      7.141  0.3514E+02  0.1984E+03
      7.193  0.3483E+02  0.2001E+03
      7.244  0.3495E+02  0.2020E+03
      7.296  0.3483E+02  0.2039E+03
      7.348  0.3694E+02  0.2058E+03
      7.400  0.3444E+02  0.2076E+03
      7.452  0.3392E+02  0.2094E+03
      7.504  0.3165E+02  0.2111E+03
      7.556  0.3060E+02  0.2127E+03
      7.608  0.3238E+02  0.2143E+03
      7.660  0.3255E+02  0.2160E+03
      7.712  0.3488E+02  0.2177E+03
      7.764  0.4075E+02  0.2196E+03
      7.816  0.3992E+02  0.2217E+03
      7.868  0.3896E+02  0.2237E+03
      7.920  0.3940E+02  0.2257E+03
      7.972  0.3933E+02  0.2277E+03
      8.024  0.3495E+02  0.2297E+03
      8.076  0.4118E+02  0.2317E+03
      8.128  0.4343E+02  0.2339E+03
      8.180  0.4221E+02  0.2362E+03
      8.232  0.3920E+02  0.2383E+03
      8.284  0.3780E+02  0.2403E+03
      8.336  0.3929E+02  0.2422E+03
      8.388  0.3848E+02  0.2443E+03
      8.440  0.3729E+02  0.2462E+03
      8.492  0.3635E+02  0.2481E+03
      8.544  0.3659E+02  0.2500E+03
      8.596  0.3759E+02  0.2520E+03
      8.648  0.3718E+02  0.2539E+03
      8.700  0.3670E+02  0.2558E+03
      8.752  0.3259E+02  0.2576E+03
      8.804  0.3079E+02  0.2593E+03
      8.856  0.3242E+02  0.2609E+03
      8.908  0.3256E+02  0.2625E+03
      8.960  0.3223E+02  0.2642E+03
      9.012  0.3113E+02  0.2659E+03
      9.064  0.3146E+02  0.2675E+03
      9.116  0.3213E+02  0.2692E+03
      9.168  0.3256E+02  0.2709E+03
      9.220  0.3182E+02  0.2726E+03
      9.272  0.3135E+02  0.2743E+03
      9.324  0.3213E+02  0.2759E+03
      9.376  0.3516E+02  0.2776E+03
      9.428  0.3778E+02  0.2795E+03
      9.479  0.3466E+02  0.2814E+03
      9.531  0.2988E+02  0.2831E+03
      9.583  0.2953E+02  0.2846E+03
      9.635  0.2809E+02  0.2861E+03
      9.687  0.2863E+02  0.2876E+03
      9.739  0.2982E+02  0.2891E+03
      9.791  0.3308E+02  0.2907E+03
      9.843  0.3461E+02  0.2925E+03
      9.895  0.3434E+02  0.2942E+03
      9.947  0.3724E+02  0.2960E+03
      9.999  0.3725E+02  0.2980E+03
     10.051  0.3623E+02  0.2999E+03
     10.103  0.3931E+02  0.3019E+03
     10.155  0.4223E+02  0.3040E+03
     10.207  0.4475E+02  0.3063E+03
     10.259  0.4335E+02  0.3086E+03
     10.311  0.4078E+02  0.3108E+03
     10.363  0.3741E+02  0.3128E+03
     10.415  0.3247E+02  0.3146E+03
     10.467  0.2621E+02  0.3162E+03
     10.519  0.1848E+02  0.3173E+03
     10.571  0.1170E+02  0.3181E+03
     10.623  0.5698E+01  0.3185E+03
     10.675  0.2449E+01  0.3187E+03
     10.727  0.1768E+01  0.3188E+03
     10.779  0.1410E+01  0.3189E+03
     10.831  0.1195E+01  0.3190E+03
     10.883  0.1103E+01  0.3190E+03
     10.935  0.1034E+01  0.3191E+03
     10.987  0.9722E+00  0.3192E+03
     11.039  0.9151E+00  0.3192E+03
     11.091  0.8628E+00  0.3193E+03
     11.143  0.8164E+00  0.3193E+03
     11.195  0.7750E+00  0.3193E+03
     11.247  0.7385E+00  0.3194E+03
     11.299  0.7068E+00  0.3194E+03
     11.351  0.6780E+00  0.3194E+03
     11.403  0.6502E+00  0.3195E+03
     11.455  0.6233E+00  0.3195E+03
     11.507  0.5970E+00  0.3195E+03
     11.559  0.5716E+00  0.3196E+03
     11.611  0.5465E+00  0.3196E+03
     11.662  0.5212E+00  0.3196E+03
     11.714  0.4955E+00  0.3197E+03
     11.766  0.4705E+00  0.3197E+03
     11.818  0.4465E+00  0.3197E+03
     11.870  0.4236E+00  0.3197E+03
     11.922  0.4016E+00  0.3198E+03
     11.974  0.3806E+00  0.3198E+03
     12.026  0.3602E+00  0.3198E+03
     12.078  0.3405E+00  0.3198E+03
     12.130  0.3216E+00  0.3198E+03
     12.182  0.3033E+00  0.3198E+03
     12.234  0.2852E+00  0.3199E+03
     12.286  0.2674E+00  0.3199E+03
     12.338  0.2493E+00  0.3199E+03
     12.390  0.2309E+00  0.3199E+03
     12.442  0.2129E+00  0.3199E+03
     12.494  0.1967E+00  0.3199E+03
     12.546  0.1815E+00  0.3199E+03
     12.598  0.1680E+00  0.3199E+03
     12.650  0.1546E+00  0.3200E+03
     12.702  0.1415E+00  0.3200E+03
     12.754  0.1231E+00  0.3200E+03
     12.806  0.1095E+00  0.3200E+03
     12.858  0.9779E-01  0.3200E+03
     12.910  0.9005E-01  0.3200E+03
     12.962  0.8567E-01  0.3200E+03
     13.014  0.7072E-01  0.3200E+03
     13.066  0.5305E-01  0.3200E+03
     13.118  0.3829E-01  0.3200E+03
     13.170  0.2659E-01  0.3200E+03
     13.222  0.1858E-01  0.3200E+03
     13.274  0.1257E-01  0.3200E+03
     13.326  0.7928E-02  0.3200E+03
     13.378  0.4591E-02  0.3200E+03
     13.430  0.1874E-02  0.3200E+03
     13.482  0.0000E+00  0.3200E+03
     13.534  0.0000E+00  0.3200E+03
     13.586  0.0000E+00  0.3200E+03
     13.638  0.0000E+00  0.3200E+03
     13.690  0.0000E+00  0.3200E+03
     13.742  0.0000E+00  0.3200E+03
     13.794  0.0000E+00  0.3200E+03
     13.845  0.0000E+00  0.3200E+03
     13.897  0.0000E+00  0.3200E+03
     13.949  0.0000E+00  0.3200E+03
     14.001  0.0000E+00  0.3200E+03
     14.053  0.0000E+00  0.3200E+03
     14.105  0.0000E+00  0.3200E+03
     14.157  0.0000E+00  0.3200E+03
     14.209  0.0000E+00  0.3200E+03
     14.261  0.0000E+00  0.3200E+03
     14.313  0.0000E+00  0.3200E+03
     14.365  0.0000E+00  0.3200E+03
     14.417  0.0000E+00  0.3200E+03
     14.469  0.0000E+00  0.3200E+03
