 256 256   0   0
  0.1418917E+02  0.1588033E-08  0.1692661E-08  0.1693229E-08  0.5000000E-15
  1.000000000000000E-004
  CAR 
 Ir_Ru                                   
     14.28408054     -1.29167477  301      9.45681177      1.00000000
     -1.292  0.0000E+00  0.0000E+00
     -1.240  0.0000E+00  0.0000E+00
     -1.188  0.0000E+00  0.0000E+00
     -1.136 -0.2832E-30 -0.1470E-31
     -1.084 -0.1302E-26 -0.6762E-28
     -1.032 -0.3477E-23 -0.1806E-24
     -0.980 -0.5389E-20 -0.2800E-21
     -0.928 -0.4844E-17 -0.2518E-18
     -0.876 -0.2463E-14 -0.1281E-15
     -0.824 -0.7336E-12 -0.3822E-13
     -0.772 -0.1267E-09 -0.6616E-11
     -0.721 -0.1258E-07 -0.6597E-09
     -0.669 -0.7151E-06 -0.3779E-07
     -0.617 -0.2315E-04 -0.1240E-05
     -0.565 -0.4234E-03 -0.2322E-04
     -0.513 -0.4336E-02 -0.2484E-03
     -0.461 -0.2459E-01 -0.1525E-02
     -0.409 -0.7570E-01 -0.5456E-02
     -0.357 -0.1014E+00 -0.1072E-01
     -0.305  0.2131E+00  0.3407E-03
     -0.253  0.1663E+01  0.8671E-01
     -0.201  0.4430E+01  0.3167E+00
     -0.149  0.6363E+01  0.6471E+00
     -0.098  0.6421E+01  0.9804E+00
     -0.046  0.6979E+01  0.1343E+01
      0.006  0.8887E+01  0.1804E+01
      0.058  0.1121E+02  0.2386E+01
      0.110  0.1364E+02  0.3094E+01
      0.162  0.1433E+02  0.3838E+01
      0.214  0.1165E+02  0.4443E+01
      0.266  0.1008E+02  0.4967E+01
      0.318  0.1436E+02  0.5712E+01
      0.370  0.2041E+02  0.6772E+01
      0.422  0.2253E+02  0.7942E+01
      0.474  0.2272E+02  0.9121E+01
      0.525  0.2351E+02  0.1034E+02
      0.577  0.2248E+02  0.1151E+02
      0.629  0.2044E+02  0.1257E+02
      0.681  0.2103E+02  0.1366E+02
      0.733  0.2030E+02  0.1472E+02
      0.785  0.1445E+02  0.1547E+02
      0.837  0.8814E+01  0.1592E+02
      0.889  0.8088E+01  0.1634E+02
      0.941  0.1186E+02  0.1696E+02
      0.993  0.1914E+02  0.1795E+02
      1.045  0.2802E+02  0.1941E+02
      1.097  0.3336E+02  0.2114E+02
      1.149  0.3300E+02  0.2285E+02
      1.200  0.2870E+02  0.2434E+02
      1.252  0.2271E+02  0.2552E+02
      1.304  0.1945E+02  0.2653E+02
      1.356  0.2176E+02  0.2766E+02
      1.408  0.2727E+02  0.2908E+02
      1.460  0.3038E+02  0.3065E+02
      1.512  0.2983E+02  0.3220E+02
      1.564  0.2934E+02  0.3373E+02
      1.616  0.3042E+02  0.3530E+02
      1.668  0.3113E+02  0.3692E+02
      1.720  0.3214E+02  0.3859E+02
      1.772  0.3516E+02  0.4042E+02
      1.823  0.3917E+02  0.4245E+02
      1.875  0.4565E+02  0.4482E+02
      1.927  0.5491E+02  0.4767E+02
      1.979  0.5938E+02  0.5075E+02
      2.031  0.5458E+02  0.5359E+02
      2.083  0.5056E+02  0.5621E+02
      2.135  0.6216E+02  0.5944E+02
      2.187  0.8763E+02  0.6399E+02
      2.239  0.1092E+03  0.6966E+02
      2.291  0.1200E+03  0.7589E+02
      2.343  0.1260E+03  0.8243E+02
      2.395  0.1318E+03  0.8927E+02
      2.447  0.1379E+03  0.9643E+02
      2.498  0.1477E+03  0.1041E+03
      2.550  0.1651E+03  0.1127E+03
      2.602  0.1835E+03  0.1222E+03
      2.654  0.1952E+03  0.1323E+03
      2.706  0.2071E+03  0.1431E+03
      2.758  0.2239E+03  0.1547E+03
      2.810  0.2305E+03  0.1667E+03
      2.862  0.2244E+03  0.1783E+03
      2.914  0.2283E+03  0.1902E+03
      2.966  0.2459E+03  0.2030E+03
      3.018  0.2583E+03  0.2164E+03
      3.070  0.2602E+03  0.2299E+03
      3.121  0.2607E+03  0.2434E+03
      3.173  0.2644E+03  0.2571E+03
      3.225  0.2737E+03  0.2713E+03
      3.277  0.2889E+03  0.2863E+03
      3.329  0.3082E+03  0.3023E+03
      3.381  0.3249E+03  0.3192E+03
      3.433  0.3310E+03  0.3364E+03
      3.485  0.3278E+03  0.3534E+03
      3.537  0.3214E+03  0.3701E+03
      3.589  0.3183E+03  0.3866E+03
      3.641  0.3164E+03  0.4031E+03
      3.693  0.3106E+03  0.4192E+03
      3.744  0.3049E+03  0.4350E+03
      3.796  0.3010E+03  0.4506E+03
      3.848  0.2966E+03  0.4660E+03
      3.900  0.2931E+03  0.4813E+03
      3.952  0.2880E+03  0.4962E+03
      4.004  0.2752E+03  0.5105E+03
      4.056  0.2663E+03  0.5243E+03
      4.108  0.2765E+03  0.5387E+03
      4.160  0.2950E+03  0.5540E+03
      4.212  0.3029E+03  0.5697E+03
      4.264  0.3053E+03  0.5856E+03
      4.316  0.3126E+03  0.6018E+03
      4.368  0.3191E+03  0.6184E+03
      4.419  0.3216E+03  0.6351E+03
      4.471  0.3237E+03  0.6519E+03
      4.523  0.3204E+03  0.6685E+03
      4.575  0.3086E+03  0.6845E+03
      4.627  0.2968E+03  0.6999E+03
      4.679  0.2937E+03  0.7152E+03
      4.731  0.2987E+03  0.7307E+03
      4.783  0.3065E+03  0.7466E+03
      4.835  0.3188E+03  0.7632E+03
      4.887  0.3322E+03  0.7804E+03
      4.939  0.3382E+03  0.7980E+03
      4.991  0.3462E+03  0.8159E+03
      5.042  0.3593E+03  0.8346E+03
      5.094  0.3660E+03  0.8536E+03
      5.146  0.3639E+03  0.8725E+03
      5.198  0.3541E+03  0.8909E+03
      5.250  0.3328E+03  0.9081E+03
      5.302  0.2996E+03  0.9237E+03
      5.354  0.2580E+03  0.9371E+03
      5.406  0.2150E+03  0.9483E+03
      5.458  0.1824E+03  0.9577E+03
      5.510  0.1728E+03  0.9667E+03
      5.562  0.1916E+03  0.9766E+03
      5.614  0.2309E+03  0.9886E+03
      5.665  0.2797E+03  0.1003E+04
      5.717  0.3295E+03  0.1020E+04
      5.769  0.3705E+03  0.1039E+04
      5.821  0.3967E+03  0.1060E+04
      5.873  0.4113E+03  0.1081E+04
      5.925  0.4199E+03  0.1103E+04
      5.977  0.4261E+03  0.1125E+04
      6.029  0.4276E+03  0.1148E+04
      6.081  0.4145E+03  0.1169E+04
      6.133  0.3901E+03  0.1189E+04
      6.185  0.3707E+03  0.1209E+04
      6.237  0.3605E+03  0.1227E+04
      6.289  0.3551E+03  0.1246E+04
      6.340  0.3571E+03  0.1264E+04
      6.392  0.3704E+03  0.1284E+04
      6.444  0.3822E+03  0.1303E+04
      6.496  0.3843E+03  0.1323E+04
      6.548  0.3929E+03  0.1344E+04
      6.600  0.4115E+03  0.1365E+04
      6.652  0.4248E+03  0.1387E+04
      6.704  0.4282E+03  0.1409E+04
      6.756  0.4246E+03  0.1431E+04
      6.808  0.4117E+03  0.1453E+04
      6.860  0.3902E+03  0.1473E+04
      6.912  0.3724E+03  0.1492E+04
      6.963  0.3662E+03  0.1511E+04
      7.015  0.3635E+03  0.1530E+04
      7.067  0.3694E+03  0.1549E+04
      7.119  0.3938E+03  0.1570E+04
      7.171  0.4162E+03  0.1591E+04
      7.223  0.4225E+03  0.1613E+04
      7.275  0.4221E+03  0.1635E+04
      7.327  0.4117E+03  0.1657E+04
      7.379  0.3851E+03  0.1677E+04
      7.431  0.3565E+03  0.1695E+04
      7.483  0.3391E+03  0.1713E+04
      7.535  0.3324E+03  0.1730E+04
      7.587  0.3283E+03  0.1747E+04
      7.638  0.3154E+03  0.1763E+04
      7.690  0.2935E+03  0.1779E+04
      7.742  0.2762E+03  0.1793E+04
      7.794  0.2681E+03  0.1807E+04
      7.846  0.2632E+03  0.1821E+04
      7.898  0.2568E+03  0.1834E+04
      7.950  0.2476E+03  0.1847E+04
      8.002  0.2426E+03  0.1859E+04
      8.054  0.2431E+03  0.1872E+04
      8.106  0.2385E+03  0.1884E+04
      8.158  0.2308E+03  0.1896E+04
      8.210  0.2293E+03  0.1908E+04
      8.261  0.2340E+03  0.1920E+04
      8.313  0.2380E+03  0.1933E+04
      8.365  0.2390E+03  0.1945E+04
      8.417  0.2363E+03  0.1958E+04
      8.469  0.2276E+03  0.1969E+04
      8.521  0.2175E+03  0.1981E+04
      8.573  0.2116E+03  0.1992E+04
      8.625  0.2065E+03  0.2002E+04
      8.677  0.1990E+03  0.2013E+04
      8.729  0.1905E+03  0.2023E+04
      8.781  0.1825E+03  0.2032E+04
      8.833  0.1796E+03  0.2041E+04
      8.884  0.1901E+03  0.2051E+04
      8.936  0.2160E+03  0.2062E+04
      8.988  0.2366E+03  0.2075E+04
      9.040  0.2355E+03  0.2087E+04
      9.092  0.2219E+03  0.2098E+04
      9.144  0.2043E+03  0.2109E+04
      9.196  0.1851E+03  0.2119E+04
      9.248  0.1796E+03  0.2128E+04
      9.300  0.2008E+03  0.2138E+04
      9.352  0.2312E+03  0.2150E+04
      9.404  0.2434E+03  0.2163E+04
      9.456  0.2429E+03  0.2176E+04
      9.508  0.2452E+03  0.2188E+04
      9.559  0.2440E+03  0.2201E+04
      9.611  0.2478E+03  0.2214E+04
      9.663  0.2794E+03  0.2228E+04
      9.715  0.3214E+03  0.2245E+04
      9.767  0.3354E+03  0.2263E+04
      9.819  0.3249E+03  0.2279E+04
      9.871  0.3161E+03  0.2296E+04
      9.923  0.3156E+03  0.2312E+04
      9.975  0.3233E+03  0.2329E+04
     10.027  0.3469E+03  0.2347E+04
     10.079  0.3846E+03  0.2367E+04
     10.131  0.4157E+03  0.2389E+04
     10.182  0.4295E+03  0.2411E+04
     10.234  0.4373E+03  0.2434E+04
     10.286  0.4505E+03  0.2457E+04
     10.338  0.4690E+03  0.2481E+04
     10.390  0.4864E+03  0.2507E+04
     10.442  0.4945E+03  0.2532E+04
     10.494  0.4831E+03  0.2557E+04
     10.546  0.4427E+03  0.2580E+04
     10.598  0.3824E+03  0.2600E+04
     10.650  0.3144E+03  0.2616E+04
     10.702  0.2303E+03  0.2628E+04
     10.754  0.1298E+03  0.2635E+04
     10.805  0.4396E+02  0.2637E+04
     10.857  0.1606E+01  0.2638E+04
     10.909 -0.5541E+01  0.2637E+04
     10.961 -0.2433E+01  0.2637E+04
     11.013 -0.5144E+00  0.2637E+04
     11.065 -0.6618E-01  0.2637E+04
     11.117 -0.5786E-02  0.2637E+04
     11.169 -0.3537E-03  0.2637E+04
     11.221 -0.1441E-04  0.2637E+04
     11.273 -0.3658E-06  0.2637E+04
     11.325 -0.5551E-08  0.2637E+04
     11.377 -0.4931E-10  0.2637E+04
     11.429 -0.1111E-11  0.2637E+04
     11.480 -0.1568E-09  0.2637E+04
     11.532 -0.1650E-07  0.2637E+04
     11.584 -0.9955E-06  0.2637E+04
     11.636 -0.3422E-04  0.2637E+04
     11.688 -0.6635E-03  0.2637E+04
     11.740 -0.7098E-02  0.2637E+04
     11.792 -0.3968E-01  0.2637E+04
     11.844 -0.9403E-01  0.2637E+04
     11.896  0.6306E-01  0.2637E+04
     11.948  0.8695E+00  0.2637E+04
     12.000  0.2105E+01  0.2637E+04
     12.052  0.2644E+01  0.2637E+04
     12.103  0.1944E+01  0.2637E+04
     12.155  0.7980E+00  0.2638E+04
     12.207  0.6554E+00  0.2638E+04
     12.259  0.2159E+01  0.2638E+04
     12.311  0.3666E+01  0.2638E+04
     12.363  0.3390E+01  0.2638E+04
     12.415  0.2213E+01  0.2638E+04
     12.467  0.1616E+01  0.2638E+04
     12.519  0.1800E+01  0.2638E+04
     12.571  0.2491E+01  0.2638E+04
     12.623  0.3208E+01  0.2639E+04
     12.675  0.3880E+01  0.2639E+04
     12.727  0.4210E+01  0.2639E+04
     12.778  0.3239E+01  0.2639E+04
     12.830  0.2063E+01  0.2639E+04
     12.882  0.2337E+01  0.2639E+04
     12.934  0.2887E+01  0.2640E+04
     12.986  0.2269E+01  0.2640E+04
     13.038  0.9725E+00  0.2640E+04
     13.090  0.3142E+00  0.2640E+04
     13.142  0.5891E+00  0.2640E+04
     13.194  0.8640E+00  0.2640E+04
     13.246  0.8635E+00  0.2640E+04
     13.298  0.9097E+00  0.2640E+04
     13.350  0.6606E+00  0.2640E+04
     13.401  0.1810E+00  0.2640E+04
     13.453 -0.3696E-01  0.2640E+04
     13.505 -0.3240E-01  0.2640E+04
     13.557 -0.7307E-02  0.2640E+04
     13.609 -0.7833E-03  0.2640E+04
     13.661 -0.4458E-04  0.2640E+04
     13.713 -0.1403E-05  0.2640E+04
     13.765 -0.2492E-07  0.2640E+04
     13.817 -0.2521E-09  0.2640E+04
     13.869 -0.1463E-11  0.2640E+04
     13.921 -0.5227E-14  0.2640E+04
     13.973  0.0000E+00  0.2640E+04
     14.024  0.0000E+00  0.2640E+04
     14.076  0.0000E+00  0.2640E+04
     14.128  0.0000E+00  0.2640E+04
     14.180  0.0000E+00  0.2640E+04
     14.232  0.0000E+00  0.2640E+04
     14.284  0.0000E+00  0.2640E+04
