 256 256   0   0
  0.1419206E+02  0.1537080E-08  0.1537218E-08  0.1537636E-08  0.5000000E-15
  1.000000000000000E-004
  CAR 
 Ir_Ru                                   
     12.68303338     -1.29509827  301      9.24210724      1.00000000
     -1.295  0.0000E+00  0.0000E+00
     -1.249  0.0000E+00  0.0000E+00
     -1.202  0.0000E+00  0.0000E+00
     -1.155  0.0000E+00  0.0000E+00
     -1.109 -0.2740E-28 -0.1276E-29
     -1.062 -0.4084E-25 -0.1904E-26
     -1.016 -0.3928E-22 -0.1832E-23
     -0.969 -0.2438E-19 -0.1138E-20
     -0.922 -0.9766E-17 -0.4562E-18
     -0.876 -0.2449E-14 -0.1146E-15
     -0.829 -0.4061E-12 -0.1904E-13
     -0.783 -0.4337E-10 -0.2040E-11
     -0.736 -0.2985E-08 -0.1411E-09
     -0.689 -0.1325E-06 -0.6314E-08
     -0.643 -0.3797E-05 -0.1832E-06
     -0.596 -0.7048E-04 -0.3467E-05
     -0.550 -0.8496E-03 -0.4305E-04
     -0.503 -0.6654E-02 -0.3531E-03
     -0.456 -0.3345E-01 -0.1912E-02
     -0.410 -0.1018E+00 -0.6657E-02
     -0.363 -0.1379E+00 -0.1308E-01
     -0.317  0.2219E+00 -0.2746E-02
     -0.270  0.1504E+01  0.6735E-01
     -0.223  0.3533E+01  0.2320E+00
     -0.177  0.5068E+01  0.4681E+00
     -0.130  0.5731E+01  0.7352E+00
     -0.084  0.7320E+01  0.1076E+01
     -0.037  0.1019E+02  0.1551E+01
      0.010  0.1102E+02  0.2065E+01
      0.056  0.9158E+01  0.2491E+01
      0.103  0.9377E+01  0.2928E+01
      0.149  0.1314E+02  0.3541E+01
      0.196  0.1591E+02  0.4282E+01
      0.242  0.1605E+02  0.5030E+01
      0.289  0.1673E+02  0.5810E+01
      0.336  0.1849E+02  0.6671E+01
      0.382  0.1835E+02  0.7526E+01
      0.429  0.1744E+02  0.8339E+01
      0.475  0.1980E+02  0.9262E+01
      0.522  0.2337E+02  0.1035E+02
      0.569  0.2406E+02  0.1147E+02
      0.615  0.2230E+02  0.1251E+02
      0.662  0.1875E+02  0.1338E+02
      0.708  0.1410E+02  0.1404E+02
      0.755  0.1115E+02  0.1456E+02
      0.802  0.1071E+02  0.1506E+02
      0.848  0.1112E+02  0.1558E+02
      0.895  0.1210E+02  0.1614E+02
      0.941  0.1456E+02  0.1682E+02
      0.988  0.1824E+02  0.1767E+02
      1.035  0.2279E+02  0.1873E+02
      1.081  0.2801E+02  0.2004E+02
      1.128  0.3125E+02  0.2149E+02
      1.174  0.2978E+02  0.2288E+02
      1.221  0.2595E+02  0.2409E+02
      1.268  0.2310E+02  0.2517E+02
      1.314  0.2099E+02  0.2614E+02
      1.361  0.2002E+02  0.2708E+02
      1.407  0.2157E+02  0.2808E+02
      1.454  0.2403E+02  0.2920E+02
      1.501  0.2564E+02  0.3040E+02
      1.547  0.2890E+02  0.3174E+02
      1.594  0.3502E+02  0.3337E+02
      1.640  0.3874E+02  0.3518E+02
      1.687  0.3790E+02  0.3695E+02
      1.733  0.3920E+02  0.3877E+02
      1.780  0.4540E+02  0.4089E+02
      1.827  0.4933E+02  0.4319E+02
      1.873  0.4787E+02  0.4542E+02
      1.920  0.4727E+02  0.4762E+02
      1.966  0.5084E+02  0.4999E+02
      2.013  0.5411E+02  0.5251E+02
      2.060  0.5547E+02  0.5509E+02
      2.106  0.6122E+02  0.5795E+02
      2.153  0.7432E+02  0.6141E+02
      2.199  0.8919E+02  0.6556E+02
      2.246  0.1029E+03  0.7036E+02
      2.293  0.1176E+03  0.7584E+02
      2.339  0.1309E+03  0.8194E+02
      2.386  0.1382E+03  0.8838E+02
      2.432  0.1431E+03  0.9505E+02
      2.479  0.1521E+03  0.1021E+03
      2.526  0.1608E+03  0.1096E+03
      2.572  0.1617E+03  0.1172E+03
      2.619  0.1613E+03  0.1247E+03
      2.665  0.1688E+03  0.1325E+03
      2.712  0.1784E+03  0.1409E+03
      2.759  0.1847E+03  0.1495E+03
      2.805  0.1974E+03  0.1587E+03
      2.852  0.2224E+03  0.1690E+03
      2.898  0.2472E+03  0.1805E+03
      2.945  0.2563E+03  0.1925E+03
      2.992  0.2499E+03  0.2041E+03
      3.038  0.2467E+03  0.2156E+03
      3.085  0.2616E+03  0.2278E+03
      3.131  0.2860E+03  0.2411E+03
      3.178  0.3009E+03  0.2552E+03
      3.224  0.3037E+03  0.2693E+03
      3.271  0.3049E+03  0.2835E+03
      3.318  0.3083E+03  0.2979E+03
      3.364  0.3110E+03  0.3124E+03
      3.411  0.3143E+03  0.3270E+03
      3.457  0.3214E+03  0.3420E+03
      3.504  0.3330E+03  0.3575E+03
      3.551  0.3439E+03  0.3735E+03
      3.597  0.3470E+03  0.3897E+03
      3.644  0.3450E+03  0.4058E+03
      3.690  0.3487E+03  0.4220E+03
      3.737  0.3577E+03  0.4387E+03
      3.784  0.3596E+03  0.4554E+03
      3.830  0.3525E+03  0.4719E+03
      3.877  0.3478E+03  0.4881E+03
      3.923  0.3496E+03  0.5044E+03
      3.970  0.3507E+03  0.5207E+03
      4.017  0.3418E+03  0.5366E+03
      4.063  0.3233E+03  0.5517E+03
      4.110  0.3070E+03  0.5660E+03
      4.156  0.2977E+03  0.5799E+03
      4.203  0.2877E+03  0.5933E+03
      4.250  0.2717E+03  0.6059E+03
      4.296  0.2540E+03  0.6178E+03
      4.343  0.2428E+03  0.6291E+03
      4.389  0.2451E+03  0.6405E+03
      4.436  0.2576E+03  0.6525E+03
      4.483  0.2618E+03  0.6647E+03
      4.529  0.2509E+03  0.6764E+03
      4.576  0.2474E+03  0.6879E+03
      4.622  0.2666E+03  0.7003E+03
      4.669  0.2915E+03  0.7139E+03
      4.715  0.3066E+03  0.7282E+03
      4.762  0.3135E+03  0.7428E+03
      4.809  0.3136E+03  0.7574E+03
      4.855  0.3052E+03  0.7716E+03
      4.902  0.2905E+03  0.7852E+03
      4.948  0.2786E+03  0.7982E+03
      4.995  0.2810E+03  0.8113E+03
      5.042  0.2948E+03  0.8250E+03
      5.088  0.3076E+03  0.8393E+03
      5.135  0.3093E+03  0.8537E+03
      5.181  0.2980E+03  0.8676E+03
      5.228  0.2858E+03  0.8809E+03
      5.275  0.2843E+03  0.8942E+03
      5.321  0.2902E+03  0.9077E+03
      5.368  0.2972E+03  0.9215E+03
      5.414  0.3018E+03  0.9356E+03
      5.461  0.2988E+03  0.9495E+03
      5.508  0.2890E+03  0.9630E+03
      5.554  0.2866E+03  0.9763E+03
      5.601  0.3022E+03  0.9904E+03
      5.647  0.3212E+03  0.1005E+04
      5.694  0.3254E+03  0.1021E+04
      5.741  0.3203E+03  0.1035E+04
      5.787  0.3198E+03  0.1050E+04
      5.834  0.3260E+03  0.1066E+04
      5.880  0.3364E+03  0.1081E+04
      5.927  0.3497E+03  0.1098E+04
      5.974  0.3649E+03  0.1115E+04
      6.020  0.3786E+03  0.1132E+04
      6.067  0.3854E+03  0.1150E+04
      6.113  0.3875E+03  0.1168E+04
      6.160  0.3915E+03  0.1186E+04
      6.206  0.3983E+03  0.1205E+04
      6.253  0.4091E+03  0.1224E+04
      6.300  0.4266E+03  0.1244E+04
      6.346  0.4461E+03  0.1265E+04
      6.393  0.4573E+03  0.1286E+04
      6.439  0.4573E+03  0.1307E+04
      6.486  0.4533E+03  0.1328E+04
      6.533  0.4502E+03  0.1349E+04
      6.579  0.4458E+03  0.1370E+04
      6.626  0.4393E+03  0.1391E+04
      6.672  0.4320E+03  0.1411E+04
      6.719  0.4250E+03  0.1431E+04
      6.766  0.4172E+03  0.1450E+04
      6.812  0.4021E+03  0.1469E+04
      6.859  0.3775E+03  0.1486E+04
      6.905  0.3548E+03  0.1503E+04
      6.952  0.3443E+03  0.1519E+04
      6.999  0.3394E+03  0.1535E+04
      7.045  0.3281E+03  0.1550E+04
      7.092  0.3150E+03  0.1565E+04
      7.138  0.3134E+03  0.1579E+04
      7.185  0.3193E+03  0.1594E+04
      7.232  0.3139E+03  0.1609E+04
      7.278  0.2885E+03  0.1622E+04
      7.325  0.2567E+03  0.1634E+04
      7.371  0.2403E+03  0.1645E+04
      7.418  0.2481E+03  0.1657E+04
      7.465  0.2705E+03  0.1670E+04
      7.511  0.2846E+03  0.1683E+04
      7.558  0.2770E+03  0.1696E+04
      7.604  0.2590E+03  0.1708E+04
      7.651  0.2483E+03  0.1719E+04
      7.697  0.2566E+03  0.1731E+04
      7.744  0.2820E+03  0.1744E+04
      7.791  0.3050E+03  0.1759E+04
      7.837  0.3120E+03  0.1773E+04
      7.884  0.3090E+03  0.1788E+04
      7.930  0.3033E+03  0.1802E+04
      7.977  0.2963E+03  0.1816E+04
      8.024  0.2911E+03  0.1829E+04
      8.070  0.2954E+03  0.1843E+04
      8.117  0.3088E+03  0.1857E+04
      8.163  0.3169E+03  0.1872E+04
      8.210  0.3176E+03  0.1887E+04
      8.257  0.3291E+03  0.1902E+04
      8.303  0.3529E+03  0.1919E+04
      8.350  0.3626E+03  0.1936E+04
      8.396  0.3411E+03  0.1951E+04
      8.443  0.3014E+03  0.1965E+04
      8.490  0.2678E+03  0.1978E+04
      8.536  0.2556E+03  0.1990E+04
      8.583  0.2700E+03  0.2002E+04
      8.629  0.2949E+03  0.2016E+04
      8.676  0.3005E+03  0.2030E+04
      8.723  0.2847E+03  0.2043E+04
      8.769  0.2680E+03  0.2056E+04
      8.816  0.2572E+03  0.2068E+04
      8.862  0.2492E+03  0.2080E+04
      8.909  0.2452E+03  0.2091E+04
      8.956  0.2452E+03  0.2102E+04
      9.002  0.2529E+03  0.2114E+04
      9.049  0.2726E+03  0.2127E+04
      9.095  0.2842E+03  0.2140E+04
      9.142  0.2671E+03  0.2153E+04
      9.189  0.2415E+03  0.2164E+04
      9.235  0.2285E+03  0.2174E+04
      9.282  0.2202E+03  0.2185E+04
      9.328  0.2139E+03  0.2195E+04
      9.375  0.2213E+03  0.2205E+04
      9.421  0.2416E+03  0.2216E+04
      9.468  0.2617E+03  0.2228E+04
      9.515  0.2733E+03  0.2241E+04
      9.561  0.2772E+03  0.2254E+04
      9.608  0.2763E+03  0.2267E+04
      9.654  0.2712E+03  0.2280E+04
      9.701  0.2615E+03  0.2292E+04
      9.748  0.2446E+03  0.2303E+04
      9.794  0.2248E+03  0.2314E+04
      9.841  0.2192E+03  0.2324E+04
      9.887  0.2356E+03  0.2335E+04
      9.934  0.2630E+03  0.2347E+04
      9.981  0.2939E+03  0.2361E+04
     10.027  0.3262E+03  0.2376E+04
     10.074  0.3487E+03  0.2392E+04
     10.120  0.3470E+03  0.2408E+04
     10.167  0.3249E+03  0.2424E+04
     10.214  0.3102E+03  0.2438E+04
     10.260  0.3276E+03  0.2453E+04
     10.307  0.3842E+03  0.2471E+04
     10.353  0.4634E+03  0.2493E+04
     10.400  0.5176E+03  0.2517E+04
     10.447  0.5107E+03  0.2541E+04
     10.493  0.4533E+03  0.2562E+04
     10.540  0.3770E+03  0.2579E+04
     10.586  0.3047E+03  0.2594E+04
     10.633  0.2501E+03  0.2605E+04
     10.680  0.2139E+03  0.2615E+04
     10.726  0.1822E+03  0.2624E+04
     10.773  0.1435E+03  0.2630E+04
     10.819  0.9901E+02  0.2635E+04
     10.866  0.5810E+02  0.2638E+04
     10.912  0.2845E+02  0.2639E+04
     10.959  0.1101E+02  0.2639E+04
     11.006  0.3011E+01  0.2640E+04
     11.052  0.1159E+01  0.2640E+04
     11.099  0.1717E+01  0.2640E+04
     11.145  0.1711E+01  0.2640E+04
     11.192  0.7674E+00  0.2640E+04
     11.239  0.3044E-01  0.2640E+04
     11.285 -0.1189E+00  0.2640E+04
     11.332 -0.5459E-01  0.2640E+04
     11.378 -0.1205E-01  0.2640E+04
     11.425 -0.3572E-02  0.2640E+04
     11.472 -0.1311E-01  0.2640E+04
     11.518 -0.4231E-01  0.2640E+04
     11.565 -0.3603E-01  0.2640E+04
     11.611  0.1989E+00  0.2640E+04
     11.658  0.7148E+00  0.2640E+04
     11.705  0.1026E+01  0.2640E+04
     11.751  0.7237E+00  0.2640E+04
     11.798  0.2058E+00  0.2640E+04
     11.844 -0.3463E-01  0.2640E+04
     11.891 -0.4284E-01  0.2640E+04
     11.938 -0.1334E-01  0.2640E+04
     11.984 -0.2165E-02  0.2640E+04
     12.031 -0.2062E-03  0.2640E+04
     12.077 -0.1203E-04  0.2640E+04
     12.124 -0.4387E-06  0.2640E+04
     12.171 -0.1011E-07  0.2640E+04
     12.217 -0.1484E-09  0.2640E+04
     12.264 -0.1392E-11  0.2640E+04
     12.310 -0.8340E-14  0.2640E+04
     12.357  0.0000E+00  0.2640E+04
     12.403  0.0000E+00  0.2640E+04
     12.450  0.0000E+00  0.2640E+04
     12.497  0.0000E+00  0.2640E+04
     12.543  0.0000E+00  0.2640E+04
     12.590  0.0000E+00  0.2640E+04
     12.636  0.0000E+00  0.2640E+04
     12.683  0.0000E+00  0.2640E+04
