  32  32   0   0
  0.1389974E+02  0.1038864E-08  0.5456121E-09  0.1038864E-08  0.5000000E-15
  1.000000000000000E-004
  CAR 
 Ir_Ru                                   
     21.37686722     -0.50947068  301      8.91398467      1.00000000
     -0.509  0.0000E+00  0.0000E+00
     -0.437  0.0000E+00  0.0000E+00
     -0.364  0.0000E+00  0.0000E+00
     -0.291  0.0000E+00  0.0000E+00
     -0.218  0.0000E+00  0.0000E+00
     -0.145  0.0000E+00  0.0000E+00
     -0.072  0.0000E+00  0.0000E+00
      0.001  0.0000E+00  0.0000E+00
      0.074  0.0000E+00  0.0000E+00
      0.147  0.0000E+00  0.0000E+00
      0.220  0.0000E+00  0.0000E+00
      0.293  0.0000E+00  0.0000E+00
      0.366  0.0000E+00  0.0000E+00
      0.439  0.0000E+00  0.0000E+00
      0.512  0.2858E-01  0.2035E-03
      0.585  0.5180E+00  0.1722E-01
      0.658  0.7852E+00  0.6823E-01
      0.731  0.1012E+01  0.1327E+00
      0.804  0.1346E+01  0.2173E+00
      0.877  0.1614E+01  0.3279E+00
      0.950  0.1723E+01  0.4495E+00
      1.023  0.2108E+01  0.5892E+00
      1.096  0.2055E+01  0.7419E+00
      1.168  0.1758E+01  0.8842E+00
      1.241  0.1491E+01  0.1000E+01
      1.314  0.1764E+01  0.1108E+01
      1.387  0.2167E+01  0.1258E+01
      1.460  0.2626E+01  0.1430E+01
      1.533  0.3085E+01  0.1643E+01
      1.606  0.2944E+01  0.1860E+01
      1.679  0.3029E+01  0.2078E+01
      1.752  0.3148E+01  0.2303E+01
      1.825  0.3671E+01  0.2548E+01
      1.898  0.4063E+01  0.2830E+01
      1.971  0.4384E+01  0.3137E+01
      2.044  0.4457E+01  0.3464E+01
      2.117  0.4442E+01  0.3778E+01
      2.190  0.5906E+01  0.4146E+01
      2.263  0.6358E+01  0.4621E+01
      2.336  0.6898E+01  0.5076E+01
      2.409  0.9993E+01  0.5667E+01
      2.482  0.9402E+01  0.6444E+01
      2.555  0.1935E+02  0.7346E+01
      2.628  0.1569E+02  0.8720E+01
      2.701  0.1943E+02  0.9895E+01
      2.773  0.2314E+02  0.1142E+02
      2.846  0.3006E+02  0.1332E+02
      2.919  0.3241E+02  0.1558E+02
      2.992  0.3672E+02  0.1807E+02
      3.065  0.3728E+02  0.2080E+02
      3.138  0.4082E+02  0.2360E+02
      3.211  0.4682E+02  0.2677E+02
      3.284  0.4710E+02  0.3013E+02
      3.357  0.4804E+02  0.3353E+02
      3.430  0.5605E+02  0.3737E+02
      3.503  0.4671E+02  0.4093E+02
      3.576  0.4881E+02  0.4425E+02
      3.649  0.4423E+02  0.4763E+02
      3.722  0.3920E+02  0.5070E+02
      3.795  0.4059E+02  0.5355E+02
      3.868  0.3827E+02  0.5640E+02
      3.941  0.3878E+02  0.5919E+02
      4.014  0.3670E+02  0.6192E+02
      4.087  0.3098E+02  0.6456E+02
      4.160  0.3680E+02  0.6698E+02
      4.233  0.3554E+02  0.6969E+02
      4.306  0.4306E+02  0.7266E+02
      4.378  0.4584E+02  0.7613E+02
      4.451  0.4352E+02  0.7964E+02
      4.524  0.3930E+02  0.8268E+02
      4.597  0.4202E+02  0.8545E+02
      4.670  0.3867E+02  0.8802E+02
      4.743  0.4215E+02  0.9068E+02
      4.816  0.4126E+02  0.9377E+02
      4.889  0.4248E+02  0.9663E+02
      4.962  0.4496E+02  0.9982E+02
      5.035  0.4816E+02  0.1033E+03
      5.108  0.5293E+02  0.1068E+03
      5.181  0.4595E+02  0.1101E+03
      5.254  0.3833E+02  0.1132E+03
      5.327  0.3306E+02  0.1157E+03
      5.400  0.2820E+02  0.1179E+03
      5.473  0.2492E+02  0.1199E+03
      5.546  0.2366E+02  0.1216E+03
      5.619  0.2770E+02  0.1235E+03
      5.692  0.3377E+02  0.1258E+03
      5.765  0.5316E+02  0.1289E+03
      5.838  0.4985E+02  0.1326E+03
      5.911  0.5751E+02  0.1365E+03
      5.983  0.6258E+02  0.1409E+03
      6.056  0.5913E+02  0.1452E+03
      6.129  0.4888E+02  0.1491E+03
      6.202  0.4628E+02  0.1526E+03
      6.275  0.3997E+02  0.1557E+03
      6.348  0.4371E+02  0.1589E+03
      6.421  0.4933E+02  0.1624E+03
      6.494  0.5552E+02  0.1660E+03
      6.567  0.5860E+02  0.1701E+03
      6.640  0.5321E+02  0.1743E+03
      6.713  0.5817E+02  0.1788E+03
      6.786  0.4667E+02  0.1826E+03
      6.859  0.3899E+02  0.1858E+03
      6.932  0.4584E+02  0.1888E+03
      7.005  0.4790E+02  0.1923E+03
      7.078  0.5207E+02  0.1960E+03
      7.151  0.4898E+02  0.1998E+03
      7.224  0.4707E+02  0.2033E+03
      7.297  0.5231E+02  0.2071E+03
      7.370  0.5002E+02  0.2108E+03
      7.443  0.4214E+02  0.2144E+03
      7.516  0.4430E+02  0.2175E+03
      7.588  0.3679E+02  0.2206E+03
      7.661  0.3429E+02  0.2232E+03
      7.734  0.3426E+02  0.2257E+03
      7.807  0.3448E+02  0.2282E+03
      7.880  0.3187E+02  0.2306E+03
      7.953  0.3085E+02  0.2328E+03
      8.026  0.3312E+02  0.2352E+03
      8.099  0.2925E+02  0.2375E+03
      8.172  0.2975E+02  0.2396E+03
      8.245  0.2930E+02  0.2417E+03
      8.318  0.2834E+02  0.2439E+03
      8.391  0.2971E+02  0.2461E+03
      8.464  0.2740E+02  0.2481E+03
      8.537  0.2286E+02  0.2500E+03
      8.610  0.2549E+02  0.2518E+03
      8.683  0.2309E+02  0.2535E+03
      8.756  0.2651E+02  0.2553E+03
      8.829  0.3098E+02  0.2574E+03
      8.902  0.2839E+02  0.2597E+03
      8.975  0.2739E+02  0.2617E+03
      9.048  0.2586E+02  0.2636E+03
      9.121  0.2509E+02  0.2655E+03
      9.193  0.2969E+02  0.2674E+03
      9.266  0.3172E+02  0.2697E+03
      9.339  0.2965E+02  0.2719E+03
      9.412  0.2936E+02  0.2741E+03
      9.485  0.3606E+02  0.2764E+03
      9.558  0.4610E+02  0.2794E+03
      9.631  0.4362E+02  0.2826E+03
      9.704  0.3986E+02  0.2857E+03
      9.777  0.3977E+02  0.2887E+03
      9.850  0.4437E+02  0.2918E+03
      9.923  0.5415E+02  0.2954E+03
      9.996  0.5605E+02  0.2995E+03
     10.069  0.6275E+02  0.3038E+03
     10.142  0.6319E+02  0.3083E+03
     10.215  0.6216E+02  0.3128E+03
     10.288  0.7509E+02  0.3179E+03
     10.361  0.5801E+02  0.3229E+03
     10.434  0.6576E+02  0.3274E+03
     10.507  0.4601E+02  0.3317E+03
     10.580  0.3136E+02  0.3346E+03
     10.653  0.1008E+02  0.3359E+03
     10.726  0.1008E+02  0.3367E+03
     10.798  0.1054E+02  0.3374E+03
     10.871  0.1141E+02  0.3382E+03
     10.944  0.1108E+02  0.3390E+03
     11.017  0.9003E+01  0.3398E+03
     11.090  0.7276E+01  0.3404E+03
     11.163  0.6962E+01  0.3409E+03
     11.236  0.7373E+01  0.3414E+03
     11.309  0.7639E+01  0.3419E+03
     11.382  0.8245E+01  0.3425E+03
     11.455  0.7926E+01  0.3431E+03
     11.528  0.7989E+01  0.3437E+03
     11.601  0.8853E+01  0.3443E+03
     11.674  0.9420E+01  0.3450E+03
     11.747  0.9002E+01  0.3456E+03
     11.820  0.8752E+01  0.3463E+03
     11.893  0.8375E+01  0.3469E+03
     11.966  0.7907E+01  0.3475E+03
     12.039  0.7615E+01  0.3481E+03
     12.112  0.7577E+01  0.3486E+03
     12.185  0.7742E+01  0.3492E+03
     12.258  0.9125E+01  0.3498E+03
     12.331  0.9883E+01  0.3505E+03
     12.403  0.1001E+02  0.3512E+03
     12.476  0.8859E+01  0.3519E+03
     12.549  0.7726E+01  0.3525E+03
     12.622  0.6954E+01  0.3530E+03
     12.695  0.6937E+01  0.3535E+03
     12.768  0.7390E+01  0.3541E+03
     12.841  0.7436E+01  0.3546E+03
     12.914  0.8020E+01  0.3552E+03
     12.987  0.8005E+01  0.3558E+03
     13.060  0.6998E+01  0.3563E+03
     13.133  0.6684E+01  0.3568E+03
     13.206  0.7240E+01  0.3573E+03
     13.279  0.7784E+01  0.3579E+03
     13.352  0.8813E+01  0.3585E+03
     13.425  0.8222E+01  0.3591E+03
     13.498  0.7864E+01  0.3597E+03
     13.571  0.7767E+01  0.3602E+03
     13.644  0.6630E+01  0.3608E+03
     13.717  0.6526E+01  0.3612E+03
     13.790  0.7284E+01  0.3617E+03
     13.863  0.7644E+01  0.3623E+03
     13.936  0.7111E+01  0.3628E+03
     14.008  0.7032E+01  0.3633E+03
     14.081  0.5451E+01  0.3638E+03
     14.154  0.5825E+01  0.3642E+03
     14.227  0.5835E+01  0.3646E+03
     14.300  0.6009E+01  0.3651E+03
     14.373  0.6430E+01  0.3655E+03
     14.446  0.7090E+01  0.3660E+03
     14.519  0.7042E+01  0.3665E+03
     14.592  0.7267E+01  0.3670E+03
     14.665  0.7496E+01  0.3676E+03
     14.738  0.7469E+01  0.3681E+03
     14.811  0.7567E+01  0.3687E+03
     14.884  0.7502E+01  0.3692E+03
     14.957  0.7444E+01  0.3698E+03
     15.030  0.7362E+01  0.3703E+03
     15.103  0.7123E+01  0.3708E+03
     15.176  0.7136E+01  0.3714E+03
     15.249  0.7155E+01  0.3719E+03
     15.322  0.6822E+01  0.3724E+03
     15.395  0.6745E+01  0.3729E+03
     15.468  0.6642E+01  0.3734E+03
     15.541  0.7177E+01  0.3739E+03
     15.613  0.6359E+01  0.3744E+03
     15.686  0.6403E+01  0.3748E+03
     15.759  0.6577E+01  0.3753E+03
     15.832  0.6439E+01  0.3758E+03
     15.905  0.6021E+01  0.3762E+03
     15.978  0.5842E+01  0.3767E+03
     16.051  0.5799E+01  0.3771E+03
     16.124  0.5474E+01  0.3775E+03
     16.197  0.5204E+01  0.3779E+03
     16.270  0.4946E+01  0.3783E+03
     16.343  0.4706E+01  0.3786E+03
     16.416  0.4490E+01  0.3790E+03
     16.489  0.4282E+01  0.3793E+03
     16.562  0.3905E+01  0.3796E+03
     16.635  0.3706E+01  0.3798E+03
     16.708  0.3386E+01  0.3801E+03
     16.781  0.3085E+01  0.3803E+03
     16.854  0.2998E+01  0.3806E+03
     16.927  0.2780E+01  0.3808E+03
     17.000  0.2604E+01  0.3810E+03
     17.073  0.2452E+01  0.3812E+03
     17.146  0.2293E+01  0.3813E+03
     17.218  0.2089E+01  0.3815E+03
     17.291  0.1825E+01  0.3816E+03
     17.364  0.1715E+01  0.3818E+03
     17.437  0.1703E+01  0.3819E+03
     17.510  0.1730E+01  0.3820E+03
     17.583  0.1712E+01  0.3821E+03
     17.656  0.1812E+01  0.3823E+03
     17.729  0.1630E+01  0.3824E+03
     17.802  0.1464E+01  0.3825E+03
     17.875  0.1373E+01  0.3826E+03
     17.948  0.1294E+01  0.3827E+03
     18.021  0.1232E+01  0.3828E+03
     18.094  0.1182E+01  0.3829E+03
     18.167  0.1148E+01  0.3830E+03
     18.240  0.1110E+01  0.3830E+03
     18.313  0.1034E+01  0.3831E+03
     18.386  0.9733E+00  0.3832E+03
     18.459  0.9232E+00  0.3833E+03
     18.532  0.8799E+00  0.3833E+03
     18.605  0.8392E+00  0.3834E+03
     18.678  0.9090E+00  0.3835E+03
     18.751  0.8883E+00  0.3835E+03
     18.823  0.8654E+00  0.3836E+03
     18.896  0.8403E+00  0.3836E+03
     18.969  0.8130E+00  0.3837E+03
     19.042  0.7829E+00  0.3838E+03
     19.115  0.7490E+00  0.3838E+03
     19.188  0.6978E+00  0.3839E+03
     19.261  0.5964E+00  0.3839E+03
     19.334  0.4012E+00  0.3840E+03
     19.407  0.2461E+00  0.3840E+03
     19.480  0.6589E-01  0.3840E+03
     19.553  0.1035E-01  0.3840E+03
     19.626  0.7889E-02  0.3840E+03
     19.699  0.6430E-02  0.3840E+03
     19.772  0.5121E-02  0.3840E+03
     19.845  0.3960E-02  0.3840E+03
     19.918  0.2949E-02  0.3840E+03
     19.991  0.2086E-02  0.3840E+03
     20.064  0.1372E-02  0.3840E+03
     20.137  0.8074E-03  0.3840E+03
     20.210  0.3915E-03  0.3840E+03
     20.283  0.1245E-03  0.3840E+03
     20.356  0.6385E-05  0.3840E+03
     20.428  0.0000E+00  0.3840E+03
     20.501  0.0000E+00  0.3840E+03
     20.574  0.0000E+00  0.3840E+03
     20.647  0.0000E+00  0.3840E+03
     20.720  0.0000E+00  0.3840E+03
     20.793  0.0000E+00  0.3840E+03
     20.866  0.0000E+00  0.3840E+03
     20.939  0.0000E+00  0.3840E+03
     21.012  0.0000E+00  0.3840E+03
     21.085  0.0000E+00  0.3840E+03
     21.158  0.0000E+00  0.3840E+03
     21.231  0.0000E+00  0.3840E+03
     21.304  0.0000E+00  0.3840E+03
     21.377  0.0000E+00  0.3840E+03
