<?xml version="1.0" encoding="ISO-8859-1"?>
<modeling>
 <generator>
  <i name="program" type="string">vasp </i>
  <i name="version" type="string">5.4.1  </i>
  <i name="subversion" type="string">24Jun15 (build Dec 12 2017 15:24:27) complex                          parallel </i>
  <i name="platform" type="string">IFC91_ompi </i>
  <i name="date" type="string">2020 04 03 </i>
  <i name="time" type="string">15:14:41 </i>
 </generator>
 <incar>
  <i type="string" name="SYSTEM"> Ir_Ru</i>
  <i type="int" name="ISTART">     0</i>
  <i type="string" name="PREC">accurate</i>
  <i type="string" name="ALGO"> Very_Fast</i>
  <i type="int" name="ICHARG">     2</i>
  <i type="int" name="NELMIN">     5</i>
  <i type="int" name="IBRION">    -1</i>
  <i name="EDIFFG">      0.00001000</i>
  <i type="int" name="ISIF">     2</i>
  <i type="int" name="ISMEAR">    -5</i>
  <i name="SIGMA">      0.10000000</i>
  <v type="int" name="KPOINT_BSE">    -1     0     0     0</v>
 </incar>
 <kpoints>
  <generation param="Gamma">
   <v type="int" name="divisions">       5       10        5 </v>
   <v name="usershift">      0.00000000       0.00000000       0.00000000 </v>
   <v name="genvec1">      0.20000000       0.00000000       0.00000000 </v>
   <v name="genvec2">      0.00000000       0.10000000       0.00000000 </v>
   <v name="genvec3">      0.00000000       0.00000000       0.20000000 </v>
   <v name="shift">      0.00000000       0.00000000       0.00000000 </v>
  </generation>
  <varray name="kpointlist" >
   <v>       0.00000000       0.00000000       0.00000000 </v>
   <v>       0.20000000       0.00000000       0.00000000 </v>
   <v>       0.40000000       0.00000000       0.00000000 </v>
   <v>       0.00000000       0.10000000       0.00000000 </v>
   <v>       0.20000000       0.10000000      -0.00000000 </v>
   <v>       0.40000000       0.10000000      -0.00000000 </v>
   <v>       0.00000000       0.20000000       0.00000000 </v>
   <v>       0.20000000       0.20000000       0.00000000 </v>
   <v>       0.40000000       0.20000000       0.00000000 </v>
   <v>      -0.00000000       0.30000000      -0.00000000 </v>
   <v>       0.20000000       0.30000000       0.00000000 </v>
   <v>       0.40000000       0.30000000       0.00000000 </v>
   <v>       0.00000000       0.40000000       0.00000000 </v>
   <v>       0.20000000       0.40000000       0.00000000 </v>
   <v>       0.40000000       0.40000000       0.00000000 </v>
   <v>       0.00000000       0.50000000       0.00000000 </v>
   <v>       0.20000000       0.50000000      -0.00000000 </v>
   <v>       0.40000000       0.50000000       0.00000000 </v>
   <v>       0.20000000       0.00000000       0.20000000 </v>
   <v>       0.40000000       0.00000000       0.20000000 </v>
   <v>      -0.40000000      -0.00000000       0.20000000 </v>
   <v>      -0.20000000       0.00000000       0.20000000 </v>
   <v>       0.20000000       0.10000000       0.20000000 </v>
   <v>       0.40000000       0.10000000       0.20000000 </v>
   <v>      -0.40000000       0.10000000       0.20000000 </v>
   <v>      -0.20000000       0.10000000       0.20000000 </v>
   <v>       0.20000000       0.20000000       0.20000000 </v>
   <v>       0.40000000       0.20000000       0.20000000 </v>
   <v>      -0.40000000       0.20000000       0.20000000 </v>
   <v>      -0.20000000       0.20000000       0.20000000 </v>
   <v>       0.20000000       0.30000000       0.20000000 </v>
   <v>       0.40000000       0.30000000       0.20000000 </v>
   <v>      -0.40000000       0.30000000       0.20000000 </v>
   <v>      -0.20000000       0.30000000       0.20000000 </v>
   <v>       0.20000000       0.40000000       0.20000000 </v>
   <v>       0.40000000       0.40000000       0.20000000 </v>
   <v>      -0.40000000       0.40000000       0.20000000 </v>
   <v>      -0.20000000       0.40000000       0.20000000 </v>
   <v>       0.20000000       0.50000000       0.20000000 </v>
   <v>       0.40000000       0.50000000       0.20000000 </v>
   <v>      -0.40000000       0.50000000       0.20000000 </v>
   <v>      -0.20000000       0.50000000       0.20000000 </v>
   <v>       0.40000000       0.00000000       0.40000000 </v>
   <v>      -0.40000000       0.00000000       0.40000000 </v>
   <v>       0.40000000       0.10000000       0.40000000 </v>
   <v>      -0.40000000       0.10000000       0.40000000 </v>
   <v>       0.40000000       0.20000000       0.40000000 </v>
   <v>      -0.40000000       0.20000000       0.40000000 </v>
   <v>       0.40000000       0.30000000       0.40000000 </v>
   <v>      -0.40000000       0.30000000       0.40000000 </v>
   <v>       0.40000000       0.40000000       0.40000000 </v>
   <v>      -0.40000000       0.40000000       0.40000000 </v>
   <v>       0.40000000       0.50000000       0.40000000 </v>
   <v>      -0.40000000       0.50000000       0.40000000 </v>
  </varray>
  <varray name="weights" >
   <v>       0.00400000 </v>
   <v>       0.01600000 </v>
   <v>       0.01600000 </v>
   <v>       0.00800000 </v>
   <v>       0.03200000 </v>
   <v>       0.03200000 </v>
   <v>       0.00800000 </v>
   <v>       0.03200000 </v>
   <v>       0.03200000 </v>
   <v>       0.00800000 </v>
   <v>       0.03200000 </v>
   <v>       0.03200000 </v>
   <v>       0.00800000 </v>
   <v>       0.03200000 </v>
   <v>       0.03200000 </v>
   <v>       0.00400000 </v>
   <v>       0.01600000 </v>
   <v>       0.01600000 </v>
   <v>       0.00800000 </v>
   <v>       0.01600000 </v>
   <v>       0.01600000 </v>
   <v>       0.00800000 </v>
   <v>       0.01600000 </v>
   <v>       0.03200000 </v>
   <v>       0.03200000 </v>
   <v>       0.01600000 </v>
   <v>       0.01600000 </v>
   <v>       0.03200000 </v>
   <v>       0.03200000 </v>
   <v>       0.01600000 </v>
   <v>       0.01600000 </v>
   <v>       0.03200000 </v>
   <v>       0.03200000 </v>
   <v>       0.01600000 </v>
   <v>       0.01600000 </v>
   <v>       0.03200000 </v>
   <v>       0.03200000 </v>
   <v>       0.01600000 </v>
   <v>       0.00800000 </v>
   <v>       0.01600000 </v>
   <v>       0.01600000 </v>
   <v>       0.00800000 </v>
   <v>       0.00800000 </v>
   <v>       0.00800000 </v>
   <v>       0.01600000 </v>
   <v>       0.01600000 </v>
   <v>       0.01600000 </v>
   <v>       0.01600000 </v>
   <v>       0.01600000 </v>
   <v>       0.01600000 </v>
   <v>       0.01600000 </v>
   <v>       0.01600000 </v>
   <v>       0.00800000 </v>
   <v>       0.00800000 </v>
  </varray>
  <varray name="tetrahedronlist"  type="int" >
   <v type="int" >        4        1        2        4       19 </v>
   <v type="int" >        4        2        4        5       19 </v>
   <v type="int" >        4        4        5       19       23 </v>
   <v type="int" >        4        2        3        5       20 </v>
   <v type="int" >        4        3        5        6       20 </v>
   <v type="int" >        4        5        6       20       24 </v>
   <v type="int" >        4        2        5       19       20 </v>
   <v type="int" >        4        5       19       20       23 </v>
   <v type="int" >        4        5       20       23       24 </v>
   <v type="int" >        4        3        3        6       21 </v>
   <v type="int" >        4        3        6        6       21 </v>
   <v type="int" >        4        6        6       21       25 </v>
   <v type="int" >        4        3        6       20       21 </v>
   <v type="int" >        4        6       20       21       24 </v>
   <v type="int" >        4        6       21       24       25 </v>
   <v type="int" >        4        2        3        6       22 </v>
   <v type="int" >        4        2        5        6       22 </v>
   <v type="int" >        4        5        6       22       26 </v>
   <v type="int" >        4        3        6       21       22 </v>
   <v type="int" >        4        6       21       22       25 </v>
   <v type="int" >        4        6       22       25       26 </v>
   <v type="int" >        4        1        2        2        5 </v>
   <v type="int" >        4        1        2        4        5 </v>
   <v type="int" >        4        2        4        5        5 </v>
   <v type="int" >        4        2        2        5       22 </v>
   <v type="int" >        4        2        5       22       26 </v>
   <v type="int" >        4        2        5        5       26 </v>
   <v type="int" >        4        4        5        7       23 </v>
   <v type="int" >        4        5        7        8       23 </v>
   <v type="int" >        4        7        8       23       27 </v>
   <v type="int" >        4        5        6        8       24 </v>
   <v type="int" >        4        6        8        9       24 </v>
   <v type="int" >        4        8        9       24       28 </v>
   <v type="int" >        4        5        8       23       24 </v>
   <v type="int" >        4        8       23       24       27 </v>
   <v type="int" >        4        8       24       27       28 </v>
   <v type="int" >        4        6        6        9       25 </v>
   <v type="int" >        4        6        9        9       25 </v>
   <v type="int" >        4        9        9       25       29 </v>
   <v type="int" >        4        6        9       24       25 </v>
   <v type="int" >        4        9       24       25       28 </v>
   <v type="int" >        4        9       25       28       29 </v>
   <v type="int" >        4        5        6        9       26 </v>
   <v type="int" >        4        5        8        9       26 </v>
   <v type="int" >        4        8        9       26       30 </v>
   <v type="int" >        4        6        9       25       26 </v>
   <v type="int" >        4        9       25       26       29 </v>
   <v type="int" >        4        9       26       29       30 </v>
   <v type="int" >        4        4        5        5        8 </v>
   <v type="int" >        4        4        5        7        8 </v>
   <v type="int" >        4        5        7        8        8 </v>
   <v type="int" >        4        5        5        8       26 </v>
   <v type="int" >        4        5        8       26       30 </v>
   <v type="int" >        4        5        8        8       30 </v>
   <v type="int" >        4        7        8       10       27 </v>
   <v type="int" >        4        8       10       11       27 </v>
   <v type="int" >        4       10       11       27       31 </v>
   <v type="int" >        4        8        9       11       28 </v>
   <v type="int" >        4        9       11       12       28 </v>
   <v type="int" >        4       11       12       28       32 </v>
   <v type="int" >        4        8       11       27       28 </v>
   <v type="int" >        4       11       27       28       31 </v>
   <v type="int" >        4       11       28       31       32 </v>
   <v type="int" >        4        9        9       12       29 </v>
   <v type="int" >        4        9       12       12       29 </v>
   <v type="int" >        4       12       12       29       33 </v>
   <v type="int" >        4        9       12       28       29 </v>
   <v type="int" >        4       12       28       29       32 </v>
   <v type="int" >        4       12       29       32       33 </v>
   <v type="int" >        4        8        9       12       30 </v>
   <v type="int" >        4        8       11       12       30 </v>
   <v type="int" >        4       11       12       30       34 </v>
   <v type="int" >        4        9       12       29       30 </v>
   <v type="int" >        4       12       29       30       33 </v>
   <v type="int" >        4       12       30       33       34 </v>
   <v type="int" >        4        7        8        8       11 </v>
   <v type="int" >        4        7        8       10       11 </v>
   <v type="int" >        4        8       10       11       11 </v>
   <v type="int" >        4        8        8       11       30 </v>
   <v type="int" >        4        8       11       30       34 </v>
   <v type="int" >        4        8       11       11       34 </v>
   <v type="int" >        4       10       11       13       31 </v>
   <v type="int" >        4       11       13       14       31 </v>
   <v type="int" >        4       13       14       31       35 </v>
   <v type="int" >        4       11       12       14       32 </v>
   <v type="int" >        4       12       14       15       32 </v>
   <v type="int" >        4       14       15       32       36 </v>
   <v type="int" >        4       11       14       31       32 </v>
   <v type="int" >        4       14       31       32       35 </v>
   <v type="int" >        4       14       32       35       36 </v>
   <v type="int" >        4       12       12       15       33 </v>
   <v type="int" >        4       12       15       15       33 </v>
   <v type="int" >        4       15       15       33       37 </v>
   <v type="int" >        4       12       15       32       33 </v>
   <v type="int" >        4       15       32       33       36 </v>
   <v type="int" >        4       15       33       36       37 </v>
   <v type="int" >        4       11       12       15       34 </v>
   <v type="int" >        4       11       14       15       34 </v>
   <v type="int" >        4       14       15       34       38 </v>
   <v type="int" >        4       12       15       33       34 </v>
   <v type="int" >        4       15       33       34       37 </v>
   <v type="int" >        4       15       34       37       38 </v>
   <v type="int" >        4       10       11       11       14 </v>
   <v type="int" >        4       10       11       13       14 </v>
   <v type="int" >        4       11       13       14       14 </v>
   <v type="int" >        4       11       11       14       34 </v>
   <v type="int" >        4       11       14       34       38 </v>
   <v type="int" >        4       11       14       14       38 </v>
   <v type="int" >        4       13       14       16       35 </v>
   <v type="int" >        4       14       16       17       35 </v>
   <v type="int" >        4       16       17       35       39 </v>
   <v type="int" >        4       14       15       17       36 </v>
   <v type="int" >        4       15       17       18       36 </v>
   <v type="int" >        4       17       18       36       40 </v>
   <v type="int" >        4       14       17       35       36 </v>
   <v type="int" >        4       17       35       36       39 </v>
   <v type="int" >        4       17       36       39       40 </v>
   <v type="int" >        4       15       15       18       37 </v>
   <v type="int" >        4       15       18       18       37 </v>
   <v type="int" >        4       18       18       37       41 </v>
   <v type="int" >        4       15       18       36       37 </v>
   <v type="int" >        4       18       36       37       40 </v>
   <v type="int" >        4       18       37       40       41 </v>
   <v type="int" >        4       14       15       18       38 </v>
   <v type="int" >        4       14       17       18       38 </v>
   <v type="int" >        4       17       18       38       42 </v>
   <v type="int" >        4       15       18       37       38 </v>
   <v type="int" >        4       18       37       38       41 </v>
   <v type="int" >        4       18       38       41       42 </v>
   <v type="int" >        4       13       14       14       17 </v>
   <v type="int" >        4       13       14       16       17 </v>
   <v type="int" >        4       14       16       17       17 </v>
   <v type="int" >        4       14       14       17       38 </v>
   <v type="int" >        4       14       17       38       42 </v>
   <v type="int" >        4       14       17       17       42 </v>
   <v type="int" >        4       13       16       17       39 </v>
   <v type="int" >        4       13       14       17       39 </v>
   <v type="int" >        4       13       14       35       39 </v>
   <v type="int" >        4       14       17       18       40 </v>
   <v type="int" >        4       14       15       18       40 </v>
   <v type="int" >        4       14       15       36       40 </v>
   <v type="int" >        4       14       17       39       40 </v>
   <v type="int" >        4       14       35       39       40 </v>
   <v type="int" >        4       14       35       36       40 </v>
   <v type="int" >        4       15       18       18       41 </v>
   <v type="int" >        4       15       15       18       41 </v>
   <v type="int" >        4       15       15       37       41 </v>
   <v type="int" >        4       15       18       40       41 </v>
   <v type="int" >        4       15       36       40       41 </v>
   <v type="int" >        4       15       36       37       41 </v>
   <v type="int" >        4       15       17       18       42 </v>
   <v type="int" >        4       14       15       17       42 </v>
   <v type="int" >        4       14       15       38       42 </v>
   <v type="int" >        4       15       18       41       42 </v>
   <v type="int" >        4       15       37       41       42 </v>
   <v type="int" >        4       15       37       38       42 </v>
   <v type="int" >        4       10       13       14       35 </v>
   <v type="int" >        4       10       11       14       35 </v>
   <v type="int" >        4       10       11       31       35 </v>
   <v type="int" >        4       11       14       15       36 </v>
   <v type="int" >        4       11       12       15       36 </v>
   <v type="int" >        4       11       12       32       36 </v>
   <v type="int" >        4       11       14       35       36 </v>
   <v type="int" >        4       11       31       35       36 </v>
   <v type="int" >        4       11       31       32       36 </v>
   <v type="int" >        4       12       15       15       37 </v>
   <v type="int" >        4       12       12       15       37 </v>
   <v type="int" >        4       12       12       33       37 </v>
   <v type="int" >        4       12       15       36       37 </v>
   <v type="int" >        4       12       32       36       37 </v>
   <v type="int" >        4       12       32       33       37 </v>
   <v type="int" >        4       12       14       15       38 </v>
   <v type="int" >        4       11       12       14       38 </v>
   <v type="int" >        4       11       12       34       38 </v>
   <v type="int" >        4       12       15       37       38 </v>
   <v type="int" >        4       12       33       37       38 </v>
   <v type="int" >        4       12       33       34       38 </v>
   <v type="int" >        4        7       10       11       31 </v>
   <v type="int" >        4        7        8       11       31 </v>
   <v type="int" >        4        7        8       27       31 </v>
   <v type="int" >        4        8       11       12       32 </v>
   <v type="int" >        4        8        9       12       32 </v>
   <v type="int" >        4        8        9       28       32 </v>
   <v type="int" >        4        8       11       31       32 </v>
   <v type="int" >        4        8       27       31       32 </v>
   <v type="int" >        4        8       27       28       32 </v>
   <v type="int" >        4        9       12       12       33 </v>
   <v type="int" >        4        9        9       12       33 </v>
   <v type="int" >        4        9        9       29       33 </v>
   <v type="int" >        4        9       12       32       33 </v>
   <v type="int" >        4        9       28       32       33 </v>
   <v type="int" >        4        9       28       29       33 </v>
   <v type="int" >        4        9       11       12       34 </v>
   <v type="int" >        4        8        9       11       34 </v>
   <v type="int" >        4        8        9       30       34 </v>
   <v type="int" >        4        9       12       33       34 </v>
   <v type="int" >        4        9       29       33       34 </v>
   <v type="int" >        4        9       29       30       34 </v>
   <v type="int" >        4        4        7        8       27 </v>
   <v type="int" >        4        4        5        8       27 </v>
   <v type="int" >        4        4        5       23       27 </v>
   <v type="int" >        4        5        8        9       28 </v>
   <v type="int" >        4        5        6        9       28 </v>
   <v type="int" >        4        5        6       24       28 </v>
   <v type="int" >        4        5        8       27       28 </v>
   <v type="int" >        4        5       23       27       28 </v>
   <v type="int" >        4        5       23       24       28 </v>
   <v type="int" >        4        6        9        9       29 </v>
   <v type="int" >        4        6        6        9       29 </v>
   <v type="int" >        4        6        6       25       29 </v>
   <v type="int" >        4        6        9       28       29 </v>
   <v type="int" >        4        6       24       28       29 </v>
   <v type="int" >        4        6       24       25       29 </v>
   <v type="int" >        4        6        8        9       30 </v>
   <v type="int" >        4        5        6        8       30 </v>
   <v type="int" >        4        5        6       26       30 </v>
   <v type="int" >        4        6        9       29       30 </v>
   <v type="int" >        4        6       25       29       30 </v>
   <v type="int" >        4        6       25       26       30 </v>
   <v type="int" >        4        1        4        5       23 </v>
   <v type="int" >        4        1        2        5       23 </v>
   <v type="int" >        4        1        2       19       23 </v>
   <v type="int" >        4        2        5        6       24 </v>
   <v type="int" >        4        2        3        6       24 </v>
   <v type="int" >        4        2        3       20       24 </v>
   <v type="int" >        4        2        5       23       24 </v>
   <v type="int" >        4        2       19       23       24 </v>
   <v type="int" >        4        2       19       20       24 </v>
   <v type="int" >        4        3        6        6       25 </v>
   <v type="int" >        4        3        3        6       25 </v>
   <v type="int" >        4        3        3       21       25 </v>
   <v type="int" >        4        3        6       24       25 </v>
   <v type="int" >        4        3       20       24       25 </v>
   <v type="int" >        4        3       20       21       25 </v>
   <v type="int" >        4        3        5        6       26 </v>
   <v type="int" >        4        2        3        5       26 </v>
   <v type="int" >        4        2        3       22       26 </v>
   <v type="int" >        4        3        6       25       26 </v>
   <v type="int" >        4        3       21       25       26 </v>
   <v type="int" >        4        3       21       22       26 </v>
   <v type="int" >        4       19       20       23       43 </v>
   <v type="int" >        4       20       23       24       43 </v>
   <v type="int" >        4       23       24       43       45 </v>
   <v type="int" >        4       20       21       24       44 </v>
   <v type="int" >        4       21       24       25       44 </v>
   <v type="int" >        4       24       25       44       46 </v>
   <v type="int" >        4       20       24       43       44 </v>
   <v type="int" >        4       24       43       44       45 </v>
   <v type="int" >        4       24       44       45       46 </v>
   <v type="int" >        4       21       21       22       25 </v>
   <v type="int" >        4       21       22       25       26 </v>
   <v type="int" >        4       21       25       25       26 </v>
   <v type="int" >        4       21       21       25       44 </v>
   <v type="int" >        4       21       25       44       46 </v>
   <v type="int" >        4       21       25       25       46 </v>
   <v type="int" >        4       23       24       27       45 </v>
   <v type="int" >        4       24       27       28       45 </v>
   <v type="int" >        4       27       28       45       47 </v>
   <v type="int" >        4       24       25       28       46 </v>
   <v type="int" >        4       25       28       29       46 </v>
   <v type="int" >        4       28       29       46       48 </v>
   <v type="int" >        4       24       28       45       46 </v>
   <v type="int" >        4       28       45       46       47 </v>
   <v type="int" >        4       28       46       47       48 </v>
   <v type="int" >        4       25       25       26       29 </v>
   <v type="int" >        4       25       26       29       30 </v>
   <v type="int" >        4       25       29       29       30 </v>
   <v type="int" >        4       25       25       29       46 </v>
   <v type="int" >        4       25       29       46       48 </v>
   <v type="int" >        4       25       29       29       48 </v>
   <v type="int" >        4       27       28       31       47 </v>
   <v type="int" >        4       28       31       32       47 </v>
   <v type="int" >        4       31       32       47       49 </v>
   <v type="int" >        4       28       29       32       48 </v>
   <v type="int" >        4       29       32       33       48 </v>
   <v type="int" >        4       32       33       48       50 </v>
   <v type="int" >        4       28       32       47       48 </v>
   <v type="int" >        4       32       47       48       49 </v>
   <v type="int" >        4       32       48       49       50 </v>
   <v type="int" >        4       29       29       30       33 </v>
   <v type="int" >        4       29       30       33       34 </v>
   <v type="int" >        4       29       33       33       34 </v>
   <v type="int" >        4       29       29       33       48 </v>
   <v type="int" >        4       29       33       48       50 </v>
   <v type="int" >        4       29       33       33       50 </v>
   <v type="int" >        4       31       32       35       49 </v>
   <v type="int" >        4       32       35       36       49 </v>
   <v type="int" >        4       35       36       49       51 </v>
   <v type="int" >        4       32       33       36       50 </v>
   <v type="int" >        4       33       36       37       50 </v>
   <v type="int" >        4       36       37       50       52 </v>
   <v type="int" >        4       32       36       49       50 </v>
   <v type="int" >        4       36       49       50       51 </v>
   <v type="int" >        4       36       50       51       52 </v>
   <v type="int" >        4       33       33       34       37 </v>
   <v type="int" >        4       33       34       37       38 </v>
   <v type="int" >        4       33       37       37       38 </v>
   <v type="int" >        4       33       33       37       50 </v>
   <v type="int" >        4       33       37       50       52 </v>
   <v type="int" >        4       33       37       37       52 </v>
   <v type="int" >        4       35       36       39       51 </v>
   <v type="int" >        4       36       39       40       51 </v>
   <v type="int" >        4       39       40       51       53 </v>
   <v type="int" >        4       36       37       40       52 </v>
   <v type="int" >        4       37       40       41       52 </v>
   <v type="int" >        4       40       41       52       54 </v>
   <v type="int" >        4       36       40       51       52 </v>
   <v type="int" >        4       40       51       52       53 </v>
   <v type="int" >        4       40       52       53       54 </v>
   <v type="int" >        4       37       37       38       41 </v>
   <v type="int" >        4       37       38       41       42 </v>
   <v type="int" >        4       37       41       41       42 </v>
   <v type="int" >        4       37       37       41       52 </v>
   <v type="int" >        4       37       41       52       54 </v>
   <v type="int" >        4       37       41       41       54 </v>
   <v type="int" >        4       35       39       40       53 </v>
   <v type="int" >        4       35       36       40       53 </v>
   <v type="int" >        4       35       36       51       53 </v>
   <v type="int" >        4       36       40       41       54 </v>
   <v type="int" >        4       36       37       41       54 </v>
   <v type="int" >        4       36       37       52       54 </v>
   <v type="int" >        4       36       40       53       54 </v>
   <v type="int" >        4       36       51       53       54 </v>
   <v type="int" >        4       36       51       52       54 </v>
   <v type="int" >        4       31       35       36       51 </v>
   <v type="int" >        4       31       32       36       51 </v>
   <v type="int" >        4       31       32       49       51 </v>
   <v type="int" >        4       32       36       37       52 </v>
   <v type="int" >        4       32       33       37       52 </v>
   <v type="int" >        4       32       33       50       52 </v>
   <v type="int" >        4       32       36       51       52 </v>
   <v type="int" >        4       32       49       51       52 </v>
   <v type="int" >        4       32       49       50       52 </v>
   <v type="int" >        4       27       31       32       49 </v>
   <v type="int" >        4       27       28       32       49 </v>
   <v type="int" >        4       27       28       47       49 </v>
   <v type="int" >        4       28       32       33       50 </v>
   <v type="int" >        4       28       29       33       50 </v>
   <v type="int" >        4       28       29       48       50 </v>
   <v type="int" >        4       28       32       49       50 </v>
   <v type="int" >        4       28       47       49       50 </v>
   <v type="int" >        4       28       47       48       50 </v>
   <v type="int" >        4       23       27       28       47 </v>
   <v type="int" >        4       23       24       28       47 </v>
   <v type="int" >        4       23       24       45       47 </v>
   <v type="int" >        4       24       28       29       48 </v>
   <v type="int" >        4       24       25       29       48 </v>
   <v type="int" >        4       24       25       46       48 </v>
   <v type="int" >        4       24       28       47       48 </v>
   <v type="int" >        4       24       45       47       48 </v>
   <v type="int" >        4       24       45       46       48 </v>
   <v type="int" >        4       19       23       24       45 </v>
   <v type="int" >        4       19       20       24       45 </v>
   <v type="int" >        4       19       20       43       45 </v>
   <v type="int" >        4       20       24       25       46 </v>
   <v type="int" >        4       20       21       25       46 </v>
   <v type="int" >        4       20       21       44       46 </v>
   <v type="int" >        4       20       24       45       46 </v>
   <v type="int" >        4       20       43       45       46 </v>
   <v type="int" >        4       20       43       44       46 </v>
   <v type="int" >        4       43       43       44       45 </v>
   <v type="int" >        4       43       44       45       46 </v>
   <v type="int" >        4       43       45       45       46 </v>
   <v type="int" >        4       45       45       46       47 </v>
   <v type="int" >        4       45       46       47       48 </v>
   <v type="int" >        4       45       47       47       48 </v>
   <v type="int" >        4       47       47       48       49 </v>
   <v type="int" >        4       47       48       49       50 </v>
   <v type="int" >        4       47       49       49       50 </v>
   <v type="int" >        4       49       49       50       51 </v>
   <v type="int" >        4       49       50       51       52 </v>
   <v type="int" >        4       49       51       51       52 </v>
   <v type="int" >        4       51       51       52       53 </v>
   <v type="int" >        4       51       52       53       54 </v>
   <v type="int" >        4       51       53       53       54 </v>
  </varray>
  <i name="volumeweight">      0.00066667 </i>
 </kpoints>
 <parameters>
  <separator name="general" >
   <i type="string" name="SYSTEM">Ir_Ru</i>
   <i type="logical" name="LCOMPAT"> F  </i>
  </separator>
  <separator name="electronic" >
   <i type="string" name="PREC">accura</i>
   <i name="ENMAX">    213.27600000</i>
   <i name="ENAUG">    333.49400000</i>
   <i name="EDIFF">      0.00010000</i>
   <i type="int" name="IALGO">    48</i>
   <i type="int" name="IWAVPR">    10</i>
   <i type="int" name="NBANDS">   192</i>
   <i name="NELECT">    260.00000000</i>
   <i type="int" name="TURBO">     0</i>
   <i type="int" name="IRESTART">     0</i>
   <i type="int" name="NREBOOT">     0</i>
   <i type="int" name="NMIN">     0</i>
   <i name="EREF">      0.00000000</i>
   <separator name="electronic smearing" >
    <i type="int" name="ISMEAR">    -5</i>
    <i name="SIGMA">      0.10000000</i>
    <i name="KSPACING">      0.50000000</i>
    <i type="logical" name="KGAMMA"> T  </i>
   </separator>
   <separator name="electronic projectors" >
    <i type="logical" name="LREAL"> F  </i>
    <v name="ROPT">      0.00000000      0.00000000</v>
    <i type="int" name="LMAXPAW">  -100</i>
    <i type="int" name="LMAXMIX">     2</i>
    <i type="logical" name="NLSPLINE"> F  </i>
   </separator>
   <separator name="electronic startup" >
    <i type="int" name="ISTART">     0</i>
    <i type="int" name="ICHARG">     2</i>
    <i type="int" name="INIWAV">     1</i>
   </separator>
   <separator name="electronic spin" >
    <i type="int" name="ISPIN">     1</i>
    <i type="logical" name="LNONCOLLINEAR"> F  </i>
    <v name="MAGMOM">      1.00000000      1.00000000      1.00000000      1.00000000      1.00000000      1.00000000      1.00000000      1.00000000      1.00000000      1.00000000      1.00000000      1.00000000      1.00000000      1.00000000      1.00000000      1.00000000      1.00000000      1.00000000      1.00000000      1.00000000
      1.00000000      1.00000000      1.00000000      1.00000000      1.00000000      1.00000000      1.00000000      1.00000000      1.00000000      1.00000000      1.00000000      1.00000000</v>
    <i name="NUPDOWN">     -1.00000000</i>
    <i type="logical" name="LSORBIT"> F  </i>
    <v name="SAXIS">      0.00000000      0.00000000      1.00000000</v>
    <i type="logical" name="LSPIRAL"> F  </i>
    <v name="QSPIRAL">      0.00000000      0.00000000      0.00000000</v>
    <i type="logical" name="LZEROZ"> F  </i>
   </separator>
   <separator name="electronic exchange-correlation" >
    <i type="logical" name="LASPH"> F  </i>
    <i type="logical" name="LMETAGGA"> F  </i>
   </separator>
   <separator name="electronic convergence" >
    <i type="int" name="NELM">    60</i>
    <i type="int" name="NELMDL">   -12</i>
    <i type="int" name="NELMIN">     5</i>
    <i name="ENINI">    213.27600000</i>
    <separator name="electronic convergence detail" >
     <i type="logical" name="LDIAG"> T  </i>
     <i type="logical" name="LSUBROT"> F  </i>
     <i name="WEIMIN">      0.00000000</i>
     <i name="EBREAK">      0.00000000</i>
     <i name="DEPER">      0.30000000</i>
     <i type="int" name="NRMM">     4</i>
     <i name="TIME">      0.40000000</i>
    </separator>
   </separator>
   <separator name="electronic mixer" >
    <i name="AMIX">      0.40000000</i>
    <i name="BMIX">      1.00000000</i>
    <i name="AMIN">      0.10000000</i>
    <i name="AMIX_MAG">      1.60000000</i>
    <i name="BMIX_MAG">      1.00000000</i>
    <separator name="electronic mixer details" >
     <i type="int" name="IMIX">     4</i>
     <i type="logical" name="MIXFIRST"> F  </i>
     <i type="int" name="MAXMIX">   -45</i>
     <i name="WC">    100.00000000</i>
     <i type="int" name="INIMIX">     1</i>
     <i type="int" name="MIXPRE">     1</i>
     <i type="int" name="MREMOVE">     5</i>
    </separator>
   </separator>
   <separator name="electronic dipolcorrection" >
    <i type="logical" name="LDIPOL"> F  </i>
    <i type="logical" name="LMONO"> F  </i>
    <i type="int" name="IDIPOL">     0</i>
    <i name="EPSILON">      1.00000000</i>
    <v name="DIPOL">   -100.00000000   -100.00000000   -100.00000000</v>
    <i name="EFIELD">      0.00000000</i>
   </separator>
  </separator>
  <separator name="grids" >
   <i type="int" name="NGX">    50</i>
   <i type="int" name="NGY">    28</i>
   <i type="int" name="NGZ">    50</i>
   <i type="int" name="NGXF">   100</i>
   <i type="int" name="NGYF">    56</i>
   <i type="int" name="NGZF">   100</i>
   <i type="logical" name="ADDGRID"> F  </i>
  </separator>
  <separator name="ionic" >
   <i type="int" name="NSW">     0</i>
   <i type="int" name="IBRION">    -1</i>
   <i type="int" name="ISIF">     2</i>
   <i name="PSTRESS">      0.00000000</i>
   <i name="EDIFFG">      0.00001000</i>
   <i type="int" name="NFREE">     0</i>
   <i name="POTIM">      0.50000000</i>
   <i name="SMASS">     -3.00000000</i>
   <i name="SCALEE">      1.00000000</i>
  </separator>
  <separator name="ionic md" >
   <i name="TEBEG">      0.00010000</i>
   <i name="TEEND">      0.00010000</i>
   <i type="int" name="NBLOCK">     1</i>
   <i type="int" name="KBLOCK">     1</i>
   <i type="int" name="NPACO">   256</i>
   <i name="APACO">     16.00000000</i>
  </separator>
  <separator name="symmetry" >
   <i type="int" name="ISYM">     2</i>
   <i name="SYMPREC">      0.00001000</i>
  </separator>
  <separator name="dos" >
   <i type="logical" name="LORBIT"> F  </i>
   <v name="RWIGS">     -1.00000000     -1.00000000</v>
   <i type="int" name="NEDOS">   301</i>
   <i name="EMIN">     10.00000000</i>
   <i name="EMAX">    -10.00000000</i>
   <i name="EFERMI">      0.00000000</i>
  </separator>
  <separator name="writing" >
   <i type="int" name="NWRITE">     2</i>
   <i type="logical" name="LWAVE"> T  </i>
   <i type="logical" name="LCHARG"> T  </i>
   <i type="logical" name="LPARD"> F  </i>
   <i type="logical" name="LVTOT"> F  </i>
   <i type="logical" name="LVHAR"> F  </i>
   <i type="logical" name="LELF"> F  </i>
   <i type="logical" name="LOPTICS"> F  </i>
   <v name="STM">      0.00000000      0.00000000      0.00000000      0.00000000      0.00000000      0.00000000      0.00000000</v>
  </separator>
  <separator name="performance" >
   <i type="int" name="NPAR">    64</i>
   <i type="int" name="NSIM">     4</i>
   <i type="int" name="NBLK">    -1</i>
   <i type="logical" name="LPLANE"> T  </i>
   <i type="logical" name="LSCALAPACK"> T  </i>
   <i type="logical" name="LSCAAWARE"> T  </i>
   <i type="logical" name="LSCALU"> F  </i>
   <i type="logical" name="LASYNC"> F  </i>
   <i type="logical" name="LORBITALREAL"> F  </i>
  </separator>
  <separator name="miscellaneous" >
   <i type="int" name="IDIOT">     3</i>
   <i type="logical" name="LMUSIC"> F  </i>
   <v name="POMASS">    192.22000000    101.07000000</v>
   <v name="DARWINR">      0.00000000      0.00000000</v>
   <v name="DARWINV">      1.00000000      1.00000000</v>
   <i type="logical" name="LCORR"> T  </i>
  </separator>
  <i type="logical" name="GGA_COMPAT"> T  </i>
  <i type="logical" name="LBERRY"> F  </i>
  <i type="int" name="ICORELEVEL">     0</i>
  <i type="logical" name="LDAU"> F  </i>
  <i type="int" name="I_CONSTRAINED_M">     0</i>
  <separator name="electronic exchange-correlation" >
   <i type="string" name="GGA">--</i>
   <i type="int" name="VOSKOWN">     0</i>
   <i type="logical" name="LHFCALC"> F  </i>
   <i type="string" name="PRECFOCK"></i>
   <i type="logical" name="LSYMGRAD"> F  </i>
   <i type="logical" name="LHFONE"> F  </i>
   <i type="logical" name="LRHFCALC"> F  </i>
   <i type="logical" name="LTHOMAS"> F  </i>
   <i type="logical" name="LMODELHF"> F  </i>
   <i name="ENCUT4O">     -1.00000000</i>
   <i type="int" name="EXXOEP">     0</i>
   <i type="int" name="FOURORBIT">     0</i>
   <i name="AEXX">      0.00000000</i>
   <i name="HFALPHA">      0.00000000</i>
   <i name="MCALPHA">      0.00000000</i>
   <i name="ALDAX">      1.00000000</i>
   <i name="AGGAX">      1.00000000</i>
   <i name="ALDAC">      1.00000000</i>
   <i name="AGGAC">      1.00000000</i>
   <i type="int" name="NKREDX">     1</i>
   <i type="int" name="NKREDY">     1</i>
   <i type="int" name="NKREDZ">     1</i>
   <i type="logical" name="SHIFTRED"> F  </i>
   <i type="logical" name="ODDONLY"> F  </i>
   <i type="logical" name="EVENONLY"> F  </i>
   <i type="int" name="LMAXFOCK">     0</i>
   <i type="int" name="NMAXFOCKAE">     0</i>
   <i type="logical" name="LFOCKAEDFT"> F  </i>
   <i name="HFSCREEN">      0.00000000</i>
   <i name="HFSCREENC">      0.00000000</i>
   <i type="int" name="NBANDSGWLOW">     0</i>
  </separator>
  <separator name="vdW DFT" >
   <i type="logical" name="LUSE_VDW"> F  </i>
   <i name="Zab_VDW">     -0.84910000</i>
   <i name="PARAM1">      0.12340000</i>
   <i name="PARAM2">      1.00000000</i>
   <i name="PARAM3">      0.00000000</i>
  </separator>
  <separator name="model GW" >
   <i type="int" name="MODEL_GW">     0</i>
   <i name="MODEL_EPS0">      8.33984565</i>
   <i name="MODEL_ALPHA">      1.00000000</i>
  </separator>
  <separator name="linear response parameters" >
   <i type="logical" name="LEPSILON"> F  </i>
   <i type="logical" name="LRPA"> F  </i>
   <i type="logical" name="LNABLA"> F  </i>
   <i type="logical" name="LVEL"> F  </i>
   <i type="int" name="KINTER">     0</i>
   <i name="CSHIFT">      0.10000000</i>
   <i name="OMEGAMAX">     -1.00000000</i>
   <i name="DEG_THRESHOLD">      0.00200000</i>
  </separator>
  <separator name="orbital magnetization" >
   <i type="logical" name="NUCIND"> F  </i>
   <v name="MAGPOS">      0.00000000      0.00000000      0.00000000</v>
   <i type="logical" name="LNICSALL"> T  </i>
   <i type="logical" name="ORBITALMAG"> F  </i>
   <i type="logical" name="LMAGBLOCH"> F  </i>
   <i type="logical" name="LCHIMAG"> F  </i>
   <i type="logical" name="LGAUGE"> T  </i>
   <i type="int" name="MAGATOM">     0</i>
   <v name="MAGDIPOL">      0.00000000      0.00000000      0.00000000</v>
   <v name="AVECCONST">      0.00000000      0.00000000      0.00000000</v>
  </separator>
  <separator name="response functions" >
   <i type="logical" name="LADDER"> F  </i>
   <i type="logical" name="LFXC"> F  </i>
   <i type="logical" name="LHARTREE"> T  </i>
   <i type="int" name="IBSE">     0</i>
   <v type="int" name="KPOINT">    -1     0     0     0</v>
   <i type="logical" name="LTCTE"> F  </i>
   <i type="logical" name="LTETE"> F  </i>
   <i type="logical" name="LTRIPLET"> F  </i>
   <i type="logical" name="LFXCEPS"> F  </i>
   <i type="logical" name="LFXHEG"> F  </i>
   <i type="int" name="NATURALO">     0</i>
   <i type="logical" name="L2ORDER"> F  </i>
   <i type="logical" name="LUSEW"> F  </i>
   <i name="ENCUTGW">     -2.00000000</i>
   <i name="ENCUTGWSOFT">     -2.00000000</i>
   <i name="ENCUTLF">     -1.00000000</i>
   <i type="int" name="LMAXMP2">    -1</i>
   <i name="SCISSOR">      0.00000000</i>
   <i type="int" name="NOMEGA">     0</i>
   <i type="int" name="NOMEGAR">     0</i>
   <i type="int" name="NBANDSGW">    -1</i>
   <i type="int" name="NBANDSO">    -1</i>
   <i type="int" name="NBANDSV">    -1</i>
   <i type="int" name="NELM">     1</i>
   <i type="int" name="NELMHF">     1</i>
   <i type="int" name="DIM">     3</i>
   <i type="int" name="ANTIRES">     0</i>
   <i name="OMEGAMAX">    -30.00000000</i>
   <i name="OMEGAMIN">    -30.00000000</i>
   <i name="OMEGATL">   -200.00000000</i>
   <i type="int" name="OMEGAGRID">     0</i>
   <i name="CSHIFT">     -0.10000000</i>
   <i type="logical" name="SELFENERGY"> F  </i>
   <i type="logical" name="LSPECTRAL"> F  </i>
   <i type="logical" name="LSPECTRALGW"> F  </i>
   <i type="logical" name="LSINGLES"> F  </i>
   <i type="logical" name="LFERMIGW"> F  </i>
   <i type="logical" name="ODDONLYGW"> F  </i>
   <i type="logical" name="EVENONLYGW"> F  </i>
   <i type="int" name="NKREDLFX">     1</i>
   <i type="int" name="NKREDLFY">     1</i>
   <i type="int" name="NKREDLFZ">     1</i>
   <i type="int" name="MAXMEM">  1800</i>
   <i type="int" name="TELESCOPE">     0</i>
   <i type="int" name="TAUPAR">     1</i>
   <i type="int" name="OMEGAPAR">    -1</i>
   <i name="LAMBDA">      1.00000000</i>
  </separator>
  <separator name="External order field" >
   <i name="OFIELD_KAPPA">      0.00000000</i>
   <v name="OFIELD_K">      0.00000000      0.00000000      0.00000000</v>
   <i name="OFIELD_Q6_NEAR">      0.00000000</i>
   <i name="OFIELD_Q6_FAR">      0.00000000</i>
   <i name="OFIELD_A">      0.00000000</i>
  </separator>
 </parameters>
 <atominfo>
  <atoms>      32 </atoms>
  <types>       2 </types>
  <array name="atoms" >
   <dimension dim="1">ion</dimension>
   <field type="string">element</field>
   <field type="int">atomtype</field>
   <set>
    <rc><c>Ir</c><c>   1</c></rc>
    <rc><c>Ir</c><c>   1</c></rc>
    <rc><c>Ir</c><c>   1</c></rc>
    <rc><c>Ir</c><c>   1</c></rc>
    <rc><c>Ru</c><c>   2</c></rc>
    <rc><c>Ru</c><c>   2</c></rc>
    <rc><c>Ru</c><c>   2</c></rc>
    <rc><c>Ru</c><c>   2</c></rc>
    <rc><c>Ru</c><c>   2</c></rc>
    <rc><c>Ru</c><c>   2</c></rc>
    <rc><c>Ru</c><c>   2</c></rc>
    <rc><c>Ru</c><c>   2</c></rc>
    <rc><c>Ru</c><c>   2</c></rc>
    <rc><c>Ru</c><c>   2</c></rc>
    <rc><c>Ru</c><c>   2</c></rc>
    <rc><c>Ru</c><c>   2</c></rc>
    <rc><c>Ru</c><c>   2</c></rc>
    <rc><c>Ru</c><c>   2</c></rc>
    <rc><c>Ru</c><c>   2</c></rc>
    <rc><c>Ru</c><c>   2</c></rc>
    <rc><c>Ru</c><c>   2</c></rc>
    <rc><c>Ru</c><c>   2</c></rc>
    <rc><c>Ru</c><c>   2</c></rc>
    <rc><c>Ru</c><c>   2</c></rc>
    <rc><c>Ru</c><c>   2</c></rc>
    <rc><c>Ru</c><c>   2</c></rc>
    <rc><c>Ru</c><c>   2</c></rc>
    <rc><c>Ru</c><c>   2</c></rc>
    <rc><c>Ru</c><c>   2</c></rc>
    <rc><c>Ru</c><c>   2</c></rc>
    <rc><c>Ru</c><c>   2</c></rc>
    <rc><c>Ru</c><c>   2</c></rc>
   </set>
  </array>
  <array name="atomtypes" >
   <dimension dim="1">type</dimension>
   <field type="int">atomspertype</field>
   <field type="string">element</field>
   <field>mass</field>
   <field>valence</field>
   <field type="string">pseudopotential</field>
   <set>
    <rc><c>   4</c><c>Ir</c><c>    192.22000000</c><c>      9.00000000</c><c> PAW_PBE Ir 06Sep2000                   </c></rc>
    <rc><c>  28</c><c>Ru</c><c>    101.07000000</c><c>      8.00000000</c><c> PAW_PBE Ru 06Sep2000                   </c></rc>
   </set>
  </array>
 </atominfo>
 <structure name="initialpos" >
  <crystal>
   <varray name="basis" >
    <v>       8.18490713      -4.72555864      -4.31280323 </v>
    <v>       2.72805974       4.72513950       0.00000000 </v>
    <v>       8.18490713      -4.72555864       4.31280323 </v>
   </varray>
   <i name="volume">    444.79176795 </i>
   <varray name="rec_basis" >
    <v>       0.04581604      -0.02645189      -0.11593388 </v>
    <v>       0.09164021       0.15872548       0.00000000 </v>
    <v>       0.04581604      -0.02645189       0.11593388 </v>
   </varray>
  </crystal>
  <varray name="positions" >
   <v>       0.54228489       0.00000000       0.79228489 </v>
   <v>       0.79103930       0.50000000       0.04103930 </v>
   <v>       0.20801845       0.50000000       0.95869285 </v>
   <v>       0.70869285       0.50000000       0.45801845 </v>
   <v>       0.29161594       0.50000000       0.54161594 </v>
   <v>       0.04163395       1.00000000       0.29163395 </v>
   <v>       0.45742835       0.00000000       0.20933281 </v>
   <v>       0.95933281       0.00000000       0.70742835 </v>
   <v>       0.41618336       0.75094210       0.66618336 </v>
   <v>       0.66668716       0.24996913       0.91668716 </v>
   <v>       0.91654433       0.75204946       0.16654433 </v>
   <v>       0.16667313       0.24985410       0.41667313 </v>
   <v>       0.54224256       0.50000000       0.79224256 </v>
   <v>       0.79143236       1.00000000       0.04143236 </v>
   <v>       0.04227955       0.50000000       0.29227955 </v>
   <v>       0.29153177       1.00000000       0.54153177 </v>
   <v>       0.41618336       0.24905790       0.66618336 </v>
   <v>       0.66668716       0.75003087       0.91668716 </v>
   <v>       0.91654433       0.24795054       0.16654433 </v>
   <v>       0.16667313       0.75014590       0.41667313 </v>
   <v>       0.08404599       0.24885300       0.83226259 </v>
   <v>       0.33257864       0.74986244       0.08495161 </v>
   <v>       0.58226259       0.24885300       0.33404599 </v>
   <v>       0.83495161       0.74986244       0.58257864 </v>
   <v>       0.08404599       0.75114700       0.83226259 </v>
   <v>       0.33257864       0.25013756       0.08495161 </v>
   <v>       0.58226259       0.75114700       0.33404599 </v>
   <v>       0.83495161       0.25013756       0.58257864 </v>
   <v>       0.95957664       0.50000000       0.70690291 </v>
   <v>       0.20739827       0.00000000       0.95873578 </v>
   <v>       0.45690291       0.50000000       0.20957664 </v>
   <v>       0.70873578       0.00000000       0.45739827 </v>
  </varray>
 </structure>
 <calculation>
  <scstep>
   <time name="diag">    3.65    3.65</time>
   <time name="diis">    1.21    1.21</time>
   <time name="orth">    1.48    1.48</time>
   <time name="total">    6.46    6.46</time>
   <energy>
    <i name="alphaZ">   2027.48079120 </i>
    <i name="ewald"> -18280.17097641 </i>
    <i name="hartreedc">  -1265.62968995 </i>
    <i name="XCdc">   -968.87327018 </i>
    <i name="pawpsdc">  12515.98992421 </i>
    <i name="pawaedc"> -10974.00957607 </i>
    <i name="eentropy">      0.00000000 </i>
    <i name="bandstr">   3273.38066662 </i>
    <i name="atom">  14979.38053054 </i>
    <i name="e_fr_energy">   1307.54839996 </i>
    <i name="e_wo_entrp">   1307.54839996 </i>
    <i name="e_0_energy">   1307.54839996 </i>
   </energy>
  </scstep>
  <scstep>
   <time name="diag">    3.47    3.47</time>
   <time name="diis">    1.17    1.17</time>
   <time name="orth">    1.66    1.76</time>
   <time name="total">    6.48    6.58</time>
   <energy>
    <i name="e_fr_energy">     18.69335782 </i>
    <i name="e_wo_entrp">     18.69335782 </i>
    <i name="e_0_energy">     18.69335782 </i>
   </energy>
  </scstep>
  <scstep>
   <time name="diag">    3.70    3.92</time>
   <time name="diis">    1.17    1.17</time>
   <time name="orth">    1.22    1.22</time>
   <time name="total">    6.18    6.41</time>
   <energy>
    <i name="e_fr_energy">   -201.00849377 </i>
    <i name="e_wo_entrp">   -201.00849377 </i>
    <i name="e_0_energy">   -201.00849377 </i>
   </energy>
  </scstep>
  <scstep>
   <time name="diag">    3.56    3.56</time>
   <time name="diis">    1.16    1.17</time>
   <time name="orth">    1.22    1.22</time>
   <time name="total">    6.04    6.04</time>
   <energy>
    <i name="e_fr_energy">   -286.81697379 </i>
    <i name="e_wo_entrp">   -286.81697379 </i>
    <i name="e_0_energy">   -286.81697379 </i>
   </energy>
  </scstep>
  <scstep>
   <time name="diag">    3.70    3.70</time>
   <time name="diis">    1.19    1.19</time>
   <time name="orth">    1.22    1.22</time>
   <time name="total">    6.20    6.20</time>
   <energy>
    <i name="e_fr_energy">   -305.21584524 </i>
    <i name="e_wo_entrp">   -305.21584524 </i>
    <i name="e_0_energy">   -305.21584524 </i>
   </energy>
  </scstep>
  <scstep>
   <time name="diag">    4.67    4.67</time>
   <time name="diis">    1.21    1.21</time>
   <time name="orth">    1.23    1.23</time>
   <time name="total">    7.19    7.19</time>
   <energy>
    <i name="e_fr_energy">   -311.80017083 </i>
    <i name="e_wo_entrp">   -311.80017083 </i>
    <i name="e_0_energy">   -311.80017083 </i>
   </energy>
  </scstep>
  <scstep>
   <time name="diag">    4.28    4.31</time>
   <time name="diis">    1.27    1.27</time>
   <time name="orth">    1.26    1.26</time>
   <time name="total">    6.90    6.93</time>
   <energy>
    <i name="e_fr_energy">   -313.80404592 </i>
    <i name="e_wo_entrp">   -313.80404592 </i>
    <i name="e_0_energy">   -313.80404592 </i>
   </energy>
  </scstep>
  <scstep>
   <time name="diag">    3.81    3.81</time>
   <time name="diis">    1.19    1.19</time>
   <time name="orth">    1.22    1.22</time>
   <time name="total">    6.31    6.31</time>
   <energy>
    <i name="e_fr_energy">   -314.52363062 </i>
    <i name="e_wo_entrp">   -314.52363062 </i>
    <i name="e_0_energy">   -314.52363062 </i>
   </energy>
  </scstep>
  <scstep>
   <time name="diag">    3.75    3.75</time>
   <time name="diis">    2.82    2.82</time>
   <time name="orth">    1.22    1.22</time>
   <time name="total">    7.88    7.88</time>
   <energy>
    <i name="e_fr_energy">   -314.81287210 </i>
    <i name="e_wo_entrp">   -314.81287210 </i>
    <i name="e_0_energy">   -314.81287210 </i>
   </energy>
  </scstep>
  <scstep>
   <time name="diag">    4.02    4.02</time>
   <time name="diis">    2.86    2.87</time>
   <time name="orth">    1.26    1.26</time>
   <time name="total">    8.24    8.24</time>
   <energy>
    <i name="e_fr_energy">   -314.84642117 </i>
    <i name="e_wo_entrp">   -314.84642117 </i>
    <i name="e_0_energy">   -314.84642117 </i>
   </energy>
  </scstep>
  <scstep>
   <time name="diag">    4.31    4.31</time>
   <time name="diis">    2.78    2.80</time>
   <time name="orth">    1.22    1.22</time>
   <time name="total">    8.40    8.42</time>
   <energy>
    <i name="e_fr_energy">   -314.84693964 </i>
    <i name="e_wo_entrp">   -314.84693964 </i>
    <i name="e_0_energy">   -314.84693964 </i>
   </energy>
  </scstep>
  <scstep>
   <time name="diag">    3.74    3.74</time>
   <time name="diis">    2.92    2.92</time>
   <time name="orth">    1.22    1.22</time>
   <time name="total">    8.13    8.14</time>
   <energy>
    <i name="e_fr_energy">   -314.84700242 </i>
    <i name="e_wo_entrp">   -314.84700242 </i>
    <i name="e_0_energy">   -314.84700242 </i>
   </energy>
  </scstep>
  <scstep>
   <time name="diag">    3.78    3.78</time>
   <time name="diis">    2.63    2.63</time>
   <time name="orth">    1.22    1.22</time>
   <time name="total">    7.88    7.89</time>
   <energy>
    <i name="e_fr_energy">   -299.82251886 </i>
    <i name="e_wo_entrp">   -299.82251886 </i>
    <i name="e_0_energy">   -299.82251886 </i>
   </energy>
  </scstep>
  <scstep>
   <time name="diag">    4.73    4.73</time>
   <time name="diis">    2.60    2.60</time>
   <time name="orth">    1.22    1.22</time>
   <time name="total">    8.83    8.93</time>
   <energy>
    <i name="e_fr_energy">   -303.05828598 </i>
    <i name="e_wo_entrp">   -303.05828598 </i>
    <i name="e_0_energy">   -303.05828598 </i>
   </energy>
  </scstep>
  <scstep>
   <time name="diag">    4.88    4.89</time>
   <time name="diis">    2.53    2.60</time>
   <time name="orth">    1.22    1.22</time>
   <time name="total">    9.14    9.22</time>
   <energy>
    <i name="e_fr_energy">   -295.28678909 </i>
    <i name="e_wo_entrp">   -295.28678909 </i>
    <i name="e_0_energy">   -295.28678909 </i>
   </energy>
  </scstep>
  <scstep>
   <time name="diag">    3.72    3.72</time>
   <time name="diis">    2.63    2.63</time>
   <time name="orth">    1.22    1.22</time>
   <time name="total">    7.83    7.83</time>
   <energy>
    <i name="e_fr_energy">   -294.19001305 </i>
    <i name="e_wo_entrp">   -294.19001305 </i>
    <i name="e_0_energy">   -294.19001305 </i>
   </energy>
  </scstep>
  <scstep>
   <time name="diag">    3.71    3.71</time>
   <time name="diis">    2.75    2.75</time>
   <time name="orth">    1.56    1.56</time>
   <time name="total">    8.28    8.28</time>
   <energy>
    <i name="e_fr_energy">   -294.08987561 </i>
    <i name="e_wo_entrp">   -294.08987561 </i>
    <i name="e_0_energy">   -294.08987561 </i>
   </energy>
  </scstep>
  <scstep>
   <time name="diag">    4.19    4.19</time>
   <time name="diis">    2.63    2.68</time>
   <time name="orth">    1.54    1.54</time>
   <time name="total">    8.82    8.87</time>
   <energy>
    <i name="e_fr_energy">   -294.02223345 </i>
    <i name="e_wo_entrp">   -294.02223345 </i>
    <i name="e_0_energy">   -294.02223345 </i>
   </energy>
  </scstep>
  <scstep>
   <time name="diag">    3.76    3.76</time>
   <time name="diis">    2.66    2.66</time>
   <time name="orth">    1.22    1.22</time>
   <time name="total">    7.90    7.90</time>
   <energy>
    <i name="e_fr_energy">   -293.99209959 </i>
    <i name="e_wo_entrp">   -293.99209959 </i>
    <i name="e_0_energy">   -293.99209959 </i>
   </energy>
  </scstep>
  <scstep>
   <time name="diag">    3.73    3.73</time>
   <time name="diis">    2.67    2.67</time>
   <time name="orth">    1.22    1.22</time>
   <time name="total">    7.87    7.87</time>
   <energy>
    <i name="e_fr_energy">   -293.98706405 </i>
    <i name="e_wo_entrp">   -293.98706405 </i>
    <i name="e_0_energy">   -293.98706405 </i>
   </energy>
  </scstep>
  <scstep>
   <time name="diag">    4.35    4.35</time>
   <time name="diis">    2.69    2.69</time>
   <time name="orth">    1.22    1.22</time>
   <time name="total">    8.51    8.51</time>
   <energy>
    <i name="e_fr_energy">   -293.98417463 </i>
    <i name="e_wo_entrp">   -293.98417463 </i>
    <i name="e_0_energy">   -293.98417463 </i>
   </energy>
  </scstep>
  <scstep>
   <time name="diag">    4.50    4.74</time>
   <time name="diis">    2.75    2.75</time>
   <time name="orth">    1.23    1.23</time>
   <time name="total">    8.57    8.82</time>
   <energy>
    <i name="alphaZ">   2027.48079120 </i>
    <i name="ewald"> -18280.17097641 </i>
    <i name="hartreedc">   -970.70226566 </i>
    <i name="XCdc">   -970.50763269 </i>
    <i name="pawpsdc">  14318.73280847 </i>
    <i name="pawaedc"> -12854.87414273 </i>
    <i name="eentropy">      0.00000000 </i>
    <i name="bandstr">   1456.67679738 </i>
    <i name="atom">  14979.38053054 </i>
    <i name="e_fr_energy">   -293.98408990 </i>
    <i name="e_wo_entrp">   -293.98408990 </i>
    <i name="e_0_energy">   -293.98408990 </i>
   </energy>
  </scstep>
  <structure>
   <crystal>
    <varray name="basis" >
     <v>       8.18490713      -4.72555864      -4.31280323 </v>
     <v>       2.72805974       4.72513950       0.00000000 </v>
     <v>       8.18490713      -4.72555864       4.31280323 </v>
    </varray>
    <i name="volume">    444.79176795 </i>
    <varray name="rec_basis" >
     <v>       0.04581604      -0.02645189      -0.11593388 </v>
     <v>       0.09164021       0.15872548       0.00000000 </v>
     <v>       0.04581604      -0.02645189       0.11593388 </v>
    </varray>
   </crystal>
   <varray name="positions" >
    <v>       0.54228489       0.00000000       0.79228489 </v>
    <v>       0.79103930       0.50000000       0.04103930 </v>
    <v>       0.20801845       0.50000000       0.95869285 </v>
    <v>       0.70869285       0.50000000       0.45801845 </v>
    <v>       0.29161594       0.50000000       0.54161594 </v>
    <v>       0.04163395       1.00000000       0.29163395 </v>
    <v>       0.45742835       0.00000000       0.20933281 </v>
    <v>       0.95933281       0.00000000       0.70742835 </v>
    <v>       0.41618336       0.75094210       0.66618336 </v>
    <v>       0.66668716       0.24996913       0.91668716 </v>
    <v>       0.91654433       0.75204946       0.16654433 </v>
    <v>       0.16667313       0.24985410       0.41667313 </v>
    <v>       0.54224256       0.50000000       0.79224256 </v>
    <v>       0.79143236       1.00000000       0.04143236 </v>
    <v>       0.04227955       0.50000000       0.29227955 </v>
    <v>       0.29153177       1.00000000       0.54153177 </v>
    <v>       0.41618336       0.24905790       0.66618336 </v>
    <v>       0.66668716       0.75003087       0.91668716 </v>
    <v>       0.91654433       0.24795054       0.16654433 </v>
    <v>       0.16667313       0.75014590       0.41667313 </v>
    <v>       0.08404599       0.24885300       0.83226259 </v>
    <v>       0.33257864       0.74986244       0.08495161 </v>
    <v>       0.58226259       0.24885300       0.33404599 </v>
    <v>       0.83495161       0.74986244       0.58257864 </v>
    <v>       0.08404599       0.75114700       0.83226259 </v>
    <v>       0.33257864       0.25013756       0.08495161 </v>
    <v>       0.58226259       0.75114700       0.33404599 </v>
    <v>       0.83495161       0.25013756       0.58257864 </v>
    <v>       0.95957664       0.50000000       0.70690291 </v>
    <v>       0.20739827       0.00000000       0.95873578 </v>
    <v>       0.45690291       0.50000000       0.20957664 </v>
    <v>       0.70873578       0.00000000       0.45739827 </v>
   </varray>
  </structure>
  <varray name="forces" >
   <v>       0.00666590      -0.00384856      -0.00000000 </v>
   <v>       0.00249257      -0.00143908      -0.00000000 </v>
   <v>      -0.00756407       0.00436712      -0.00127248 </v>
   <v>      -0.00756407       0.00436712       0.00127248 </v>
   <v>       0.00213466      -0.00123245      -0.00000000 </v>
   <v>       0.00517290      -0.00298658      -0.00000000 </v>
   <v>       0.00436289      -0.00251891      -0.00101981 </v>
   <v>       0.00436289      -0.00251891       0.00101981 </v>
   <v>      -0.00144843       0.00359749      -0.00000000 </v>
   <v>      -0.00631574       0.00432293      -0.00000000 </v>
   <v>       0.01379007       0.01297602      -0.00000000 </v>
   <v>      -0.00604072       0.00561976      -0.00000000 </v>
   <v>       0.00595761      -0.00343963      -0.00000000 </v>
   <v>       0.00624055      -0.00360298      -0.00000000 </v>
   <v>       0.01453609      -0.00839241      -0.00000000 </v>
   <v>       0.00372192      -0.00214885      -0.00000000 </v>
   <v>      -0.00383973      -0.00054437      -0.00000000 </v>
   <v>      -0.00690164       0.00330813      -0.00000000 </v>
   <v>      -0.00434252      -0.01843056      -0.00000000 </v>
   <v>      -0.00788722       0.00242154      -0.00000000 </v>
   <v>      -0.00522321      -0.00644034      -0.00598377 </v>
   <v>       0.00253541      -0.00402505       0.00548495 </v>
   <v>      -0.00522321      -0.00644034       0.00598377 </v>
   <v>       0.00253541      -0.00402505      -0.00548495 </v>
   <v>       0.00296589       0.00774360      -0.00598377 </v>
   <v>       0.00475350      -0.00018320       0.00548495 </v>
   <v>       0.00296589       0.00774360       0.00598377 </v>
   <v>       0.00475350      -0.00018320      -0.00548495 </v>
   <v>      -0.00146134       0.00084371      -0.00446102 </v>
   <v>      -0.01233721       0.00712289       0.00849814 </v>
   <v>      -0.00146134       0.00084371       0.00446102 </v>
   <v>      -0.01233721       0.00712289      -0.00849814 </v>
  </varray>
  <varray name="stress" >
   <v>     -27.01163615       0.17016046       0.00000000 </v>
   <v>       0.17016046     -26.81516152       0.00000000 </v>
   <v>       0.00000000       0.00000000     -31.46433564 </v>
  </varray>
  <energy>
   <i name="e_fr_energy">   -293.98408990 </i>
   <i name="e_wo_entrp">   -293.98408990 </i>
   <i name="e_0_energy">      0.00000000 </i>
  </energy>
  <time name="totalsc">  175.32  176.26</time>
  <eigenvalues>
   <array>
    <dimension dim="1">band</dimension>
    <dimension dim="2">kpoint</dimension>
    <dimension dim="3">spin</dimension>
    <field>eigene</field>
    <field>occ</field>
    <set>
     <set comment="spin 1">
      <set comment="kpoint 1">
       <r>    0.4905    1.0000 </r>
       <r>    2.0453    1.0000 </r>
       <r>    2.2941    1.0000 </r>
       <r>    2.3404    1.0000 </r>
       <r>    2.5812    1.0000 </r>
       <r>    2.6556    1.0000 </r>
       <r>    2.6665    1.0000 </r>
       <r>    2.6949    1.0000 </r>
       <r>    2.8577    1.0000 </r>
       <r>    2.9564    1.0000 </r>
       <r>    2.9628    1.0000 </r>
       <r>    2.9738    1.0000 </r>
       <r>    2.9942    1.0000 </r>
       <r>    3.0475    1.0000 </r>
       <r>    3.0534    1.0000 </r>
       <r>    3.1114    1.0000 </r>
       <r>    3.1163    1.0000 </r>
       <r>    3.1881    1.0000 </r>
       <r>    3.2228    1.0000 </r>
       <r>    3.2248    1.0000 </r>
       <r>    3.2668    1.0000 </r>
       <r>    3.2949    1.0000 </r>
       <r>    3.2973    1.0000 </r>
       <r>    3.3241    1.0000 </r>
       <r>    3.3547    1.0000 </r>
       <r>    3.3818    1.0000 </r>
       <r>    3.4172    1.0000 </r>
       <r>    3.4259    1.0000 </r>
       <r>    3.4526    1.0000 </r>
       <r>    3.5131    1.0000 </r>
       <r>    3.5549    1.0000 </r>
       <r>    3.5666    1.0000 </r>
       <r>    3.5945    1.0000 </r>
       <r>    4.0097    1.0000 </r>
       <r>    4.0162    1.0000 </r>
       <r>    4.2528    1.0000 </r>
       <r>    4.2705    1.0000 </r>
       <r>    4.3599    1.0000 </r>
       <r>    4.4415    1.0000 </r>
       <r>    4.4518    1.0000 </r>
       <r>    4.4711    1.0000 </r>
       <r>    4.5423    1.0000 </r>
       <r>    4.5746    1.0000 </r>
       <r>    4.5932    1.0000 </r>
       <r>    4.5967    1.0000 </r>
       <r>    4.5996    1.0000 </r>
       <r>    4.6253    1.0000 </r>
       <r>    4.6928    1.0000 </r>
       <r>    4.6966    1.0000 </r>
       <r>    4.8262    1.0000 </r>
       <r>    4.9001    1.0000 </r>
       <r>    4.9410    1.0000 </r>
       <r>    5.0825    1.0000 </r>
       <r>    5.1472    1.0000 </r>
       <r>    5.2138    1.0000 </r>
       <r>    5.2222    1.0000 </r>
       <r>    5.2398    1.0000 </r>
       <r>    5.2631    1.0000 </r>
       <r>    5.2847    1.0000 </r>
       <r>    5.4828    1.0000 </r>
       <r>    5.6414    1.0000 </r>
       <r>    5.7648    1.0000 </r>
       <r>    5.7699    1.0000 </r>
       <r>    5.8850    1.0000 </r>
       <r>    6.1581    1.0000 </r>
       <r>    6.1819    1.0000 </r>
       <r>    6.1851    1.0000 </r>
       <r>    6.2391    1.0000 </r>
       <r>    6.2594    1.0000 </r>
       <r>    6.3022    1.0000 </r>
       <r>    6.3058    1.0000 </r>
       <r>    6.3614    1.0000 </r>
       <r>    6.3624    1.0000 </r>
       <r>    6.4101    1.0000 </r>
       <r>    6.4297    1.0000 </r>
       <r>    6.4310    1.0000 </r>
       <r>    6.4454    1.0000 </r>
       <r>    6.4515    1.0000 </r>
       <r>    6.4774    1.0000 </r>
       <r>    6.5209    1.0000 </r>
       <r>    6.6889    1.0000 </r>
       <r>    6.6907    1.0000 </r>
       <r>    6.7310    1.0000 </r>
       <r>    6.7504    1.0000 </r>
       <r>    6.8067    1.0000 </r>
       <r>    6.8588    1.0000 </r>
       <r>    6.8840    1.0000 </r>
       <r>    6.9170    1.0000 </r>
       <r>    6.9225    1.0000 </r>
       <r>    6.9319    1.0000 </r>
       <r>    6.9497    1.0000 </r>
       <r>    6.9589    1.0000 </r>
       <r>    7.0052    1.0000 </r>
       <r>    7.0113    1.0000 </r>
       <r>    7.0424    1.0000 </r>
       <r>    7.0514    1.0000 </r>
       <r>    7.0571    1.0000 </r>
       <r>    7.1148    1.0000 </r>
       <r>    7.1630    1.0000 </r>
       <r>    7.1972    1.0000 </r>
       <r>    7.2324    1.0000 </r>
       <r>    7.2709    1.0000 </r>
       <r>    7.2916    1.0000 </r>
       <r>    7.2955    1.0000 </r>
       <r>    7.3783    1.0000 </r>
       <r>    7.4179    1.0000 </r>
       <r>    7.5834    1.0000 </r>
       <r>    7.6461    1.0000 </r>
       <r>    7.6912    1.0000 </r>
       <r>    7.7312    1.0000 </r>
       <r>    7.8853    1.0000 </r>
       <r>    7.9473    1.0000 </r>
       <r>    8.0331    1.0000 </r>
       <r>    8.1124    1.0000 </r>
       <r>    8.1268    1.0000 </r>
       <r>    8.1722    1.0000 </r>
       <r>    8.1882    1.0000 </r>
       <r>    8.2255    1.0000 </r>
       <r>    8.2879    1.0000 </r>
       <r>    8.2958    1.0000 </r>
       <r>    8.3092    1.0000 </r>
       <r>    8.3321    1.0000 </r>
       <r>    8.3341    1.0000 </r>
       <r>    8.3408    1.0000 </r>
       <r>    8.3497    1.0000 </r>
       <r>    8.3504    1.0000 </r>
       <r>    8.4196    1.0000 </r>
       <r>    8.4592    1.0197 </r>
       <r>    8.8324    1.0009 </r>
       <r>    8.8702    0.6245 </r>
       <r>    9.1893   -0.1431 </r>
       <r>    9.1990   -0.0069 </r>
       <r>    9.2509    0.0000 </r>
       <r>    9.2736    0.0000 </r>
       <r>    9.5957    0.0000 </r>
       <r>    9.6173    0.0000 </r>
       <r>    9.6332    0.0000 </r>
       <r>    9.6696    0.0000 </r>
       <r>    9.8472    0.0000 </r>
       <r>    9.8824    0.0000 </r>
       <r>    9.9144    0.0000 </r>
       <r>    9.9164    0.0000 </r>
       <r>    9.9296    0.0000 </r>
       <r>    9.9526    0.0000 </r>
       <r>    9.9857    0.0000 </r>
       <r>   10.1151    0.0000 </r>
       <r>   10.1381    0.0000 </r>
       <r>   10.1750    0.0000 </r>
       <r>   10.1757    0.0000 </r>
       <r>   10.1925    0.0000 </r>
       <r>   10.2487    0.0000 </r>
       <r>   10.2495    0.0000 </r>
       <r>   10.2499    0.0000 </r>
       <r>   10.2594    0.0000 </r>
       <r>   10.2599    0.0000 </r>
       <r>   10.2634    0.0000 </r>
       <r>   10.2829    0.0000 </r>
       <r>   10.2945    0.0000 </r>
       <r>   10.2967    0.0000 </r>
       <r>   10.2974    0.0000 </r>
       <r>   10.3927    0.0000 </r>
       <r>   10.4096    0.0000 </r>
       <r>   10.5470    0.0000 </r>
       <r>   10.5470    0.0000 </r>
       <r>   10.5708    0.0000 </r>
       <r>   10.6290    0.0000 </r>
       <r>   10.6329    0.0000 </r>
       <r>   10.6554    0.0000 </r>
       <r>   11.2352    0.0000 </r>
       <r>   11.2422    0.0000 </r>
       <r>   11.2738    0.0000 </r>
       <r>   11.2952    0.0000 </r>
       <r>   12.3424    0.0000 </r>
       <r>   12.4098    0.0000 </r>
       <r>   12.6768    0.0000 </r>
       <r>   12.6839    0.0000 </r>
       <r>   12.7077    0.0000 </r>
       <r>   12.9144    0.0000 </r>
       <r>   12.9819    0.0000 </r>
       <r>   12.9866    0.0000 </r>
       <r>   13.0348    0.0000 </r>
       <r>   13.0605    0.0000 </r>
       <r>   13.0979    0.0000 </r>
       <r>   13.1010    0.0000 </r>
       <r>   13.1683    0.0000 </r>
       <r>   14.4934    0.0000 </r>
       <r>   14.7086    0.0000 </r>
       <r>   14.7171    0.0000 </r>
       <r>   15.9455    0.0000 </r>
       <r>   16.0587    0.0000 </r>
       <r>   17.6773    0.0000 </r>
       <r>   17.8658    0.0000 </r>
      </set>
      <set comment="kpoint 2">
       <r>    0.6147    1.0000 </r>
       <r>    1.9222    1.0000 </r>
       <r>    2.1403    1.0000 </r>
       <r>    2.3323    1.0000 </r>
       <r>    2.5439    1.0000 </r>
       <r>    2.6947    1.0000 </r>
       <r>    2.6964    1.0000 </r>
       <r>    2.7208    1.0000 </r>
       <r>    2.7324    1.0000 </r>
       <r>    2.7646    1.0000 </r>
       <r>    2.7847    1.0000 </r>
       <r>    2.8715    1.0000 </r>
       <r>    2.8716    1.0000 </r>
       <r>    2.9346    1.0000 </r>
       <r>    2.9596    1.0000 </r>
       <r>    3.0003    1.0000 </r>
       <r>    3.0638    1.0000 </r>
       <r>    3.1078    1.0000 </r>
       <r>    3.1669    1.0000 </r>
       <r>    3.1883    1.0000 </r>
       <r>    3.2248    1.0000 </r>
       <r>    3.3376    1.0000 </r>
       <r>    3.4157    1.0000 </r>
       <r>    3.4722    1.0000 </r>
       <r>    3.5010    1.0000 </r>
       <r>    3.5253    1.0000 </r>
       <r>    3.5467    1.0000 </r>
       <r>    3.6068    1.0000 </r>
       <r>    3.6112    1.0000 </r>
       <r>    3.6617    1.0000 </r>
       <r>    3.8381    1.0000 </r>
       <r>    3.8732    1.0000 </r>
       <r>    3.9072    1.0000 </r>
       <r>    4.0064    1.0000 </r>
       <r>    4.0228    1.0000 </r>
       <r>    4.1338    1.0000 </r>
       <r>    4.1729    1.0000 </r>
       <r>    4.2034    1.0000 </r>
       <r>    4.2693    1.0000 </r>
       <r>    4.3242    1.0000 </r>
       <r>    4.3598    1.0000 </r>
       <r>    4.3747    1.0000 </r>
       <r>    4.4057    1.0000 </r>
       <r>    4.6305    1.0000 </r>
       <r>    4.7293    1.0000 </r>
       <r>    4.7469    1.0000 </r>
       <r>    4.8011    1.0000 </r>
       <r>    4.8096    1.0000 </r>
       <r>    4.8445    1.0000 </r>
       <r>    4.8923    1.0000 </r>
       <r>    5.0332    1.0000 </r>
       <r>    5.0755    1.0000 </r>
       <r>    5.0952    1.0000 </r>
       <r>    5.1644    1.0000 </r>
       <r>    5.2479    1.0000 </r>
       <r>    5.3377    1.0000 </r>
       <r>    5.3690    1.0000 </r>
       <r>    5.5008    1.0000 </r>
       <r>    5.5293    1.0000 </r>
       <r>    5.6386    1.0000 </r>
       <r>    5.6907    1.0000 </r>
       <r>    5.7930    1.0000 </r>
       <r>    5.8893    1.0000 </r>
       <r>    5.8985    1.0000 </r>
       <r>    5.9213    1.0000 </r>
       <r>    5.9494    1.0000 </r>
       <r>    5.9519    1.0000 </r>
       <r>    5.9639    1.0000 </r>
       <r>    5.9886    1.0000 </r>
       <r>    6.0390    1.0000 </r>
       <r>    6.0975    1.0000 </r>
       <r>    6.1117    1.0000 </r>
       <r>    6.1247    1.0000 </r>
       <r>    6.1935    1.0000 </r>
       <r>    6.2471    1.0000 </r>
       <r>    6.2757    1.0000 </r>
       <r>    6.3685    1.0000 </r>
       <r>    6.3814    1.0000 </r>
       <r>    6.4035    1.0000 </r>
       <r>    6.4390    1.0000 </r>
       <r>    6.4571    1.0000 </r>
       <r>    6.5206    1.0000 </r>
       <r>    6.5428    1.0000 </r>
       <r>    6.5860    1.0000 </r>
       <r>    6.6346    1.0000 </r>
       <r>    6.6548    1.0000 </r>
       <r>    6.7204    1.0000 </r>
       <r>    6.7240    1.0000 </r>
       <r>    6.8183    1.0000 </r>
       <r>    6.8293    1.0000 </r>
       <r>    7.0433    1.0000 </r>
       <r>    7.0623    1.0000 </r>
       <r>    7.1260    1.0000 </r>
       <r>    7.1532    1.0000 </r>
       <r>    7.1597    1.0000 </r>
       <r>    7.2100    1.0000 </r>
       <r>    7.2448    1.0000 </r>
       <r>    7.2637    1.0000 </r>
       <r>    7.2720    1.0000 </r>
       <r>    7.2908    1.0000 </r>
       <r>    7.3170    1.0000 </r>
       <r>    7.3329    1.0000 </r>
       <r>    7.5330    1.0000 </r>
       <r>    7.5348    1.0000 </r>
       <r>    7.7003    1.0000 </r>
       <r>    7.7807    1.0000 </r>
       <r>    7.8058    1.0000 </r>
       <r>    7.8171    1.0000 </r>
       <r>    7.8342    1.0000 </r>
       <r>    7.8685    1.0000 </r>
       <r>    7.9122    1.0000 </r>
       <r>    7.9131    1.0000 </r>
       <r>    7.9453    1.0000 </r>
       <r>    8.0138    1.0000 </r>
       <r>    8.0828    1.0000 </r>
       <r>    8.1388    1.0000 </r>
       <r>    8.1597    1.0000 </r>
       <r>    8.2201    1.0000 </r>
       <r>    8.2303    1.0000 </r>
       <r>    8.2787    1.0000 </r>
       <r>    8.2844    1.0000 </r>
       <r>    8.3246    1.0000 </r>
       <r>    8.3579    1.0000 </r>
       <r>    8.4995    1.0000 </r>
       <r>    8.6269    1.0000 </r>
       <r>    8.7337    1.0000 </r>
       <r>    8.8061    1.0000 </r>
       <r>    8.8062    0.9859 </r>
       <r>    8.8633    0.8994 </r>
       <r>    8.8741    0.6257 </r>
       <r>    8.9184    0.2330 </r>
       <r>    8.9729   -0.0100 </r>
       <r>    9.1286    0.0000 </r>
       <r>    9.1846    0.0000 </r>
       <r>    9.2570    0.0000 </r>
       <r>    9.5445    0.0000 </r>
       <r>    9.5794    0.0000 </r>
       <r>    9.6359    0.0000 </r>
       <r>    9.8833    0.0000 </r>
       <r>    9.8905    0.0000 </r>
       <r>    9.9058    0.0000 </r>
       <r>    9.9351    0.0000 </r>
       <r>    9.9649    0.0000 </r>
       <r>    9.9894    0.0000 </r>
       <r>   10.0106    0.0000 </r>
       <r>   10.0190    0.0000 </r>
       <r>   10.0506    0.0000 </r>
       <r>   10.0556    0.0000 </r>
       <r>   10.0878    0.0000 </r>
       <r>   10.1018    0.0000 </r>
       <r>   10.1375    0.0000 </r>
       <r>   10.1428    0.0000 </r>
       <r>   10.1824    0.0000 </r>
       <r>   10.2758    0.0000 </r>
       <r>   10.3041    0.0000 </r>
       <r>   10.3051    0.0000 </r>
       <r>   10.3310    0.0000 </r>
       <r>   10.3855    0.0000 </r>
       <r>   10.4449    0.0000 </r>
       <r>   10.4452    0.0000 </r>
       <r>   10.4699    0.0000 </r>
       <r>   10.4759    0.0000 </r>
       <r>   10.4867    0.0000 </r>
       <r>   10.5040    0.0000 </r>
       <r>   10.5255    0.0000 </r>
       <r>   10.5312    0.0000 </r>
       <r>   10.5398    0.0000 </r>
       <r>   10.5630    0.0000 </r>
       <r>   10.5754    0.0000 </r>
       <r>   10.5866    0.0000 </r>
       <r>   12.2028    0.0000 </r>
       <r>   12.2231    0.0000 </r>
       <r>   12.2419    0.0000 </r>
       <r>   12.2975    0.0000 </r>
       <r>   12.4068    0.0000 </r>
       <r>   12.4443    0.0000 </r>
       <r>   12.5125    0.0000 </r>
       <r>   12.5311    0.0000 </r>
       <r>   12.6063    0.0000 </r>
       <r>   12.7634    0.0000 </r>
       <r>   12.7893    0.0000 </r>
       <r>   13.5312    0.0000 </r>
       <r>   13.5455    0.0000 </r>
       <r>   13.9949    0.0000 </r>
       <r>   14.0107    0.0000 </r>
       <r>   14.5217    0.0000 </r>
       <r>   14.6877    0.0000 </r>
       <r>   14.7013    0.0000 </r>
       <r>   14.8068    0.0000 </r>
       <r>   15.6673    0.0000 </r>
       <r>   17.5003    0.0000 </r>
       <r>   19.4123    0.0000 </r>
      </set>
      <set comment="kpoint 3">
       <r>    0.9591    1.0000 </r>
       <r>    1.5094    1.0000 </r>
       <r>    1.9925    1.0000 </r>
       <r>    2.2441    1.0000 </r>
       <r>    2.4243    1.0000 </r>
       <r>    2.5804    1.0000 </r>
       <r>    2.5846    1.0000 </r>
       <r>    2.6483    1.0000 </r>
       <r>    2.6510    1.0000 </r>
       <r>    2.7147    1.0000 </r>
       <r>    2.7893    1.0000 </r>
       <r>    2.8112    1.0000 </r>
       <r>    2.8869    1.0000 </r>
       <r>    2.9094    1.0000 </r>
       <r>    2.9591    1.0000 </r>
       <r>    2.9779    1.0000 </r>
       <r>    3.0464    1.0000 </r>
       <r>    3.1206    1.0000 </r>
       <r>    3.1477    1.0000 </r>
       <r>    3.1774    1.0000 </r>
       <r>    3.1884    1.0000 </r>
       <r>    3.2715    1.0000 </r>
       <r>    3.3447    1.0000 </r>
       <r>    3.3775    1.0000 </r>
       <r>    3.5272    1.0000 </r>
       <r>    3.6110    1.0000 </r>
       <r>    3.6551    1.0000 </r>
       <r>    3.7276    1.0000 </r>
       <r>    3.9011    1.0000 </r>
       <r>    3.9808    1.0000 </r>
       <r>    3.9980    1.0000 </r>
       <r>    4.0332    1.0000 </r>
       <r>    4.1400    1.0000 </r>
       <r>    4.1443    1.0000 </r>
       <r>    4.2622    1.0000 </r>
       <r>    4.2746    1.0000 </r>
       <r>    4.2911    1.0000 </r>
       <r>    4.3502    1.0000 </r>
       <r>    4.3793    1.0000 </r>
       <r>    4.3901    1.0000 </r>
       <r>    4.4456    1.0000 </r>
       <r>    4.4754    1.0000 </r>
       <r>    4.5103    1.0000 </r>
       <r>    4.6014    1.0000 </r>
       <r>    4.6923    1.0000 </r>
       <r>    4.7324    1.0000 </r>
       <r>    4.8415    1.0000 </r>
       <r>    4.8637    1.0000 </r>
       <r>    4.8781    1.0000 </r>
       <r>    4.9509    1.0000 </r>
       <r>    5.0000    1.0000 </r>
       <r>    5.0024    1.0000 </r>
       <r>    5.0692    1.0000 </r>
       <r>    5.1148    1.0000 </r>
       <r>    5.1893    1.0000 </r>
       <r>    5.2478    1.0000 </r>
       <r>    5.2568    1.0000 </r>
       <r>    5.2933    1.0000 </r>
       <r>    5.4063    1.0000 </r>
[...]
       <r>    8.9178    0.1613 </r>
       <r>    8.9704    0.0689 </r>
       <r>    9.3237    0.0000 </r>
       <r>    9.3302    0.0000 </r>
       <r>    9.6621    0.0000 </r>
       <r>    9.6680    0.0000 </r>
       <r>    9.6930    0.0000 </r>
       <r>    9.7130    0.0000 </r>
       <r>    9.7204    0.0000 </r>
       <r>    9.7407    0.0000 </r>
       <r>    9.8657    0.0000 </r>
       <r>    9.8825    0.0000 </r>
       <r>    9.9901    0.0000 </r>
       <r>   10.0049    0.0000 </r>
       <r>   10.0419    0.0000 </r>
       <r>   10.0496    0.0000 </r>
       <r>   10.0650    0.0000 </r>
       <r>   10.0655    0.0000 </r>
       <r>   10.0855    0.0000 </r>
       <r>   10.0863    0.0000 </r>
       <r>   10.1737    0.0000 </r>
       <r>   10.1984    0.0000 </r>
       <r>   10.2845    0.0000 </r>
       <r>   10.2899    0.0000 </r>
       <r>   10.3274    0.0000 </r>
       <r>   10.3282    0.0000 </r>
       <r>   10.3406    0.0000 </r>
       <r>   10.3539    0.0000 </r>
       <r>   10.3602    0.0000 </r>
       <r>   10.3802    0.0000 </r>
       <r>   10.5210    0.0000 </r>
       <r>   10.5945    0.0000 </r>
       <r>   10.6274    0.0000 </r>
       <r>   10.6430    0.0000 </r>
       <r>   11.1166    0.0000 </r>
       <r>   11.1543    0.0000 </r>
       <r>   12.1623    0.0000 </r>
       <r>   12.3091    0.0000 </r>
       <r>   12.3519    0.0000 </r>
       <r>   12.4068    0.0000 </r>
       <r>   12.4177    0.0000 </r>
       <r>   12.5013    0.0000 </r>
       <r>   12.5348    0.0000 </r>
       <r>   12.5664    0.0000 </r>
       <r>   15.0322    0.0000 </r>
       <r>   15.1740    0.0000 </r>
       <r>   15.2172    0.0000 </r>
       <r>   15.3261    0.0000 </r>
       <r>   15.6559    0.0000 </r>
       <r>   15.7635    0.0000 </r>
       <r>   15.8023    0.0000 </r>
       <r>   15.9448    0.0000 </r>
       <r>   17.6215    0.0000 </r>
       <r>   17.6381    0.0000 </r>
       <r>   17.6761    0.0000 </r>
       <r>   19.3527    0.0000 </r>
      </set>
     </set>
    </set>
   </array>
  </eigenvalues>
  <separator name="orbital magnetization" >
   <v name="MAGDIPOLOUT">      0.00000000      0.00000000      0.00000000</v>
  </separator>
  <dos>
   <i name="efermi">      8.91398467 </i>
   <total>
    <array>
     <dimension dim="1">gridpoints</dimension>
     <dimension dim="2">spin</dimension>
     <field>energy</field>
     <field>total</field>
     <field>integrated</field>
     <set>
      <set comment="spin 1">
       <r>    -0.5095     0.0000     0.0000 </r>
       <r>    -0.4365     0.0000     0.0000 </r>
       <r>    -0.3636     0.0000     0.0000 </r>
       <r>    -0.2906     0.0000     0.0000 </r>
       <r>    -0.2177     0.0000     0.0000 </r>
       <r>    -0.1447     0.0000     0.0000 </r>
       <r>    -0.0717     0.0000     0.0000 </r>
       <r>     0.0012     0.0000     0.0000 </r>
       <r>     0.0742     0.0000     0.0000 </r>
       <r>     0.1471     0.0000     0.0000 </r>
       <r>     0.2201     0.0000     0.0000 </r>
       <r>     0.2930     0.0000     0.0000 </r>
       <r>     0.3660     0.0000     0.0000 </r>
       <r>     0.4389     0.0000     0.0000 </r>
       <r>     0.5119     0.0286     0.0002 </r>
       <r>     0.5848     0.5180     0.0172 </r>
       <r>     0.6578     0.7852     0.0682 </r>
       <r>     0.7308     1.0124     0.1327 </r>
       <r>     0.8037     1.3464     0.2173 </r>
       <r>     0.8767     1.6138     0.3279 </r>
       <r>     0.9496     1.7234     0.4495 </r>
       <r>     1.0226     2.1079     0.5892 </r>
       <r>     1.0955     2.0550     0.7419 </r>
       <r>     1.1685     1.7577     0.8842 </r>
       <r>     1.2414     1.4906     1.0004 </r>
       <r>     1.3144     1.7636     1.1083 </r>
       <r>     1.3873     2.1667     1.2577 </r>
       <r>     1.4603     2.6264     1.4298 </r>
       <r>     1.5333     3.0849     1.6429 </r>
       <r>     1.6062     2.9436     1.8601 </r>
       <r>     1.6792     3.0287     2.0777 </r>
       <r>     1.7521     3.1481     2.3027 </r>
       <r>     1.8251     3.6712     2.5477 </r>
       <r>     1.8980     4.0625     2.8303 </r>
       <r>     1.9710     4.3844     3.1373 </r>
       <r>     2.0439     4.4568     3.4640 </r>
       <r>     2.1169     4.4418     3.7784 </r>
       <r>     2.1898     5.9059     4.1458 </r>
       <r>     2.2628     6.3578     4.6215 </r>
       <r>     2.3358     6.8980     5.0761 </r>
       <r>     2.4087     9.9932     5.6670 </r>
       <r>     2.4817     9.4024     6.4441 </r>
       <r>     2.5546    19.3544     7.3460 </r>
       <r>     2.6276    15.6917     8.7195 </r>
       <r>     2.7005    19.4311     9.8950 </r>
       <r>     2.7735    23.1445    11.4211 </r>
       <r>     2.8464    30.0635    13.3160 </r>
       <r>     2.9194    32.4106    15.5827 </r>
       <r>     2.9923    36.7162    18.0652 </r>
       <r>     3.0653    37.2804    20.7958 </r>
       <r>     3.1383    40.8217    23.6034 </r>
       <r>     3.2112    46.8176    26.7670 </r>
       <r>     3.2842    47.1002    30.1335 </r>
       <r>     3.3571    48.0365    33.5336 </r>
       <r>     3.4301    56.0455    37.3747 </r>
       <r>     3.5030    46.7123    40.9342 </r>
       <r>     3.5760    48.8109    44.2527 </r>
       <r>     3.6489    44.2250    47.6293 </r>
       <r>     3.7219    39.1983    50.7009 </r>
       <r>     3.7948    40.5931    53.5477 </r>
       <r>     3.8678    38.2693    56.4021 </r>
       <r>     3.9408    38.7850    59.1926 </r>
       <r>     4.0137    36.7034    61.9236 </r>
       <r>     4.0867    30.9779    64.5622 </r>
       <r>     4.1596    36.7976    66.9824 </r>
       <r>     4.2326    35.5407    69.6887 </r>
       <r>     4.3055    43.0588    72.6565 </r>
       <r>     4.3785    45.8355    76.1325 </r>
       <r>     4.4514    43.5238    79.6372 </r>
       <r>     4.5244    39.2995    82.6810 </r>
       <r>     4.5973    42.0214    85.4519 </r>
       <r>     4.6703    38.6713    88.0182 </r>
       <r>     4.7433    42.1500    90.6762 </r>
       <r>     4.8162    41.2557    93.7709 </r>
       <r>     4.8892    42.4822    96.6266 </r>
       <r>     4.9621    44.9591    99.8180 </r>
       <r>     5.0351    48.1607   103.3022 </r>
       <r>     5.1080    52.9274   106.7584 </r>
       <r>     5.1810    45.9546   110.1463 </r>
       <r>     5.2539    38.3328   113.2110 </r>
       <r>     5.3269    33.0637   115.6562 </r>
       <r>     5.3998    28.1997   117.8817 </r>
       <r>     5.4728    24.9233   119.8685 </r>
       <r>     5.5457    23.6574   121.6326 </r>
       <r>     5.6187    27.6977   123.4775 </r>
       <r>     5.6917    33.7728   125.7835 </r>
       <r>     5.7646    53.1607   128.9099 </r>
       <r>     5.8376    49.8546   132.6202 </r>
       <r>     5.9105    57.5092   136.4851 </r>
       <r>     5.9835    62.5790   140.9134 </r>
       <r>     6.0564    59.1306   145.1643 </r>
       <r>     6.1294    48.8760   149.0818 </r>
       <r>     6.2023    46.2826   152.6213 </r>
       <r>     6.2753    39.9738   155.7227 </r>
       <r>     6.3482    43.7078   158.8853 </r>
       <r>     6.4212    49.3338   162.4022 </r>
       <r>     6.4942    55.5182   165.9953 </r>
       <r>     6.5671    58.6012   170.1238 </r>
       <r>     6.6401    53.2111   174.2739 </r>
       <r>     6.7130    58.1668   178.8059 </r>
       <r>     6.7860    46.6712   182.6261 </r>
       <r>     6.8589    38.9891   185.7724 </r>
       <r>     6.9319    45.8414   188.8317 </r>
       <r>     7.0048    47.8986   192.3340 </r>
       <r>     7.0778    52.0719   196.0493 </r>
       <r>     7.1507    48.9835   199.7725 </r>
       <r>     7.2237    47.0721   203.3376 </r>
       <r>     7.2967    52.3095   207.1257 </r>
       <r>     7.3696    50.0225   210.8363 </r>
       <r>     7.4426    42.1430   214.3943 </r>
       <r>     7.5155    44.2977   217.5389 </r>
       <r>     7.5885    36.7871   220.5808 </r>
       <r>     7.6614    34.2883   223.1802 </r>
       <r>     7.7344    34.2620   225.6970 </r>
       <r>     7.8073    34.4812   228.2307 </r>
       <r>     7.8803    31.8725   230.6310 </r>
       <r>     7.9532    30.8532   232.8488 </r>
       <r>     8.0262    33.1208   235.1613 </r>
       <r>     8.0992    29.2473   237.4516 </r>
       <r>     8.1721    29.7528   239.5565 </r>
       <r>     8.2451    29.3036   241.7056 </r>
       <r>     8.3180    28.3400   243.8690 </r>
       <r>     8.3910    29.7139   246.0652 </r>
       <r>     8.4639    27.3954   248.1205 </r>
       <r>     8.5369    22.8621   250.0451 </r>
       <r>     8.6098    25.4947   251.8098 </r>
       <r>     8.6828    23.0912   253.5331 </r>
       <r>     8.7557    26.5065   255.3287 </r>
       <r>     8.8287    30.9786   257.4468 </r>
       <r>     8.9017    28.3920   259.6508 </r>
       <r>     8.9746    27.3916   261.7019 </r>
       <r>     9.0476    25.8643   263.6242 </r>
       <r>     9.1205    25.0854   265.4871 </r>
       <r>     9.1935    29.6890   267.4465 </r>
       <r>     9.2664    31.7210   269.7027 </r>
       <r>     9.3394    29.6452   271.9426 </r>
       <r>     9.4123    29.3589   274.0963 </r>
       <r>     9.4853    36.0601   276.4118 </r>
       <r>     9.5582    46.1040   279.3626 </r>
       <r>     9.6312    43.6244   282.5919 </r>
       <r>     9.7042    39.8576   285.6621 </r>
       <r>     9.7771    39.7705   288.6701 </r>
       <r>     9.8501    44.3732   291.8195 </r>
       <r>     9.9230    54.1467   295.4378 </r>
       <r>     9.9960    56.0489   299.4792 </r>
       <r>    10.0689    62.7536   303.8205 </r>
       <r>    10.1419    63.1936   308.2761 </r>
       <r>    10.2148    62.1570   312.7952 </r>
       <r>    10.2878    75.0927   317.8953 </r>
       <r>    10.3607    58.0135   322.9182 </r>
       <r>    10.4337    65.7557   327.4239 </r>
       <r>    10.5067    46.0079   331.6703 </r>
       <r>    10.5796    31.3555   334.6210 </r>
       <r>    10.6526    10.0848   335.9349 </r>
       <r>    10.7255    10.0758   336.6713 </r>
       <r>    10.7985    10.5384   337.4126 </r>
       <r>    10.8714    11.4114   338.2199 </r>
       <r>    10.9444    11.0780   339.0473 </r>
       <r>    11.0173     9.0031   339.7689 </r>
       <r>    11.0903     7.2756   340.3542 </r>
       <r>    11.1632     6.9615   340.8680 </r>
       <r>    11.2362     7.3733   341.3919 </r>
       <r>    11.3092     7.6391   341.9429 </r>
       <r>    11.3821     8.2445   342.5148 </r>
       <r>    11.4551     7.9258   343.0975 </r>
       <r>    11.5280     7.9892   343.6721 </r>
       <r>    11.6010     8.8530   344.2919 </r>
       <r>    11.6739     9.4197   344.9581 </r>
       <r>    11.7469     9.0018   345.6356 </r>
       <r>    11.8198     8.7520   346.2876 </r>
       <r>    11.8928     8.3748   346.9075 </r>
       <r>    11.9657     7.9068   347.5011 </r>
       <r>    12.0387     7.6151   348.0664 </r>
       <r>    12.1117     7.5774   348.6183 </r>
       <r>    12.1846     7.7420   349.1749 </r>
       <r>    12.2576     9.1246   349.7831 </r>
       <r>    12.3305     9.8831   350.4861 </r>
       <r>    12.4035    10.0077   351.2092 </r>
       <r>    12.4764     8.8589   351.8994 </r>
       <r>    12.5494     7.7262   352.4954 </r>
       <r>    12.6223     6.9536   353.0321 </r>
       <r>    12.6953     6.9372   353.5341 </r>
       <r>    12.7682     7.3896   354.0576 </r>
       <r>    12.8412     7.4356   354.5956 </r>
       <r>    12.9141     8.0196   355.1529 </r>
       <r>    12.9871     8.0048   355.7567 </r>
       <r>    13.0601     6.9983   356.2998 </r>
       <r>    13.1330     6.6841   356.8000 </r>
       <r>    13.2060     7.2404   357.3077 </r>
       <r>    13.2789     7.7843   357.8516 </r>
       <r>    13.3519     8.8130   358.4534 </r>
       <r>    13.4248     8.2218   359.0763 </r>
       <r>    13.4978     7.8636   359.6627 </r>
       <r>    13.5707     7.7671   360.2134 </r>
       <r>    13.6437     6.6299   360.7523 </r>
       <r>    13.7166     6.5261   361.2285 </r>
       <r>    13.7896     7.2840   361.7269 </r>
       <r>    13.8626     7.6438   362.2775 </r>
       <r>    13.9355     7.1106   362.8148 </r>
       <r>    14.0085     7.0318   363.3417 </r>
       <r>    14.0814     5.4506   363.7852 </r>
       <r>    14.1544     5.8248   364.1954 </r>
       <r>    14.2273     5.8350   364.6214 </r>
       <r>    14.3003     6.0091   365.0518 </r>
       <r>    14.3732     6.4301   365.4969 </r>
       <r>    14.4462     7.0898   365.9898 </r>
       <r>    14.5191     7.0425   366.5111 </r>
       <r>    14.5921     7.2669   367.0330 </r>
       <r>    14.6651     7.4955   367.5733 </r>
       <r>    14.7380     7.4689   368.1220 </r>
       <r>    14.8110     7.5667   368.6701 </r>
       <r>    14.8839     7.5020   369.2244 </r>
       <r>    14.9569     7.4436   369.7699 </r>
       <r>    15.0298     7.3615   370.3143 </r>
       <r>    15.1028     7.1234   370.8322 </r>
       <r>    15.1757     7.1362   371.3540 </r>
       <r>    15.2487     7.1545   371.8745 </r>
       <r>    15.3216     6.8216   372.3875 </r>
       <r>    15.3946     6.7450   372.8779 </r>
       <r>    15.4676     6.6418   373.3696 </r>
       <r>    15.5405     7.1775   373.8873 </r>
       <r>    15.6135     6.3588   374.3637 </r>
       <r>    15.6864     6.4032   374.8310 </r>
       <r>    15.7594     6.5767   375.3007 </r>
       <r>    15.8323     6.4387   375.7780 </r>
       <r>    15.9053     6.0207   376.2365 </r>
       <r>    15.9782     5.8423   376.6677 </r>
       <r>    16.0512     5.7985   377.0924 </r>
       <r>    16.1241     5.4736   377.5034 </r>
       <r>    16.1971     5.2040   377.8929 </r>
       <r>    16.2701     4.9463   378.2632 </r>
       <r>    16.3430     4.7057   378.6165 </r>
       <r>    16.4160     4.4901   378.9509 </r>
       <r>    16.4889     4.2821   379.2718 </r>
       <r>    16.5619     3.9049   379.5683 </r>
       <r>    16.6348     3.7063   379.8450 </r>
       <r>    16.7078     3.3862   380.1057 </r>
       <r>    16.7807     3.0850   380.3376 </r>
       <r>    16.8537     2.9976   380.5602 </r>
       <r>    16.9266     2.7800   380.7717 </r>
       <r>    16.9996     2.6044   380.9680 </r>
       <r>    17.0726     2.4523   381.1525 </r>
       <r>    17.1455     2.2932   381.3258 </r>
       <r>    17.2185     2.0888   381.4857 </r>
       <r>    17.2914     1.8245   381.6270 </r>
       <r>    17.3644     1.7146   381.7554 </r>
       <r>    17.4373     1.7028   381.8797 </r>
       <r>    17.5103     1.7301   382.0056 </r>
       <r>    17.5832     1.7124   382.1307 </r>
       <r>    17.6562     1.8119   382.2575 </r>
       <r>    17.7291     1.6298   382.3845 </r>
       <r>    17.8021     1.4644   382.4957 </r>
       <r>    17.8751     1.3729   382.5992 </r>
       <r>    17.9480     1.2938   382.6963 </r>
       <r>    18.0210     1.2322   382.7885 </r>
       <r>    18.0939     1.1825   382.8764 </r>
       <r>    18.1669     1.1481   382.9613 </r>
       <r>    18.2398     1.1101   383.0439 </r>
       <r>    18.3128     1.0342   383.1224 </r>
       <r>    18.3857     0.9733   383.1956 </r>
       <r>    18.4587     0.9232   383.2647 </r>
       <r>    18.5316     0.8799   383.3304 </r>
       <r>    18.6046     0.8392   383.3931 </r>
       <r>    18.6776     0.9090   383.4582 </r>
       <r>    18.7505     0.8883   383.5237 </r>
       <r>    18.8235     0.8654   383.5877 </r>
       <r>    18.8964     0.8403   383.6500 </r>
       <r>    18.9694     0.8130   383.7103 </r>
       <r>    19.0423     0.7829   383.7685 </r>
       <r>    19.1153     0.7490   383.8244 </r>
       <r>    19.1882     0.6978   383.8776 </r>
       <r>    19.2612     0.5964   383.9247 </r>
       <r>    19.3341     0.4012   383.9602 </r>
       <r>    19.4071     0.2461   383.9838 </r>
       <r>    19.4801     0.0659   383.9954 </r>
       <r>    19.5530     0.0103   383.9974 </r>
       <r>    19.6260     0.0079   383.9980 </r>
       <r>    19.6989     0.0064   383.9985 </r>
       <r>    19.7719     0.0051   383.9990 </r>
       <r>    19.8448     0.0040   383.9993 </r>
       <r>    19.9178     0.0029   383.9995 </r>
       <r>    19.9907     0.0021   383.9997 </r>
       <r>    20.0637     0.0014   383.9999 </r>
       <r>    20.1366     0.0008   383.9999 </r>
       <r>    20.2096     0.0004   384.0000 </r>
       <r>    20.2826     0.0001   384.0000 </r>
       <r>    20.3555     0.0000   384.0000 </r>
       <r>    20.4285     0.0000   384.0000 </r>
       <r>    20.5014     0.0000   384.0000 </r>
       <r>    20.5744     0.0000   384.0000 </r>
       <r>    20.6473     0.0000   384.0000 </r>
       <r>    20.7203     0.0000   384.0000 </r>
       <r>    20.7932     0.0000   384.0000 </r>
       <r>    20.8662     0.0000   384.0000 </r>
       <r>    20.9391     0.0000   384.0000 </r>
       <r>    21.0121     0.0000   384.0000 </r>
       <r>    21.0850     0.0000   384.0000 </r>
       <r>    21.1580     0.0000   384.0000 </r>
       <r>    21.2310     0.0000   384.0000 </r>
       <r>    21.3039     0.0000   384.0000 </r>
       <r>    21.3769     0.0000   384.0000 </r>
      </set>
     </set>
    </array>
   </total>
  </dos>
 </calculation>
 <structure name="finalpos" >
  <crystal>
   <varray name="basis" >
    <v>       8.18490713      -4.72555864      -4.31280323 </v>
    <v>       2.72805974       4.72513950       0.00000000 </v>
    <v>       8.18490713      -4.72555864       4.31280323 </v>
   </varray>
   <i name="volume">    444.79176795 </i>
   <varray name="rec_basis" >
    <v>       0.04581604      -0.02645189      -0.11593388 </v>
    <v>       0.09164021       0.15872548       0.00000000 </v>
    <v>       0.04581604      -0.02645189       0.11593388 </v>
   </varray>
  </crystal>
  <varray name="positions" >
   <v>       0.54228489       0.00000000       0.79228489 </v>
   <v>       0.79103930       0.50000000       0.04103930 </v>
   <v>       0.20801845       0.50000000       0.95869285 </v>
   <v>       0.70869285       0.50000000       0.45801845 </v>
   <v>       0.29161594       0.50000000       0.54161594 </v>
   <v>       0.04163395       1.00000000       0.29163395 </v>
   <v>       0.45742835       0.00000000       0.20933281 </v>
   <v>       0.95933281       0.00000000       0.70742835 </v>
   <v>       0.41618336       0.75094210       0.66618336 </v>
   <v>       0.66668716       0.24996913       0.91668716 </v>
   <v>       0.91654433       0.75204946       0.16654433 </v>
   <v>       0.16667313       0.24985410       0.41667313 </v>
   <v>       0.54224256       0.50000000       0.79224256 </v>
   <v>       0.79143236       1.00000000       0.04143236 </v>
   <v>       0.04227955       0.50000000       0.29227955 </v>
   <v>       0.29153177       1.00000000       0.54153177 </v>
   <v>       0.41618336       0.24905790       0.66618336 </v>
   <v>       0.66668716       0.75003087       0.91668716 </v>
   <v>       0.91654433       0.24795054       0.16654433 </v>
   <v>       0.16667313       0.75014590       0.41667313 </v>
   <v>       0.08404599       0.24885300       0.83226259 </v>
   <v>       0.33257864       0.74986244       0.08495161 </v>
   <v>       0.58226259       0.24885300       0.33404599 </v>
   <v>       0.83495161       0.74986244       0.58257864 </v>
   <v>       0.08404599       0.75114700       0.83226259 </v>
   <v>       0.33257864       0.25013756       0.08495161 </v>
   <v>       0.58226259       0.75114700       0.33404599 </v>
   <v>       0.83495161       0.25013756       0.58257864 </v>
   <v>       0.95957664       0.50000000       0.70690291 </v>
   <v>       0.20739827       0.00000000       0.95873578 </v>
   <v>       0.45690291       0.50000000       0.20957664 </v>
   <v>       0.70873578       0.00000000       0.45739827 </v>
  </varray>
 </structure>
</modeling>
