  64  64   0   0
  0.1400345E+02  0.8553504E-09  0.7651681E-09  0.1530901E-08  0.5000000E-15
  1.000000000000000E-004
  CAR 
 Ir_Ru                                   
     11.35036515     -0.80518513  301      8.79996086      1.00000000
     -0.805  0.0000E+00  0.0000E+00
     -0.765  0.0000E+00  0.0000E+00
     -0.724  0.0000E+00  0.0000E+00
     -0.684  0.0000E+00  0.0000E+00
     -0.643  0.0000E+00  0.0000E+00
     -0.603  0.0000E+00  0.0000E+00
     -0.562  0.0000E+00  0.0000E+00
     -0.522  0.0000E+00  0.0000E+00
     -0.481  0.0000E+00  0.0000E+00
     -0.441  0.0000E+00  0.0000E+00
     -0.400  0.0000E+00  0.0000E+00
     -0.359  0.0000E+00  0.0000E+00
     -0.319  0.0000E+00  0.0000E+00
     -0.278  0.0000E+00  0.0000E+00
     -0.238  0.0000E+00  0.0000E+00
     -0.197  0.0000E+00  0.0000E+00
     -0.157  0.0000E+00  0.0000E+00
     -0.116  0.0000E+00  0.0000E+00
     -0.076  0.0000E+00  0.0000E+00
     -0.035  0.0000E+00  0.0000E+00
      0.005  0.0000E+00  0.0000E+00
      0.046  0.0000E+00  0.0000E+00
      0.086  0.0000E+00  0.0000E+00
      0.127  0.0000E+00  0.0000E+00
      0.167  0.0000E+00  0.0000E+00
      0.208  0.4483E-01  0.1937E-03
      0.248  0.7311E+00  0.1334E-01
      0.289  0.1970E+01  0.6755E-01
      0.329  0.2219E+01  0.1578E+00
      0.370  0.1847E+01  0.2399E+00
      0.410  0.1963E+01  0.3170E+00
      0.451  0.2085E+01  0.3990E+00
      0.491  0.2204E+01  0.4859E+00
      0.532  0.2264E+01  0.5767E+00
      0.572  0.2288E+01  0.6689E+00
      0.613  0.2330E+01  0.7624E+00
      0.653  0.2415E+01  0.8583E+00
      0.694  0.2643E+01  0.9599E+00
      0.735  0.3148E+01  0.1076E+01
      0.775  0.3799E+01  0.1218E+01
      0.816  0.5662E+01  0.1406E+01
      0.856  0.5034E+01  0.1630E+01
      0.897  0.5981E+01  0.1852E+01
      0.937  0.5677E+01  0.2081E+01
      0.978  0.5406E+01  0.2314E+01
      1.018  0.3893E+01  0.2501E+01
      1.059  0.3127E+01  0.2637E+01
      1.099  0.4000E+01  0.2777E+01
      1.140  0.5145E+01  0.2965E+01
      1.180  0.5674E+01  0.3188E+01
      1.221  0.5989E+01  0.3422E+01
      1.261  0.6352E+01  0.3677E+01
      1.302  0.5480E+01  0.3916E+01
      1.342  0.4310E-01  0.4000E+01
      1.383  0.4411E+00  0.4009E+01
      1.423  0.1240E+01  0.4041E+01
      1.464  0.3253E+01  0.4130E+01
      1.504  0.4607E+01  0.4288E+01
      1.545  0.6098E+01  0.4518E+01
      1.585  0.7526E+01  0.4796E+01
      1.626  0.9009E+01  0.5141E+01
      1.666  0.7815E+01  0.5490E+01
      1.707  0.6586E+01  0.5781E+01
      1.747  0.7854E+01  0.6050E+01
      1.788  0.1347E+02  0.6490E+01
      1.829  0.6935E+01  0.6862E+01
      1.869  0.6467E+01  0.7121E+01
      1.910  0.7243E+01  0.7393E+01
      1.950  0.8273E+01  0.7706E+01
      1.991  0.1094E+02  0.8097E+01
      2.031  0.1210E+02  0.8549E+01
      2.072  0.1158E+02  0.9030E+01
      2.112  0.1286E+02  0.9570E+01
      2.153  0.1333E+02  0.1009E+02
      2.193  0.1436E+02  0.1064E+02
      2.234  0.2324E+02  0.1131E+02
      2.274  0.2183E+02  0.1224E+02
      2.315  0.2060E+02  0.1316E+02
      2.355  0.1808E+02  0.1393E+02
      2.396  0.3907E+02  0.1504E+02
      2.436  0.9568E+01  0.1602E+02
      2.477  0.1301E+02  0.1647E+02
      2.517  0.3171E+02  0.1735E+02
      2.558  0.2646E+02  0.1849E+02
      2.598  0.3841E+02  0.1996E+02
      2.639  0.3238E+02  0.2134E+02
      2.679  0.3895E+02  0.2277E+02
      2.720  0.4450E+02  0.2448E+02
      2.760  0.5117E+02  0.2634E+02
      2.801  0.5224E+02  0.2824E+02
      2.841  0.5361E+02  0.3018E+02
      2.882  0.5007E+02  0.3218E+02
      2.923  0.6348E+02  0.3456E+02
      2.963  0.6185E+02  0.3716E+02
      3.004  0.6675E+02  0.3981E+02
      3.044  0.6759E+02  0.4259E+02
      3.085  0.7436E+02  0.4547E+02
      3.125  0.7176E+02  0.4848E+02
      3.166  0.8144E+02  0.5156E+02
      3.206  0.8717E+02  0.5478E+02
      3.247  0.8487E+02  0.5840E+02
      3.287  0.9830E+02  0.6193E+02
      3.328  0.9022E+02  0.6563E+02
      3.368  0.1121E+03  0.6969E+02
      3.409  0.1168E+03  0.7379E+02
      3.449  0.1082E+03  0.7786E+02
      3.490  0.9717E+02  0.8181E+02
      3.530  0.9612E+02  0.8584E+02
      3.571  0.1032E+03  0.8981E+02
      3.611  0.9699E+02  0.9386E+02
      3.652  0.1056E+03  0.9787E+02
      3.692  0.1079E+03  0.1021E+03
      3.733  0.1058E+03  0.1065E+03
      3.773  0.9638E+02  0.1105E+03
      3.814  0.9470E+02  0.1144E+03
      3.854  0.9265E+02  0.1181E+03
      3.895  0.9184E+02  0.1219E+03
      3.935  0.8693E+02  0.1255E+03
      3.976  0.8810E+02  0.1290E+03
      4.017  0.9003E+02  0.1327E+03
      4.057  0.8909E+02  0.1363E+03
      4.098  0.8102E+02  0.1398E+03
      4.138  0.7497E+02  0.1429E+03
      4.179  0.6798E+02  0.1457E+03
      4.219  0.7263E+02  0.1485E+03
      4.260  0.6932E+02  0.1514E+03
      4.300  0.6824E+02  0.1542E+03
      4.341  0.6424E+02  0.1568E+03
      4.381  0.6790E+02  0.1595E+03
      4.422  0.6852E+02  0.1623E+03
      4.462  0.6854E+02  0.1650E+03
      4.503  0.6745E+02  0.1678E+03
      4.543  0.7207E+02  0.1705E+03
      4.584  0.6784E+02  0.1734E+03
      4.624  0.7324E+02  0.1762E+03
      4.665  0.7807E+02  0.1794E+03
      4.705  0.7915E+02  0.1825E+03
      4.746  0.7618E+02  0.1855E+03
      4.786  0.8324E+02  0.1888E+03
      4.827  0.7253E+02  0.1919E+03
      4.867  0.7528E+02  0.1949E+03
      4.908  0.7423E+02  0.1979E+03
      4.948  0.7386E+02  0.2009E+03
      4.989  0.7259E+02  0.2038E+03
      5.029  0.6997E+02  0.2069E+03
      5.070  0.7869E+02  0.2100E+03
      5.111  0.7188E+02  0.2131E+03
      5.151  0.7825E+02  0.2160E+03
      5.192  0.6949E+02  0.2190E+03
      5.232  0.7241E+02  0.2216E+03
      5.273  0.7203E+02  0.2244E+03
      5.313  0.7545E+02  0.2274E+03
      5.354  0.8145E+02  0.2305E+03
      5.394  0.7948E+02  0.2337E+03
      5.435  0.7039E+02  0.2366E+03
      5.475  0.6975E+02  0.2394E+03
      5.516  0.7094E+02  0.2423E+03
      5.556  0.8218E+02  0.2453E+03
      5.597  0.7737E+02  0.2485E+03
      5.637  0.7999E+02  0.2517E+03
      5.678  0.8478E+02  0.2551E+03
      5.718  0.8043E+02  0.2585E+03
      5.759  0.8273E+02  0.2619E+03
      5.799  0.7983E+02  0.2652E+03
      5.840  0.8472E+02  0.2685E+03
      5.880  0.8661E+02  0.2720E+03
      5.921  0.8777E+02  0.2755E+03
      5.961  0.8906E+02  0.2791E+03
      6.002  0.9579E+02  0.2829E+03
      6.042  0.9446E+02  0.2868E+03
      6.083  0.9889E+02  0.2907E+03
      6.123  0.1006E+03  0.2948E+03
      6.164  0.1044E+03  0.2990E+03
      6.205  0.1034E+03  0.3033E+03
      6.245  0.1087E+03  0.3076E+03
      6.286  0.1142E+03  0.3121E+03
      6.326  0.1237E+03  0.3169E+03
      6.367  0.1236E+03  0.3219E+03
      6.407  0.1262E+03  0.3269E+03
      6.448  0.1329E+03  0.3321E+03
      6.488  0.1267E+03  0.3375E+03
      6.529  0.1244E+03  0.3425E+03
      6.569  0.1203E+03  0.3476E+03
      6.610  0.1187E+03  0.3524E+03
      6.650  0.1201E+03  0.3571E+03
      6.691  0.1062E+03  0.3617E+03
      6.731  0.9374E+02  0.3657E+03
      6.772  0.9118E+02  0.3694E+03
      6.812  0.9076E+02  0.3730E+03
      6.853  0.8761E+02  0.3766E+03
      6.893  0.8076E+02  0.3800E+03
      6.934  0.8111E+02  0.3833E+03
      6.974  0.8393E+02  0.3867E+03
      7.015  0.8067E+02  0.3900E+03
      7.055  0.7415E+02  0.3930E+03
      7.096  0.7648E+02  0.3961E+03
      7.136  0.7873E+02  0.3992E+03
      7.177  0.7610E+02  0.4024E+03
      7.217  0.7046E+02  0.4054E+03
      7.258  0.7229E+02  0.4083E+03
      7.299  0.7064E+02  0.4112E+03
      7.339  0.6926E+02  0.4140E+03
      7.380  0.6716E+02  0.4167E+03
      7.420  0.6416E+02  0.4194E+03
      7.461  0.6676E+02  0.4220E+03
      7.501  0.7032E+02  0.4248E+03
      7.542  0.6815E+02  0.4277E+03
      7.582  0.6667E+02  0.4304E+03
      7.623  0.6797E+02  0.4331E+03
      7.663  0.7225E+02  0.4359E+03
      7.704  0.7539E+02  0.4389E+03
      7.744  0.7412E+02  0.4420E+03
      7.785  0.7794E+02  0.4450E+03
      7.825  0.7926E+02  0.4482E+03
      7.866  0.8039E+02  0.4514E+03
      7.906  0.8378E+02  0.4548E+03
      7.947  0.8148E+02  0.4582E+03
      7.987  0.8335E+02  0.4615E+03
      8.028  0.8378E+02  0.4649E+03
      8.068  0.8620E+02  0.4684E+03
      8.109  0.8225E+02  0.4718E+03
      8.149  0.8084E+02  0.4751E+03
      8.190  0.7990E+02  0.4783E+03
      8.230  0.8182E+02  0.4816E+03
      8.271  0.9281E+02  0.4851E+03
      8.311  0.9185E+02  0.4889E+03
      8.352  0.8277E+02  0.4924E+03
      8.393  0.7113E+02  0.4956E+03
      8.433  0.6823E+02  0.4983E+03
      8.474  0.6352E+02  0.5009E+03
      8.514  0.6567E+02  0.5035E+03
      8.555  0.7291E+02  0.5063E+03
      8.595  0.7488E+02  0.5093E+03
      8.636  0.7320E+02  0.5124E+03
      8.676  0.6929E+02  0.5153E+03
      8.717  0.6950E+02  0.5181E+03
      8.757  0.7097E+02  0.5210E+03
      8.798  0.6629E+02  0.5238E+03
      8.838  0.6275E+02  0.5266E+03
      8.879  0.5984E+02  0.5291E+03
      8.919  0.5955E+02  0.5315E+03
      8.960  0.5813E+02  0.5339E+03
      9.000  0.6187E+02  0.5364E+03
      9.041  0.6097E+02  0.5389E+03
      9.081  0.6320E+02  0.5414E+03
      9.122  0.7061E+02  0.5441E+03
      9.162  0.6845E+02  0.5469E+03
      9.203  0.6498E+02  0.5496E+03
      9.243  0.6548E+02  0.5523E+03
      9.284  0.6364E+02  0.5549E+03
      9.324  0.6682E+02  0.5575E+03
      9.365  0.6948E+02  0.5603E+03
      9.405  0.6826E+02  0.5632E+03
      9.446  0.6622E+02  0.5659E+03
      9.487  0.6332E+02  0.5685E+03
      9.527  0.6177E+02  0.5711E+03
      9.568  0.5982E+02  0.5735E+03
      9.608  0.5930E+02  0.5759E+03
      9.649  0.6323E+02  0.5784E+03
      9.689  0.6482E+02  0.5810E+03
      9.730  0.7520E+02  0.5838E+03
      9.770  0.8800E+02  0.5871E+03
      9.811  0.8959E+02  0.5906E+03
      9.851  0.7706E+02  0.5940E+03
      9.892  0.7904E+02  0.5972E+03
      9.932  0.8133E+02  0.6004E+03
      9.973  0.8544E+02  0.6038E+03
     10.013  0.9283E+02  0.6073E+03
     10.054  0.9261E+02  0.6111E+03
     10.094  0.9226E+02  0.6147E+03
     10.135  0.9696E+02  0.6186E+03
     10.175  0.9637E+02  0.6225E+03
     10.216  0.5830E+02  0.6258E+03
     10.256  0.2409E+02  0.6274E+03
     10.297  0.3896E+01  0.6279E+03
     10.337  0.9856E-01  0.6280E+03
     10.378  0.0000E+00  0.6280E+03
     10.418  0.0000E+00  0.6280E+03
     10.459  0.0000E+00  0.6280E+03
     10.499  0.0000E+00  0.6280E+03
     10.540  0.0000E+00  0.6280E+03
     10.581  0.0000E+00  0.6280E+03
     10.621  0.0000E+00  0.6280E+03
     10.662  0.0000E+00  0.6280E+03
     10.702  0.0000E+00  0.6280E+03
     10.743  0.0000E+00  0.6280E+03
     10.783  0.0000E+00  0.6280E+03
     10.824  0.0000E+00  0.6280E+03
     10.864  0.0000E+00  0.6280E+03
     10.905  0.0000E+00  0.6280E+03
     10.945  0.0000E+00  0.6280E+03
     10.986  0.0000E+00  0.6280E+03
     11.026  0.0000E+00  0.6280E+03
     11.067  0.0000E+00  0.6280E+03
     11.107  0.0000E+00  0.6280E+03
     11.148  0.0000E+00  0.6280E+03
     11.188  0.0000E+00  0.6280E+03
     11.229  0.0000E+00  0.6280E+03
     11.269  0.0000E+00  0.6280E+03
     11.310  0.0000E+00  0.6280E+03
     11.350  0.0000E+00  0.6280E+03
