 256 256   0   0
  0.1419206E+02  0.1537080E-08  0.1537218E-08  0.1537636E-08  0.5000000E-15
  1.000000000000000E-004
  CAR 
 Ir_Ru                                   
     12.68497064     -1.29563213  301      9.24214314      1.00000000
     -1.296  0.0000E+00  0.0000E+00
     -1.249  0.0000E+00  0.0000E+00
     -1.202  0.0000E+00  0.0000E+00
     -1.156  0.0000E+00  0.0000E+00
     -1.109 -0.2754E-28 -0.1283E-29
     -1.063 -0.4109E-25 -0.1916E-26
     -1.016 -0.3955E-22 -0.1845E-23
     -0.969 -0.2457E-19 -0.1147E-20
     -0.923 -0.9845E-17 -0.4599E-18
     -0.876 -0.2470E-14 -0.1156E-15
     -0.830 -0.4096E-12 -0.1920E-13
     -0.783 -0.4375E-10 -0.2058E-11
     -0.736 -0.3010E-08 -0.1423E-09
     -0.690 -0.1336E-06 -0.6366E-08
     -0.643 -0.3827E-05 -0.1847E-06
     -0.597 -0.7099E-04 -0.3493E-05
     -0.550 -0.8552E-03 -0.4335E-04
     -0.503 -0.6693E-02 -0.3552E-03
     -0.457 -0.3361E-01 -0.1922E-02
     -0.410 -0.1022E+00 -0.6683E-02
     -0.364 -0.1378E+00 -0.1310E-01
     -0.317  0.2248E+00 -0.2627E-02
     -0.270  0.1512E+01  0.6783E-01
     -0.224  0.3543E+01  0.2329E+00
     -0.177  0.5074E+01  0.4694E+00
     -0.131  0.5738E+01  0.7368E+00
     -0.084  0.7338E+01  0.1079E+01
     -0.037  0.1021E+02  0.1554E+01
      0.009  0.1102E+02  0.2068E+01
      0.056  0.9153E+01  0.2494E+01
      0.102  0.9406E+01  0.2933E+01
      0.149  0.1318E+02  0.3547E+01
      0.196  0.1593E+02  0.4289E+01
      0.242  0.1607E+02  0.5038E+01
      0.289  0.1676E+02  0.5819E+01
      0.335  0.1851E+02  0.6682E+01
      0.382  0.1835E+02  0.7537E+01
      0.429  0.1748E+02  0.8352E+01
      0.475  0.1988E+02  0.9278E+01
      0.522  0.2341E+02  0.1037E+02
      0.568  0.2407E+02  0.1149E+02
      0.615  0.2227E+02  0.1253E+02
      0.662  0.1867E+02  0.1340E+02
      0.708  0.1403E+02  0.1405E+02
      0.755  0.1114E+02  0.1457E+02
      0.801  0.1071E+02  0.1507E+02
      0.848  0.1109E+02  0.1559E+02
      0.895  0.1205E+02  0.1615E+02
      0.941  0.1452E+02  0.1683E+02
      0.988  0.1823E+02  0.1768E+02
      1.034  0.2280E+02  0.1874E+02
      1.081  0.2804E+02  0.2005E+02
      1.128  0.3125E+02  0.2150E+02
      1.174  0.2977E+02  0.2289E+02
      1.221  0.2595E+02  0.2410E+02
      1.267  0.2311E+02  0.2518E+02
      1.314  0.2101E+02  0.2615E+02
      1.361  0.2005E+02  0.2709E+02
      1.407  0.2161E+02  0.2810E+02
      1.454  0.2405E+02  0.2922E+02
      1.500  0.2563E+02  0.3041E+02
      1.547  0.2891E+02  0.3176E+02
      1.594  0.3504E+02  0.3339E+02
      1.640  0.3872E+02  0.3520E+02
      1.687  0.3788E+02  0.3696E+02
      1.733  0.3925E+02  0.3879E+02
      1.780  0.4547E+02  0.4091E+02
      1.827  0.4932E+02  0.4321E+02
      1.873  0.4786E+02  0.4544E+02
      1.920  0.4734E+02  0.4764E+02
      1.967  0.5091E+02  0.5002E+02
      2.013  0.5412E+02  0.5254E+02
      2.060  0.5550E+02  0.5512E+02
      2.106  0.6135E+02  0.5798E+02
      2.153  0.7443E+02  0.6145E+02
      2.200  0.8916E+02  0.6561E+02
      2.246  0.1029E+03  0.7040E+02
      2.293  0.1177E+03  0.7588E+02
      2.339  0.1310E+03  0.8199E+02
      2.386  0.1383E+03  0.8843E+02
      2.433  0.1433E+03  0.9511E+02
      2.479  0.1524E+03  0.1022E+03
      2.526  0.1610E+03  0.1097E+03
      2.572  0.1617E+03  0.1173E+03
      2.619  0.1614E+03  0.1248E+03
      2.666  0.1690E+03  0.1327E+03
      2.712  0.1785E+03  0.1410E+03
      2.759  0.1848E+03  0.1496E+03
      2.805  0.1978E+03  0.1588E+03
      2.852  0.2228E+03  0.1692E+03
      2.899  0.2475E+03  0.1807E+03
      2.945  0.2562E+03  0.1927E+03
      2.992  0.2497E+03  0.2043E+03
      3.038  0.2468E+03  0.2158E+03
      3.085  0.2620E+03  0.2280E+03
      3.132  0.2863E+03  0.2413E+03
      3.178  0.3009E+03  0.2554E+03
      3.225  0.3034E+03  0.2695E+03
      3.271  0.3046E+03  0.2837E+03
      3.318  0.3080E+03  0.2980E+03
      3.365  0.3107E+03  0.3125E+03
      3.411  0.3139E+03  0.3272E+03
      3.458  0.3211E+03  0.3421E+03
      3.504  0.3328E+03  0.3576E+03
      3.551  0.3437E+03  0.3736E+03
      3.598  0.3469E+03  0.3898E+03
      3.644  0.3449E+03  0.4059E+03
      3.691  0.3485E+03  0.4221E+03
      3.737  0.3574E+03  0.4388E+03
      3.784  0.3592E+03  0.4555E+03
      3.831  0.3523E+03  0.4719E+03
      3.877  0.3478E+03  0.4882E+03
      3.924  0.3496E+03  0.5044E+03
      3.970  0.3507E+03  0.5208E+03
      4.017  0.3417E+03  0.5367E+03
      4.064  0.3232E+03  0.5518E+03
      4.110  0.3070E+03  0.5661E+03
      4.157  0.2978E+03  0.5800E+03
      4.203  0.2876E+03  0.5934E+03
      4.250  0.2714E+03  0.6060E+03
      4.297  0.2539E+03  0.6178E+03
      4.343  0.2428E+03  0.6292E+03
      4.390  0.2451E+03  0.6406E+03
      4.436  0.2576E+03  0.6526E+03
      4.483  0.2619E+03  0.6648E+03
      4.530  0.2510E+03  0.6765E+03
      4.576  0.2476E+03  0.6880E+03
      4.623  0.2668E+03  0.7005E+03
      4.669  0.2916E+03  0.7140E+03
      4.716  0.3066E+03  0.7283E+03
      4.763  0.3136E+03  0.7429E+03
      4.809  0.3136E+03  0.7576E+03
      4.856  0.3050E+03  0.7718E+03
      4.902  0.2903E+03  0.7853E+03
      4.949  0.2785E+03  0.7983E+03
      4.996  0.2811E+03  0.8114E+03
      5.042  0.2950E+03  0.8251E+03
      5.089  0.3077E+03  0.8395E+03
      5.135  0.3092E+03  0.8539E+03
      5.182  0.2980E+03  0.8678E+03
      5.229  0.2859E+03  0.8811E+03
      5.275  0.2845E+03  0.8944E+03
      5.322  0.2903E+03  0.9079E+03
      5.368  0.2972E+03  0.9217E+03
      5.415  0.3018E+03  0.9358E+03
      5.462  0.2988E+03  0.9497E+03
      5.508  0.2890E+03  0.9632E+03
      5.555  0.2868E+03  0.9766E+03
      5.601  0.3025E+03  0.9907E+03
      5.648  0.3214E+03  0.1006E+04
      5.695  0.3253E+03  0.1021E+04
      5.741  0.3202E+03  0.1036E+04
      5.788  0.3199E+03  0.1051E+04
      5.834  0.3262E+03  0.1066E+04
      5.881  0.3366E+03  0.1082E+04
      5.928  0.3500E+03  0.1098E+04
      5.974  0.3652E+03  0.1115E+04
      6.021  0.3788E+03  0.1132E+04
      6.067  0.3854E+03  0.1150E+04
      6.114  0.3874E+03  0.1169E+04
      6.161  0.3915E+03  0.1187E+04
      6.207  0.3985E+03  0.1205E+04
      6.254  0.4094E+03  0.1224E+04
      6.300  0.4269E+03  0.1244E+04
      6.347  0.4460E+03  0.1265E+04
      6.394  0.4571E+03  0.1286E+04
      6.440  0.4572E+03  0.1308E+04
      6.487  0.4533E+03  0.1329E+04
      6.534  0.4501E+03  0.1350E+04
      6.580  0.4456E+03  0.1371E+04
      6.627  0.4391E+03  0.1391E+04
      6.673  0.4318E+03  0.1411E+04
      6.720  0.4248E+03  0.1431E+04
      6.767  0.4170E+03  0.1450E+04
      6.813  0.4017E+03  0.1469E+04
      6.860  0.3769E+03  0.1487E+04
      6.906  0.3545E+03  0.1503E+04
      6.953  0.3443E+03  0.1519E+04
      7.000  0.3393E+03  0.1535E+04
      7.046  0.3278E+03  0.1550E+04
      7.093  0.3149E+03  0.1565E+04
      7.139  0.3135E+03  0.1580E+04
      7.186  0.3194E+03  0.1594E+04
      7.233  0.3136E+03  0.1609E+04
      7.279  0.2878E+03  0.1623E+04
      7.326  0.2561E+03  0.1634E+04
      7.372  0.2401E+03  0.1646E+04
      7.419  0.2485E+03  0.1657E+04
      7.466  0.2710E+03  0.1670E+04
      7.512  0.2846E+03  0.1683E+04
      7.559  0.2766E+03  0.1696E+04
      7.605  0.2586E+03  0.1708E+04
      7.652  0.2482E+03  0.1720E+04
      7.699  0.2570E+03  0.1732E+04
      7.745  0.2827E+03  0.1745E+04
      7.792  0.3054E+03  0.1759E+04
      7.838  0.3120E+03  0.1774E+04
      7.885  0.3088E+03  0.1788E+04
      7.932  0.3031E+03  0.1802E+04
      7.978  0.2961E+03  0.1816E+04
      8.025  0.2911E+03  0.1829E+04
      8.071  0.2958E+03  0.1843E+04
      8.118  0.3092E+03  0.1858E+04
      8.165  0.3171E+03  0.1872E+04
      8.211  0.3176E+03  0.1887E+04
      8.258  0.3295E+03  0.1903E+04
      8.304  0.3534E+03  0.1919E+04
      8.351  0.3625E+03  0.1936E+04
      8.398  0.3402E+03  0.1952E+04
      8.444  0.3004E+03  0.1966E+04
      8.491  0.2671E+03  0.1978E+04
      8.537  0.2556E+03  0.1990E+04
      8.584  0.2707E+03  0.2003E+04
      8.631  0.2955E+03  0.2017E+04
      8.677  0.3005E+03  0.2031E+04
      8.724  0.2843E+03  0.2044E+04
      8.770  0.2677E+03  0.2056E+04
      8.817  0.2569E+03  0.2068E+04
      8.864  0.2490E+03  0.2080E+04
      8.910  0.2449E+03  0.2091E+04
      8.957  0.2452E+03  0.2103E+04
      9.003  0.2533E+03  0.2114E+04
      9.050  0.2733E+03  0.2127E+04
      9.097  0.2841E+03  0.2140E+04
      9.143  0.2663E+03  0.2153E+04
      9.190  0.2410E+03  0.2164E+04
      9.236  0.2283E+03  0.2175E+04
      9.283  0.2200E+03  0.2185E+04
      9.330  0.2138E+03  0.2195E+04
      9.376  0.2217E+03  0.2205E+04
      9.423  0.2423E+03  0.2217E+04
      9.469  0.2622E+03  0.2229E+04
      9.516  0.2736E+03  0.2242E+04
      9.563  0.2772E+03  0.2254E+04
      9.609  0.2762E+03  0.2267E+04
      9.656  0.2710E+03  0.2280E+04
      9.702  0.2611E+03  0.2292E+04
      9.749  0.2441E+03  0.2303E+04
      9.796  0.2245E+03  0.2314E+04
      9.842  0.2195E+03  0.2324E+04
      9.889  0.2364E+03  0.2335E+04
      9.935  0.2639E+03  0.2347E+04
      9.982  0.2948E+03  0.2361E+04
     10.029  0.3271E+03  0.2376E+04
     10.075  0.3492E+03  0.2393E+04
     10.122  0.3466E+03  0.2409E+04
     10.168  0.3241E+03  0.2424E+04
     10.215  0.3101E+03  0.2438E+04
     10.262  0.3288E+03  0.2454E+04
     10.308  0.3866E+03  0.2472E+04
     10.355  0.4660E+03  0.2494E+04
     10.401  0.5186E+03  0.2518E+04
     10.448  0.5095E+03  0.2541E+04
     10.495  0.4510E+03  0.2562E+04
     10.541  0.3744E+03  0.2580E+04
     10.588  0.3025E+03  0.2594E+04
     10.634  0.2485E+03  0.2606E+04
     10.681  0.2127E+03  0.2615E+04
     10.728  0.1810E+03  0.2624E+04
     10.774  0.1420E+03  0.2631E+04
     10.821  0.9738E+02  0.2635E+04
     10.867  0.5676E+02  0.2638E+04
     10.914  0.2755E+02  0.2639E+04
     10.961  0.1042E+02  0.2639E+04
     11.007  0.2807E+01  0.2640E+04
     11.054  0.1315E+01  0.2640E+04
     11.101  0.1947E+01  0.2640E+04
     11.147  0.1811E+01  0.2640E+04
     11.194  0.7657E+00  0.2640E+04
     11.240  0.1290E-01  0.2640E+04
     11.287 -0.1245E+00  0.2640E+04
     11.334 -0.5474E-01  0.2640E+04
     11.380 -0.1180E-01  0.2640E+04
     11.427 -0.3553E-02  0.2640E+04
     11.473 -0.1329E-01  0.2640E+04
     11.520 -0.4258E-01  0.2640E+04
     11.567 -0.3517E-01  0.2640E+04
     11.613  0.2028E+00  0.2640E+04
     11.660  0.7196E+00  0.2640E+04
     11.706  0.1026E+01  0.2640E+04
     11.753  0.7185E+00  0.2640E+04
     11.800  0.2019E+00  0.2640E+04
     11.846 -0.3535E-01  0.2640E+04
     11.893 -0.4251E-01  0.2640E+04
     11.939 -0.1314E-01  0.2640E+04
     11.986 -0.2122E-02  0.2640E+04
     12.033 -0.2012E-03  0.2640E+04
     12.079 -0.1169E-04  0.2640E+04
     12.126 -0.4243E-06  0.2640E+04
     12.172 -0.9742E-08  0.2640E+04
     12.219 -0.1423E-09  0.2640E+04
     12.266 -0.1330E-11  0.2640E+04
     12.312 -0.8040E-14  0.2640E+04
     12.359  0.0000E+00  0.2640E+04
     12.405  0.0000E+00  0.2640E+04
     12.452  0.0000E+00  0.2640E+04
     12.499  0.0000E+00  0.2640E+04
     12.545  0.0000E+00  0.2640E+04
     12.592  0.0000E+00  0.2640E+04
     12.638  0.0000E+00  0.2640E+04
     12.685  0.0000E+00  0.2640E+04
