       N       E                     dE             d eps       ncg     rms          rms(c)
DAV:   1     0.112829837993E+05    0.11283E+05   -0.55466E+05 95400   0.810E+02
DAV:   2    -0.143841530765E+04   -0.12721E+05   -0.12145E+05 95780   0.337E+02
DAV:   3    -0.241074740340E+04   -0.97233E+03   -0.89415E+03135180   0.780E+01
DAV:   4    -0.248228570051E+04   -0.71538E+02   -0.69108E+02132220   0.209E+01
DAV:   5    -0.248512184702E+04   -0.28361E+01   -0.27802E+01139620   0.331E+00    0.779E+01
RMM:   6    -0.241647392645E+04    0.68648E+02   -0.68095E+02105934   0.245E+01    0.623E+01
RMM:   7    -0.236997941803E+04    0.46495E+02   -0.35238E+02 97786   0.172E+01    0.455E+01
RMM:   8    -0.233987770382E+04    0.30102E+02   -0.15711E+02 97675   0.114E+01    0.321E+01
RMM:   9    -0.231562405802E+04    0.24254E+02   -0.34507E+01 98748   0.532E+00    0.617E+00
RMM:  10    -0.231540905978E+04    0.21500E+00   -0.73803E+00136441   0.154E+00    0.344E+00
RMM:  11    -0.231522288671E+04    0.18617E+00   -0.13252E+00119312   0.846E-01    0.367E+00
RMM:  12    -0.231490161618E+04    0.32127E+00   -0.47420E-01118494   0.506E-01    0.214E+00
RMM:  13    -0.231477730870E+04    0.12431E+00   -0.25210E-01112155   0.431E-01    0.132E+00
RMM:  14    -0.231474630478E+04    0.31004E-01   -0.15218E-01110979   0.332E-01    0.131E+00
RMM:  15    -0.231472847430E+04    0.17830E-01   -0.45382E-02118876   0.139E-01    0.936E-01
RMM:  16    -0.231471468803E+04    0.13786E-01   -0.16558E-02114939   0.970E-02    0.477E-01
RMM:  17    -0.231471147634E+04    0.32117E-02   -0.14382E-02118486   0.872E-02    0.207E-01
RMM:  18    -0.231471245555E+04   -0.97921E-03   -0.97089E-03132267   0.615E-02    0.239E-01
RMM:  19    -0.231471227602E+04    0.17952E-03   -0.18295E-03138086   0.216E-02    0.225E-01
RMM:  20    -0.231471155519E+04    0.72084E-03   -0.58507E-04112835   0.186E-02    0.141E-01
RMM:  21    -0.231471114234E+04    0.41285E-03   -0.11079E-03121051   0.237E-02    0.394E-02
RMM:  22    -0.231471111430E+04    0.28039E-04   -0.30242E-04137992   0.989E-03
   1 F= -.23147111E+04 E0= -.23147188E+04  d E =0.229167E-01
