 256 256   0   0
  0.1418917E+02  0.1588033E-08  0.1692661E-08  0.1693229E-08  0.5000000E-15
  1.000000000000000E-004
  CAR 
 Ir_Ru                                   
     14.26081217     -1.29182106  301      9.45691882      1.00000000
     -1.292  0.0000E+00  0.0000E+00
     -1.240  0.0000E+00  0.0000E+00
     -1.188  0.0000E+00  0.0000E+00
     -1.136 -0.2729E-30 -0.1415E-31
     -1.084 -0.1242E-26 -0.6442E-28
     -1.033 -0.3291E-23 -0.1707E-24
     -0.981 -0.5067E-20 -0.2629E-21
     -0.929 -0.4532E-17 -0.2352E-18
     -0.877 -0.2293E-14 -0.1191E-15
     -0.825 -0.6833E-12 -0.3554E-13
     -0.773 -0.1180E-09 -0.6153E-11
     -0.722 -0.1174E-07 -0.6146E-09
     -0.670 -0.6696E-06 -0.3533E-07
     -0.618 -0.2179E-04 -0.1165E-05
     -0.566 -0.4015E-03 -0.2198E-04
     -0.514 -0.4148E-02 -0.2370E-03
     -0.462 -0.2379E-01 -0.1470E-02
     -0.411 -0.7424E-01 -0.5319E-02
     -0.359 -0.1028E+00 -0.1065E-01
     -0.307  0.1936E+00 -0.6117E-03
     -0.255  0.1598E+01  0.8226E-01
     -0.203  0.4344E+01  0.3075E+00
     -0.151  0.6338E+01  0.6360E+00
     -0.099  0.6426E+01  0.9691E+00
     -0.048  0.6933E+01  0.1329E+01
      0.004  0.8808E+01  0.1785E+01
      0.056  0.1112E+02  0.2362E+01
      0.108  0.1356E+02  0.3065E+01
      0.160  0.1437E+02  0.3810E+01
      0.212  0.1179E+02  0.4421E+01
      0.263  0.1004E+02  0.4941E+01
      0.315  0.1408E+02  0.5671E+01
      0.367  0.2021E+02  0.6719E+01
      0.419  0.2252E+02  0.7886E+01
      0.471  0.2271E+02  0.9063E+01
      0.523  0.2350E+02  0.1028E+02
      0.574  0.2259E+02  0.1145E+02
      0.626  0.2048E+02  0.1251E+02
      0.678  0.2097E+02  0.1360E+02
      0.730  0.2049E+02  0.1466E+02
      0.782  0.1483E+02  0.1543E+02
      0.834  0.8991E+01  0.1590E+02
      0.886  0.7935E+01  0.1631E+02
      0.937  0.1146E+02  0.1691E+02
      0.989  0.1855E+02  0.1787E+02
      1.041  0.2750E+02  0.1929E+02
      1.093  0.3320E+02  0.2101E+02
      1.145  0.3316E+02  0.2273E+02
      1.197  0.2910E+02  0.2424E+02
      1.248  0.2312E+02  0.2544E+02
      1.300  0.1951E+02  0.2645E+02
      1.352  0.2143E+02  0.2756E+02
      1.404  0.2689E+02  0.2896E+02
      1.456  0.3029E+02  0.3053E+02
      1.508  0.2989E+02  0.3208E+02
      1.559  0.2932E+02  0.3360E+02
      1.611  0.3037E+02  0.3517E+02
      1.663  0.3112E+02  0.3678E+02
      1.715  0.3193E+02  0.3844E+02
      1.767  0.3481E+02  0.4024E+02
      1.819  0.3882E+02  0.4226E+02
      1.871  0.4498E+02  0.4459E+02
      1.922  0.5411E+02  0.4739E+02
      1.974  0.5935E+02  0.5047E+02
      2.026  0.5524E+02  0.5333E+02
      2.078  0.5045E+02  0.5595E+02
      2.130  0.6024E+02  0.5907E+02
      2.182  0.8504E+02  0.6348E+02
      2.233  0.1076E+03  0.6906E+02
      2.285  0.1191E+03  0.7523E+02
      2.337  0.1253E+03  0.8173E+02
      2.389  0.1311E+03  0.8853E+02
      2.441  0.1371E+03  0.9564E+02
      2.493  0.1463E+03  0.1032E+03
      2.544  0.1629E+03  0.1117E+03
      2.596  0.1817E+03  0.1211E+03
      2.648  0.1941E+03  0.1311E+03
      2.700  0.2054E+03  0.1418E+03
      2.752  0.2223E+03  0.1533E+03
      2.804  0.2308E+03  0.1653E+03
      2.856  0.2250E+03  0.1770E+03
      2.907  0.2266E+03  0.1887E+03
      2.959  0.2435E+03  0.2013E+03
      3.011  0.2573E+03  0.2147E+03
      3.063  0.2600E+03  0.2281E+03
      3.115  0.2604E+03  0.2416E+03
      3.167  0.2635E+03  0.2553E+03
      3.218  0.2719E+03  0.2694E+03
      3.270  0.2866E+03  0.2843E+03
      3.322  0.3056E+03  0.3001E+03
      3.374  0.3232E+03  0.3169E+03
      3.426  0.3307E+03  0.3340E+03
      3.478  0.3285E+03  0.3510E+03
      3.529  0.3222E+03  0.3677E+03
      3.581  0.3186E+03  0.3843E+03
      3.633  0.3171E+03  0.4007E+03
      3.685  0.3117E+03  0.4169E+03
      3.737  0.3056E+03  0.4327E+03
      3.789  0.3015E+03  0.4483E+03
      3.841  0.2972E+03  0.4637E+03
      3.892  0.2934E+03  0.4789E+03
      3.944  0.2892E+03  0.4939E+03
      3.996  0.2775E+03  0.5083E+03
      4.048  0.2667E+03  0.5222E+03
      4.100  0.2740E+03  0.5364E+03
      4.152  0.2926E+03  0.5515E+03
      4.203  0.3025E+03  0.5672E+03
      4.255  0.3046E+03  0.5830E+03
      4.307  0.3110E+03  0.5991E+03
      4.359  0.3180E+03  0.6156E+03
      4.411  0.3209E+03  0.6322E+03
      4.463  0.3235E+03  0.6490E+03
      4.514  0.3218E+03  0.6657E+03
      4.566  0.3111E+03  0.6818E+03
      4.618  0.2983E+03  0.6973E+03
      4.670  0.2934E+03  0.7125E+03
      4.722  0.2975E+03  0.7279E+03
      4.774  0.3049E+03  0.7437E+03
      4.826  0.3162E+03  0.7601E+03
      4.877  0.3303E+03  0.7772E+03
      4.929  0.3374E+03  0.7947E+03
      4.981  0.3439E+03  0.8126E+03
      5.033  0.3569E+03  0.8311E+03
      5.085  0.3656E+03  0.8500E+03
      5.137  0.3650E+03  0.8689E+03
      5.188  0.3566E+03  0.8874E+03
      5.240  0.3374E+03  0.9049E+03
      5.292  0.3065E+03  0.9208E+03
      5.344  0.2664E+03  0.9346E+03
      5.396  0.2232E+03  0.9462E+03
      5.448  0.1876E+03  0.9559E+03
      5.499  0.1725E+03  0.9649E+03
      5.551  0.1857E+03  0.9745E+03
      5.603  0.2220E+03  0.9860E+03
      5.655  0.2696E+03  0.1000E+04
      5.707  0.3198E+03  0.1017E+04
      5.759  0.3631E+03  0.1035E+04
      5.811  0.3924E+03  0.1056E+04
      5.862  0.4089E+03  0.1077E+04
      5.914  0.4185E+03  0.1099E+04
      5.966  0.4253E+03  0.1121E+04
      6.018  0.4285E+03  0.1143E+04
      6.070  0.4188E+03  0.1165E+04
      6.122  0.3952E+03  0.1185E+04
      6.173  0.3739E+03  0.1204E+04
      6.225  0.3622E+03  0.1223E+04
      6.277  0.3558E+03  0.1242E+04
      6.329  0.3555E+03  0.1260E+04
      6.381  0.3669E+03  0.1279E+04
      6.433  0.3807E+03  0.1299E+04
      6.484  0.3840E+03  0.1319E+04
      6.536  0.3897E+03  0.1339E+04
      6.588  0.4073E+03  0.1360E+04
      6.640  0.4227E+03  0.1382E+04
      6.692  0.4280E+03  0.1404E+04
      6.744  0.4261E+03  0.1426E+04
      6.796  0.4157E+03  0.1448E+04
      6.847  0.3955E+03  0.1468E+04
      6.899  0.3755E+03  0.1488E+04
      6.951  0.3671E+03  0.1507E+04
      7.003  0.3641E+03  0.1526E+04
      7.055  0.3662E+03  0.1545E+04
      7.107  0.3868E+03  0.1565E+04
      7.158  0.4122E+03  0.1586E+04
      7.210  0.4219E+03  0.1608E+04
      7.262  0.4227E+03  0.1630E+04
      7.314  0.4159E+03  0.1651E+04
      7.366  0.3927E+03  0.1672E+04
      7.418  0.3628E+03  0.1691E+04
      7.469  0.3422E+03  0.1708E+04
      7.521  0.3333E+03  0.1726E+04
      7.573  0.3296E+03  0.1743E+04
      7.625  0.3198E+03  0.1759E+04
      7.677  0.2994E+03  0.1775E+04
      7.729  0.2798E+03  0.1789E+04
      7.781  0.2698E+03  0.1803E+04
      7.832  0.2645E+03  0.1817E+04
      7.884  0.2587E+03  0.1830E+04
      7.936  0.2500E+03  0.1843E+04
      7.988  0.2433E+03  0.1856E+04
      8.040  0.2433E+03  0.1869E+04
      8.092  0.2403E+03  0.1881E+04
      8.143  0.2324E+03  0.1893E+04
      8.195  0.2288E+03  0.1905E+04
      8.247  0.2326E+03  0.1917E+04
      8.299  0.2373E+03  0.1929E+04
      8.351  0.2390E+03  0.1942E+04
      8.403  0.2376E+03  0.1954E+04
      8.454  0.2307E+03  0.1966E+04
      8.506  0.2203E+03  0.1977E+04
      8.558  0.2130E+03  0.1988E+04
      8.610  0.2081E+03  0.1999E+04
      8.662  0.2012E+03  0.2010E+04
      8.714  0.1930E+03  0.2020E+04
      8.766  0.1845E+03  0.2029E+04
      8.817  0.1794E+03  0.2039E+04
      8.869  0.1852E+03  0.2048E+04
      8.921  0.2077E+03  0.2059E+04
      8.973  0.2326E+03  0.2071E+04
      9.025  0.2378E+03  0.2083E+04
      9.077  0.2264E+03  0.2095E+04
      9.128  0.2101E+03  0.2106E+04
      9.180  0.1906E+03  0.2116E+04
      9.232  0.1786E+03  0.2125E+04
      9.284  0.1918E+03  0.2135E+04
      9.336  0.2228E+03  0.2147E+04
      9.388  0.2420E+03  0.2159E+04
      9.439  0.2431E+03  0.2172E+04
      9.491  0.2443E+03  0.2184E+04
      9.543  0.2448E+03  0.2197E+04
      9.595  0.2443E+03  0.2210E+04
      9.647  0.2663E+03  0.2224E+04
      9.699  0.3097E+03  0.2240E+04
      9.751  0.3349E+03  0.2257E+04
      9.802  0.3291E+03  0.2274E+04
      9.854  0.3178E+03  0.2291E+04
      9.906  0.3150E+03  0.2307E+04
      9.958  0.3195E+03  0.2323E+04
     10.010  0.3371E+03  0.2341E+04
     10.062  0.3717E+03  0.2360E+04
     10.113  0.4073E+03  0.2381E+04
     10.165  0.4263E+03  0.2403E+04
     10.217  0.4345E+03  0.2426E+04
     10.269  0.4457E+03  0.2449E+04
     10.321  0.4632E+03  0.2473E+04
     10.373  0.4825E+03  0.2498E+04
     10.424  0.4960E+03  0.2524E+04
     10.476  0.4940E+03  0.2549E+04
     10.528  0.4634E+03  0.2573E+04
     10.580  0.4065E+03  0.2594E+04
     10.632  0.3394E+03  0.2612E+04
     10.684  0.2600E+03  0.2626E+04
     10.736  0.1615E+03  0.2634E+04
     10.787  0.6641E+02  0.2637E+04
     10.839  0.9556E+01  0.2638E+04
     10.891 -0.5593E+01  0.2638E+04
     10.943 -0.3475E+01  0.2637E+04
     10.995 -0.8790E+00  0.2637E+04
     11.047 -0.1293E+00  0.2637E+04
     11.098 -0.1271E-01  0.2637E+04
     11.150 -0.8846E-03  0.2637E+04
     11.202 -0.4206E-04  0.2637E+04
     11.254 -0.1271E-05  0.2637E+04
     11.306 -0.2318E-07  0.2637E+04
     11.358 -0.2484E-09  0.2637E+04
     11.409 -0.1601E-11  0.2637E+04
     11.461 -0.1256E-10  0.2637E+04
     11.513 -0.1725E-08  0.2637E+04
     11.565 -0.1364E-06  0.2637E+04
     11.617 -0.6161E-05  0.2637E+04
     11.669 -0.1576E-03  0.2637E+04
     11.721 -0.2242E-02  0.2637E+04
     11.772 -0.1698E-01  0.2637E+04
     11.824 -0.6004E-01  0.2637E+04
     11.876 -0.3152E-01  0.2637E+04
     11.928  0.4130E+00  0.2637E+04
     11.980  0.1275E+01  0.2637E+04
     12.032  0.1601E+01  0.2637E+04
     12.083  0.8838E+00  0.2638E+04
     12.135  0.2311E+00  0.2638E+04
     12.187  0.7590E+00  0.2638E+04
     12.239  0.1943E+01  0.2638E+04
     12.291  0.2670E+01  0.2638E+04
     12.343  0.3129E+01  0.2638E+04
     12.394  0.3380E+01  0.2638E+04
     12.446  0.2624E+01  0.2638E+04
     12.498  0.1546E+01  0.2638E+04
     12.550  0.1665E+01  0.2638E+04
     12.602  0.2774E+01  0.2639E+04
     12.654  0.3823E+01  0.2639E+04
     12.706  0.4223E+01  0.2639E+04
     12.757  0.3245E+01  0.2639E+04
     12.809  0.1916E+01  0.2639E+04
     12.861  0.2119E+01  0.2639E+04
     12.913  0.2591E+01  0.2640E+04
     12.965  0.1787E+01  0.2640E+04
     13.017  0.9791E+00  0.2640E+04
     13.068  0.8588E+00  0.2640E+04
     13.120  0.7869E+00  0.2640E+04
     13.172  0.9086E+00  0.2640E+04
     13.224  0.1318E+01  0.2640E+04
     13.276  0.1326E+01  0.2640E+04
     13.328  0.7327E+00  0.2640E+04
     13.379  0.1395E+00  0.2640E+04
     13.431 -0.5479E-01  0.2640E+04
     13.483 -0.3441E-01  0.2640E+04
     13.535 -0.7243E-02  0.2640E+04
     13.587 -0.7538E-03  0.2640E+04
     13.639 -0.4224E-04  0.2640E+04
     13.691 -0.1318E-05  0.2640E+04
     13.742 -0.2328E-07  0.2640E+04
     13.794 -0.2350E-09  0.2640E+04
     13.846 -0.1363E-11  0.2640E+04
     13.898 -0.4759E-14  0.2640E+04
     13.950  0.0000E+00  0.2640E+04
     14.002  0.0000E+00  0.2640E+04
     14.053  0.0000E+00  0.2640E+04
     14.105  0.0000E+00  0.2640E+04
     14.157  0.0000E+00  0.2640E+04
     14.209  0.0000E+00  0.2640E+04
     14.261  0.0000E+00  0.2640E+04
