 216 216   0   0
  0.1398160E+02  0.1605843E-08  0.1605843E-08  0.1605848E-08  0.5000000E-15
  1.000000000000000E-004
  CAR 
 Ir_Ru                                   
     13.98274390     -0.68770805  301      9.13291155      1.00000000
     -0.688  0.0000E+00  0.0000E+00
     -0.639  0.0000E+00  0.0000E+00
     -0.590  0.0000E+00  0.0000E+00
     -0.541  0.0000E+00  0.0000E+00
     -0.492 -0.1149E-27 -0.5620E-29
     -0.443 -0.2217E-24 -0.1085E-25
     -0.394 -0.2641E-21 -0.1293E-22
     -0.345 -0.1940E-18 -0.9502E-20
     -0.296 -0.8787E-16 -0.4307E-17
     -0.248 -0.2373E-13 -0.1165E-14
     -0.199 -0.4046E-11 -0.1990E-12
     -0.150 -0.4229E-09 -0.2088E-10
     -0.101 -0.2706E-07 -0.1344E-08
     -0.052 -0.1058E-05 -0.5308E-07
     -0.003 -0.2529E-04 -0.1290E-05
      0.046 -0.3710E-03 -0.1943E-04
      0.095 -0.3383E-02 -0.1849E-03
      0.144 -0.1951E-01 -0.1139E-02
      0.193 -0.6989E-01 -0.4557E-02
      0.241 -0.1209E+00 -0.1047E-01
      0.290  0.1477E+00 -0.3250E-02
      0.339  0.1289E+01  0.5980E-01
      0.388  0.2899E+01  0.2016E+00
      0.437  0.3650E+01  0.3801E+00
      0.486  0.4330E+01  0.5918E+00
      0.535  0.6790E+01  0.9238E+00
      0.584  0.8875E+01  0.1358E+01
      0.633  0.7185E+01  0.1709E+01
      0.682  0.4908E+01  0.1949E+01
      0.730  0.7484E+01  0.2315E+01
      0.779  0.1200E+02  0.2902E+01
      0.828  0.1273E+02  0.3524E+01
      0.877  0.1166E+02  0.4094E+01
      0.926  0.1117E+02  0.4641E+01
      0.975  0.8824E+01  0.5072E+01
      1.024  0.7338E+01  0.5431E+01
      1.073  0.1269E+02  0.6051E+01
      1.122  0.1983E+02  0.7021E+01
      1.171  0.1951E+02  0.7975E+01
      1.219  0.1558E+02  0.8737E+01
      1.268  0.1431E+02  0.9437E+01
      1.317  0.1258E+02  0.1005E+02
      1.366  0.1086E+02  0.1058E+02
      1.415  0.1467E+02  0.1130E+02
      1.464  0.2170E+02  0.1236E+02
      1.513  0.2658E+02  0.1366E+02
      1.562  0.2735E+02  0.1500E+02
      1.611  0.2238E+02  0.1609E+02
      1.660  0.1644E+02  0.1690E+02
      1.708  0.1660E+02  0.1771E+02
      1.757  0.2006E+02  0.1869E+02
      1.806  0.2345E+02  0.1984E+02
      1.855  0.2884E+02  0.2125E+02
      1.904  0.3523E+02  0.2297E+02
      1.953  0.3999E+02  0.2493E+02
      2.002  0.3942E+02  0.2685E+02
      2.051  0.3115E+02  0.2838E+02
      2.100  0.2413E+02  0.2956E+02
      2.149  0.2792E+02  0.3092E+02
      2.197  0.3979E+02  0.3287E+02
      2.246  0.5220E+02  0.3542E+02
      2.295  0.5915E+02  0.3831E+02
      2.344  0.5889E+02  0.4119E+02
      2.393  0.5856E+02  0.4406E+02
      2.442  0.6659E+02  0.4731E+02
      2.491  0.8266E+02  0.5136E+02
      2.540  0.1068E+03  0.5658E+02
      2.589  0.1396E+03  0.6341E+02
      2.638  0.1715E+03  0.7180E+02
      2.686  0.1958E+03  0.8137E+02
      2.735  0.2135E+03  0.9181E+02
      2.784  0.2209E+03  0.1026E+03
      2.833  0.2181E+03  0.1133E+03
      2.882  0.2111E+03  0.1236E+03
      2.931  0.2066E+03  0.1337E+03
      2.980  0.2073E+03  0.1438E+03
      3.029  0.2100E+03  0.1541E+03
      3.078  0.2129E+03  0.1645E+03
      3.127  0.2163E+03  0.1751E+03
      3.176  0.2248E+03  0.1861E+03
      3.224  0.2452E+03  0.1981E+03
      3.273  0.2783E+03  0.2117E+03
      3.322  0.3124E+03  0.2270E+03
      3.371  0.3318E+03  0.2432E+03
      3.420  0.3369E+03  0.2597E+03
      3.469  0.3342E+03  0.2760E+03
      3.518  0.3247E+03  0.2919E+03
      3.567  0.3090E+03  0.3070E+03
      3.616  0.2942E+03  0.3214E+03
      3.665  0.2819E+03  0.3352E+03
      3.713  0.2672E+03  0.3482E+03
      3.762  0.2667E+03  0.3613E+03
      3.811  0.2817E+03  0.3751E+03
      3.860  0.2739E+03  0.3884E+03
      3.909  0.2402E+03  0.4002E+03
      3.958  0.2226E+03  0.4111E+03
      4.007  0.2248E+03  0.4221E+03
      4.056  0.2189E+03  0.4328E+03
      4.105  0.2111E+03  0.4431E+03
      4.154  0.2260E+03  0.4541E+03
      4.202  0.2672E+03  0.4672E+03
      4.251  0.3174E+03  0.4827E+03
      4.300  0.3458E+03  0.4996E+03
      4.349  0.3366E+03  0.5161E+03
      4.398  0.3076E+03  0.5311E+03
      4.447  0.2788E+03  0.5448E+03
      4.496  0.2645E+03  0.5577E+03
      4.545  0.2700E+03  0.5709E+03
      4.594  0.2686E+03  0.5840E+03
      4.643  0.2430E+03  0.5959E+03
      4.691  0.2169E+03  0.6065E+03
      4.740  0.2153E+03  0.6171E+03
      4.789  0.2438E+03  0.6290E+03
      4.838  0.2904E+03  0.6432E+03
      4.887  0.3220E+03  0.6589E+03
      4.936  0.3166E+03  0.6744E+03
      4.985  0.2935E+03  0.6888E+03
      5.034  0.2844E+03  0.7027E+03
      5.083  0.2995E+03  0.7173E+03
      5.132  0.3156E+03  0.7327E+03
      5.180  0.3000E+03  0.7474E+03
      5.229  0.2525E+03  0.7598E+03
      5.278  0.2096E+03  0.7700E+03
      5.327  0.1963E+03  0.7796E+03
      5.376  0.1971E+03  0.7893E+03
      5.425  0.1940E+03  0.7987E+03
      5.474  0.1848E+03  0.8078E+03
      5.523  0.1732E+03  0.8163E+03
      5.572  0.1714E+03  0.8246E+03
      5.621  0.1923E+03  0.8340E+03
      5.669  0.2242E+03  0.8450E+03
      5.718  0.2466E+03  0.8571E+03
      5.767  0.2670E+03  0.8701E+03
      5.816  0.2982E+03  0.8847E+03
      5.865  0.3286E+03  0.9008E+03
      5.914  0.3464E+03  0.9177E+03
      5.963  0.3591E+03  0.9353E+03
      6.012  0.3688E+03  0.9533E+03
      6.061  0.3629E+03  0.9710E+03
      6.110  0.3531E+03  0.9883E+03
      6.159  0.3594E+03  0.1006E+04
      6.207  0.3606E+03  0.1024E+04
      6.256  0.3349E+03  0.1040E+04
      6.305  0.3079E+03  0.1055E+04
      6.354  0.3096E+03  0.1070E+04
      6.403  0.3347E+03  0.1086E+04
      6.452  0.3553E+03  0.1104E+04
      6.501  0.3552E+03  0.1121E+04
      6.550  0.3468E+03  0.1138E+04
      6.599  0.3463E+03  0.1155E+04
      6.648  0.3519E+03  0.1172E+04
      6.696  0.3612E+03  0.1190E+04
      6.745  0.3676E+03  0.1208E+04
      6.794  0.3623E+03  0.1226E+04
      6.843  0.3477E+03  0.1243E+04
      6.892  0.3317E+03  0.1259E+04
      6.941  0.3233E+03  0.1275E+04
      6.990  0.3237E+03  0.1291E+04
      7.039  0.3199E+03  0.1306E+04
      7.088  0.3125E+03  0.1321E+04
      7.137  0.3227E+03  0.1337E+04
      7.185  0.3432E+03  0.1354E+04
      7.234  0.3409E+03  0.1371E+04
      7.283  0.3150E+03  0.1386E+04
      7.332  0.3008E+03  0.1401E+04
      7.381  0.3149E+03  0.1416E+04
      7.430  0.3308E+03  0.1432E+04
      7.479  0.3273E+03  0.1448E+04
      7.528  0.3250E+03  0.1464E+04
      7.577  0.3264E+03  0.1480E+04
      7.626  0.3030E+03  0.1495E+04
      7.674  0.2539E+03  0.1507E+04
      7.723  0.2047E+03  0.1517E+04
      7.772  0.1797E+03  0.1526E+04
      7.821  0.1896E+03  0.1536E+04
      7.870  0.2211E+03  0.1546E+04
      7.919  0.2432E+03  0.1558E+04
      7.968  0.2325E+03  0.1570E+04
      8.017  0.2011E+03  0.1579E+04
      8.066  0.1836E+03  0.1588E+04
      8.115  0.1928E+03  0.1598E+04
      8.163  0.2146E+03  0.1608E+04
      8.212  0.2285E+03  0.1620E+04
      8.261  0.2189E+03  0.1630E+04
      8.310  0.1890E+03  0.1639E+04
      8.359  0.1735E+03  0.1648E+04
      8.408  0.1895E+03  0.1657E+04
      8.457  0.2042E+03  0.1667E+04
      8.506  0.1936E+03  0.1677E+04
      8.555  0.1637E+03  0.1685E+04
      8.604  0.1304E+03  0.1691E+04
      8.652  0.1180E+03  0.1697E+04
      8.701  0.1373E+03  0.1704E+04
      8.750  0.1736E+03  0.1712E+04
      8.799  0.2088E+03  0.1722E+04
      8.848  0.2311E+03  0.1734E+04
      8.897  0.2308E+03  0.1745E+04
      8.946  0.2009E+03  0.1755E+04
      8.995  0.1581E+03  0.1762E+04
      9.044  0.1358E+03  0.1769E+04
      9.093  0.1398E+03  0.1776E+04
      9.141  0.1534E+03  0.1783E+04
      9.190  0.1703E+03  0.1792E+04
      9.239  0.1881E+03  0.1801E+04
      9.288  0.1984E+03  0.1811E+04
      9.337  0.2070E+03  0.1821E+04
      9.386  0.2308E+03  0.1832E+04
      9.435  0.2526E+03  0.1844E+04
      9.484  0.2437E+03  0.1856E+04
      9.533  0.2176E+03  0.1867E+04
      9.582  0.2071E+03  0.1877E+04
      9.631  0.2278E+03  0.1888E+04
      9.679  0.2641E+03  0.1901E+04
      9.728  0.2895E+03  0.1915E+04
      9.777  0.3013E+03  0.1930E+04
      9.826  0.3085E+03  0.1945E+04
      9.875  0.3069E+03  0.1960E+04
      9.924  0.2889E+03  0.1974E+04
      9.973  0.2811E+03  0.1988E+04
     10.022  0.3205E+03  0.2004E+04
     10.071  0.3856E+03  0.2022E+04
     10.120  0.4177E+03  0.2043E+04
     10.168  0.4082E+03  0.2063E+04
     10.217  0.3955E+03  0.2082E+04
     10.266  0.3926E+03  0.2101E+04
     10.315  0.3771E+03  0.2120E+04
     10.364  0.3380E+03  0.2136E+04
     10.413  0.2865E+03  0.2150E+04
     10.462  0.2277E+03  0.2162E+04
     10.511  0.1575E+03  0.2169E+04
     10.560  0.8446E+02  0.2173E+04
     10.609  0.2952E+02  0.2175E+04
     10.657  0.3567E+01  0.2175E+04
     10.706 -0.2180E+01  0.2175E+04
     10.755 -0.1361E+01  0.2175E+04
     10.804 -0.4170E+00  0.2175E+04
     10.853 -0.1236E+00  0.2175E+04
     10.902 -0.4570E-01  0.2175E+04
     10.951 -0.1340E-01  0.2175E+04
     11.000 -0.2422E-02  0.2175E+04
     11.049 -0.2602E-03  0.2175E+04
     11.098 -0.1673E-04  0.2175E+04
     11.146 -0.6493E-06  0.2175E+04
     11.195 -0.1532E-07  0.2175E+04
     11.244 -0.2208E-09  0.2175E+04
     11.293 -0.1950E-11  0.2175E+04
     11.342 -0.1064E-13  0.2175E+04
     11.391  0.0000E+00  0.2175E+04
     11.440 -0.1770E-29  0.2175E+04
     11.489 -0.4635E-26  0.2175E+04
     11.538 -0.7502E-23  0.2175E+04
     11.587 -0.7501E-20  0.2175E+04
     11.635 -0.4630E-17  0.2175E+04
     11.684 -0.1692E-14  0.2175E+04
     11.733 -0.4001E-12  0.2175E+04
     11.782 -0.5739E-10  0.2175E+04
     11.831 -0.5047E-08  0.2175E+04
     11.880 -0.2710E-06  0.2175E+04
     11.929 -0.8835E-05  0.2175E+04
     11.978 -0.1731E-03  0.2175E+04
     12.027 -0.2004E-02  0.2175E+04
     12.076 -0.1321E-01  0.2175E+04
     12.124 -0.4482E-01  0.2175E+04
     12.173 -0.4506E-01  0.2175E+04
     12.222  0.1766E+00  0.2175E+04
     12.271  0.7148E+00  0.2175E+04
     12.320  0.1318E+01  0.2175E+04
     12.369  0.1856E+01  0.2175E+04
     12.418  0.2475E+01  0.2175E+04
     12.467  0.2894E+01  0.2175E+04
     12.516  0.2577E+01  0.2175E+04
     12.565  0.1817E+01  0.2175E+04
     12.614  0.1407E+01  0.2176E+04
     12.662  0.1258E+01  0.2176E+04
     12.711  0.9814E+00  0.2176E+04
     12.760  0.8258E+00  0.2176E+04
     12.809  0.8941E+00  0.2176E+04
     12.858  0.1065E+01  0.2176E+04
     12.907  0.1387E+01  0.2176E+04
     12.956  0.1617E+01  0.2176E+04
     13.005  0.1281E+01  0.2176E+04
     13.054  0.5422E+00  0.2176E+04
     13.103  0.4197E-01  0.2176E+04
     13.151 -0.6427E-01  0.2176E+04
     13.200 -0.3042E-01  0.2176E+04
     13.249 -0.6440E-02  0.2176E+04
     13.298 -0.7583E-03  0.2176E+04
     13.347 -0.5259E-04  0.2176E+04
     13.396 -0.2196E-05  0.2176E+04
     13.445 -0.5572E-07  0.2176E+04
     13.494 -0.8640E-09  0.2176E+04
     13.543 -0.8213E-11  0.2176E+04
     13.592 -0.4796E-13  0.2176E+04
     13.640 -0.2838E-15  0.2176E+04
     13.689  0.0000E+00  0.2176E+04
     13.738  0.0000E+00  0.2176E+04
     13.787  0.0000E+00  0.2176E+04
     13.836  0.0000E+00  0.2176E+04
     13.885  0.0000E+00  0.2176E+04
     13.934  0.0000E+00  0.2176E+04
     13.983  0.0000E+00  0.2176E+04
