<?xml version="1.0" encoding="ISO-8859-1"?>
<modeling>
 <generator>
  <i name="program" type="string">vasp </i>
  <i name="version" type="string">5.4.1  </i>
  <i name="subversion" type="string">24Jun15 (build Dec 12 2017 15:24:27) complex                          parallel </i>
  <i name="platform" type="string">IFC91_ompi </i>
  <i name="date" type="string">2020 04 03 </i>
  <i name="time" type="string">20:27:31 </i>
 </generator>
 <incar>
  <i type="string" name="SYSTEM"> Ir_Ru</i>
  <i type="int" name="ISTART">     0</i>
  <i type="string" name="PREC">accurate</i>
  <i type="string" name="ALGO"> Very_Fast</i>
  <i type="int" name="ICHARG">     2</i>
  <i type="int" name="NELMIN">     5</i>
  <i type="int" name="IBRION">    -1</i>
  <i name="EDIFFG">      0.00001000</i>
  <i type="int" name="ISIF">     2</i>
  <i type="string" name="LREAL"> AUTO</i>
  <i type="int" name="ISMEAR">     1</i>
  <i name="SIGMA">      0.10000000</i>
  <v type="int" name="KPOINT_BSE">    -1     0     0     0</v>
 </incar>
 <kpoints>
  <generation param="Gamma">
   <v type="int" name="divisions">       4        4        4 </v>
   <v name="usershift">      0.00000000       0.00000000       0.00000000 </v>
   <v name="genvec1">      0.25000000       0.00000000       0.00000000 </v>
   <v name="genvec2">      0.00000000       0.25000000       0.00000000 </v>
   <v name="genvec3">      0.00000000       0.00000000       0.25000000 </v>
   <v name="shift">      0.00000000       0.00000000       0.00000000 </v>
  </generation>
  <varray name="kpointlist" >
   <v>       0.00000000       0.00000000       0.00000000 </v>
   <v>       0.25000000       0.00000000       0.00000000 </v>
   <v>       0.50000000       0.00000000       0.00000000 </v>
   <v>      -0.00000000       0.25000000       0.00000000 </v>
   <v>       0.25000000       0.25000000       0.00000000 </v>
   <v>       0.50000000       0.25000000       0.00000000 </v>
   <v>      -0.25000000       0.25000000       0.00000000 </v>
   <v>      -0.00000000       0.50000000       0.00000000 </v>
   <v>       0.25000000       0.50000000       0.00000000 </v>
   <v>       0.50000000       0.50000000       0.00000000 </v>
   <v>       0.00000000      -0.00000000       0.25000000 </v>
   <v>       0.25000000      -0.00000000       0.25000000 </v>
   <v>       0.50000000       0.00000000       0.25000000 </v>
   <v>      -0.25000000       0.00000000       0.25000000 </v>
   <v>       0.00000000       0.25000000       0.25000000 </v>
   <v>       0.25000000       0.25000000       0.25000000 </v>
   <v>       0.50000000       0.25000000       0.25000000 </v>
   <v>      -0.25000000       0.25000000       0.25000000 </v>
   <v>      -0.00000000       0.50000000       0.25000000 </v>
   <v>       0.25000000       0.50000000       0.25000000 </v>
   <v>       0.50000000       0.50000000       0.25000000 </v>
   <v>      -0.25000000       0.50000000       0.25000000 </v>
   <v>       0.00000000      -0.25000000       0.25000000 </v>
   <v>       0.25000000      -0.25000000       0.25000000 </v>
   <v>       0.50000000      -0.25000000       0.25000000 </v>
   <v>      -0.25000000      -0.25000000       0.25000000 </v>
   <v>       0.00000000      -0.00000000       0.50000000 </v>
   <v>       0.25000000       0.00000000       0.50000000 </v>
   <v>       0.50000000      -0.00000000       0.50000000 </v>
   <v>       0.00000000       0.25000000       0.50000000 </v>
   <v>       0.25000000       0.25000000       0.50000000 </v>
   <v>       0.50000000       0.25000000       0.50000000 </v>
   <v>      -0.25000000       0.25000000       0.50000000 </v>
   <v>       0.00000000       0.50000000       0.50000000 </v>
   <v>       0.25000000       0.50000000       0.50000000 </v>
   <v>       0.50000000       0.50000000       0.50000000 </v>
  </varray>
  <varray name="weights" >
   <v>       0.01562500 </v>
   <v>       0.03125000 </v>
   <v>       0.01562500 </v>
   <v>       0.03125000 </v>
   <v>       0.03125000 </v>
   <v>       0.03125000 </v>
   <v>       0.03125000 </v>
   <v>       0.01562500 </v>
   <v>       0.03125000 </v>
   <v>       0.01562500 </v>
   <v>       0.03125000 </v>
   <v>       0.03125000 </v>
   <v>       0.03125000 </v>
   <v>       0.03125000 </v>
   <v>       0.03125000 </v>
   <v>       0.03125000 </v>
   <v>       0.03125000 </v>
   <v>       0.03125000 </v>
   <v>       0.03125000 </v>
   <v>       0.03125000 </v>
   <v>       0.03125000 </v>
   <v>       0.03125000 </v>
   <v>       0.03125000 </v>
   <v>       0.03125000 </v>
   <v>       0.03125000 </v>
   <v>       0.03125000 </v>
   <v>       0.01562500 </v>
   <v>       0.03125000 </v>
   <v>       0.01562500 </v>
   <v>       0.03125000 </v>
   <v>       0.03125000 </v>
   <v>       0.03125000 </v>
   <v>       0.03125000 </v>
   <v>       0.01562500 </v>
   <v>       0.03125000 </v>
   <v>       0.01562500 </v>
  </varray>
 </kpoints>
 <parameters>
  <separator name="general" >
   <i type="string" name="SYSTEM">Ir_Ru</i>
   <i type="logical" name="LCOMPAT"> F  </i>
  </separator>
  <separator name="electronic" >
   <i type="string" name="PREC">accura</i>
   <i name="ENMAX">    213.27600000</i>
   <i name="ENAUG">    333.49400000</i>
   <i name="EDIFF">      0.00010000</i>
   <i type="int" name="IALGO">    48</i>
   <i type="int" name="IWAVPR">    10</i>
   <i type="int" name="NBANDS">  1088</i>
   <i name="NELECT">   1782.00000000</i>
   <i type="int" name="TURBO">     0</i>
   <i type="int" name="IRESTART">     0</i>
   <i type="int" name="NREBOOT">     0</i>
   <i type="int" name="NMIN">     0</i>
   <i name="EREF">      0.00000000</i>
   <separator name="electronic smearing" >
    <i type="int" name="ISMEAR">     1</i>
    <i name="SIGMA">      0.10000000</i>
    <i name="KSPACING">      0.50000000</i>
    <i type="logical" name="KGAMMA"> T  </i>
   </separator>
   <separator name="electronic projectors" >
    <i type="logical" name="LREAL"> T  </i>
    <v name="ROPT">     -0.00025000     -0.00025000</v>
    <i type="int" name="LMAXPAW">  -100</i>
    <i type="int" name="LMAXMIX">     2</i>
    <i type="logical" name="NLSPLINE"> F  </i>
   </separator>
   <separator name="electronic startup" >
    <i type="int" name="ISTART">     0</i>
    <i type="int" name="ICHARG">     2</i>
    <i type="int" name="INIWAV">     1</i>
   </separator>
   <separator name="electronic spin" >
    <i type="int" name="ISPIN">     1</i>
    <i type="logical" name="LNONCOLLINEAR"> F  </i>
    <v name="MAGMOM">      1.00000000      1.00000000      1.00000000      1.00000000      1.00000000      1.00000000      1.00000000      1.00000000      1.00000000      1.00000000      1.00000000      1.00000000      1.00000000      1.00000000      1.00000000      1.00000000      1.00000000      1.00000000      1.00000000      1.00000000
      1.00000000      1.00000000      1.00000000      1.00000000      1.00000000      1.00000000      1.00000000      1.00000000      1.00000000      1.00000000      1.00000000      1.00000000      1.00000000      1.00000000      1.00000000      1.00000000      1.00000000      1.00000000      1.00000000      1.00000000
      1.00000000      1.00000000      1.00000000      1.00000000      1.00000000      1.00000000      1.00000000      1.00000000      1.00000000      1.00000000      1.00000000      1.00000000      1.00000000      1.00000000      1.00000000      1.00000000      1.00000000      1.00000000      1.00000000      1.00000000
      1.00000000      1.00000000      1.00000000      1.00000000      1.00000000      1.00000000      1.00000000      1.00000000      1.00000000      1.00000000      1.00000000      1.00000000      1.00000000      1.00000000      1.00000000      1.00000000      1.00000000      1.00000000      1.00000000      1.00000000
      1.00000000      1.00000000      1.00000000      1.00000000      1.00000000      1.00000000      1.00000000      1.00000000      1.00000000      1.00000000      1.00000000      1.00000000      1.00000000      1.00000000      1.00000000      1.00000000      1.00000000      1.00000000      1.00000000      1.00000000
      1.00000000      1.00000000      1.00000000      1.00000000      1.00000000      1.00000000      1.00000000      1.00000000      1.00000000      1.00000000      1.00000000      1.00000000      1.00000000      1.00000000      1.00000000      1.00000000      1.00000000      1.00000000      1.00000000      1.00000000
      1.00000000      1.00000000      1.00000000      1.00000000      1.00000000      1.00000000      1.00000000      1.00000000      1.00000000      1.00000000      1.00000000      1.00000000      1.00000000      1.00000000      1.00000000      1.00000000      1.00000000      1.00000000      1.00000000      1.00000000
      1.00000000      1.00000000      1.00000000      1.00000000      1.00000000      1.00000000      1.00000000      1.00000000      1.00000000      1.00000000      1.00000000      1.00000000      1.00000000      1.00000000      1.00000000      1.00000000      1.00000000      1.00000000      1.00000000      1.00000000
      1.00000000      1.00000000      1.00000000      1.00000000      1.00000000      1.00000000      1.00000000      1.00000000      1.00000000      1.00000000      1.00000000      1.00000000      1.00000000      1.00000000      1.00000000      1.00000000      1.00000000      1.00000000      1.00000000      1.00000000
      1.00000000      1.00000000      1.00000000      1.00000000      1.00000000      1.00000000      1.00000000      1.00000000      1.00000000      1.00000000      1.00000000      1.00000000      1.00000000      1.00000000      1.00000000      1.00000000      1.00000000      1.00000000      1.00000000      1.00000000
      1.00000000      1.00000000      1.00000000      1.00000000      1.00000000      1.00000000      1.00000000      1.00000000      1.00000000      1.00000000      1.00000000      1.00000000      1.00000000      1.00000000      1.00000000      1.00000000</v>
    <i name="NUPDOWN">     -1.00000000</i>
    <i type="logical" name="LSORBIT"> F  </i>
    <v name="SAXIS">      0.00000000      0.00000000      1.00000000</v>
    <i type="logical" name="LSPIRAL"> F  </i>
    <v name="QSPIRAL">      0.00000000      0.00000000      0.00000000</v>
    <i type="logical" name="LZEROZ"> F  </i>
   </separator>
   <separator name="electronic exchange-correlation" >
    <i type="logical" name="LASPH"> F  </i>
    <i type="logical" name="LMETAGGA"> F  </i>
   </separator>
   <separator name="electronic convergence" >
    <i type="int" name="NELM">    60</i>
    <i type="int" name="NELMDL">   -12</i>
    <i type="int" name="NELMIN">     5</i>
    <i name="ENINI">    213.27600000</i>
    <separator name="electronic convergence detail" >
     <i type="logical" name="LDIAG"> T  </i>
     <i type="logical" name="LSUBROT"> F  </i>
     <i name="WEIMIN">      0.00000000</i>
     <i name="EBREAK">      0.00000000</i>
     <i name="DEPER">      0.30000000</i>
     <i type="int" name="NRMM">     4</i>
     <i name="TIME">      0.40000000</i>
    </separator>
   </separator>
   <separator name="electronic mixer" >
    <i name="AMIX">      0.40000000</i>
    <i name="BMIX">      1.00000000</i>
    <i name="AMIN">      0.10000000</i>
    <i name="AMIX_MAG">      1.60000000</i>
    <i name="BMIX_MAG">      1.00000000</i>
    <separator name="electronic mixer details" >
     <i type="int" name="IMIX">     4</i>
     <i type="logical" name="MIXFIRST"> F  </i>
     <i type="int" name="MAXMIX">   -45</i>
     <i name="WC">    100.00000000</i>
     <i type="int" name="INIMIX">     1</i>
     <i type="int" name="MIXPRE">     1</i>
     <i type="int" name="MREMOVE">     5</i>
    </separator>
   </separator>
   <separator name="electronic dipolcorrection" >
    <i type="logical" name="LDIPOL"> F  </i>
    <i type="logical" name="LMONO"> F  </i>
    <i type="int" name="IDIPOL">     0</i>
    <i name="EPSILON">      1.00000000</i>
    <v name="DIPOL">   -100.00000000   -100.00000000   -100.00000000</v>
    <i name="EFIELD">      0.00000000</i>
   </separator>
  </separator>
  <separator name="grids" >
   <i type="int" name="NGX">    80</i>
   <i type="int" name="NGY">    80</i>
   <i type="int" name="NGZ">    80</i>
   <i type="int" name="NGXF">   160</i>
   <i type="int" name="NGYF">   160</i>
   <i type="int" name="NGZF">   160</i>
   <i type="logical" name="ADDGRID"> F  </i>
  </separator>
  <separator name="ionic" >
   <i type="int" name="NSW">     0</i>
   <i type="int" name="IBRION">    -1</i>
   <i type="int" name="ISIF">     2</i>
   <i name="PSTRESS">      0.00000000</i>
   <i name="EDIFFG">      0.00001000</i>
   <i type="int" name="NFREE">     0</i>
   <i name="POTIM">      0.50000000</i>
   <i name="SMASS">     -3.00000000</i>
   <i name="SCALEE">      1.00000000</i>
  </separator>
  <separator name="ionic md" >
   <i name="TEBEG">      0.00010000</i>
   <i name="TEEND">      0.00010000</i>
   <i type="int" name="NBLOCK">     1</i>
   <i type="int" name="KBLOCK">     1</i>
   <i type="int" name="NPACO">   256</i>
   <i name="APACO">     16.00000000</i>
  </separator>
  <separator name="symmetry" >
   <i type="int" name="ISYM">     2</i>
   <i name="SYMPREC">      0.00001000</i>
  </separator>
  <separator name="dos" >
   <i type="logical" name="LORBIT"> F  </i>
   <v name="RWIGS">     -1.00000000     -1.00000000</v>
   <i type="int" name="NEDOS">   301</i>
   <i name="EMIN">     10.00000000</i>
   <i name="EMAX">    -10.00000000</i>
   <i name="EFERMI">      0.00000000</i>
  </separator>
  <separator name="writing" >
   <i type="int" name="NWRITE">     2</i>
   <i type="logical" name="LWAVE"> T  </i>
   <i type="logical" name="LCHARG"> T  </i>
   <i type="logical" name="LPARD"> F  </i>
   <i type="logical" name="LVTOT"> F  </i>
   <i type="logical" name="LVHAR"> F  </i>
   <i type="logical" name="LELF"> F  </i>
   <i type="logical" name="LOPTICS"> F  </i>
   <v name="STM">      0.00000000      0.00000000      0.00000000      0.00000000      0.00000000      0.00000000      0.00000000</v>
  </separator>
  <separator name="performance" >
   <i type="int" name="NPAR">    64</i>
   <i type="int" name="NSIM">     4</i>
   <i type="int" name="NBLK">    -1</i>
   <i type="logical" name="LPLANE"> T  </i>
   <i type="logical" name="LSCALAPACK"> T  </i>
   <i type="logical" name="LSCAAWARE"> T  </i>
   <i type="logical" name="LSCALU"> F  </i>
   <i type="logical" name="LASYNC"> F  </i>
   <i type="logical" name="LORBITALREAL"> F  </i>
  </separator>
  <separator name="miscellaneous" >
   <i type="int" name="IDIOT">     3</i>
   <i type="logical" name="LMUSIC"> F  </i>
   <v name="POMASS">    192.22000000    101.07000000</v>
   <v name="DARWINR">      0.00000000      0.00000000</v>
   <v name="DARWINV">      1.00000000      1.00000000</v>
   <i type="logical" name="LCORR"> T  </i>
  </separator>
  <i type="logical" name="GGA_COMPAT"> T  </i>
  <i type="logical" name="LBERRY"> F  </i>
  <i type="int" name="ICORELEVEL">     0</i>
  <i type="logical" name="LDAU"> F  </i>
  <i type="int" name="I_CONSTRAINED_M">     0</i>
  <separator name="electronic exchange-correlation" >
   <i type="string" name="GGA">--</i>
   <i type="int" name="VOSKOWN">     0</i>
   <i type="logical" name="LHFCALC"> F  </i>
   <i type="string" name="PRECFOCK"></i>
   <i type="logical" name="LSYMGRAD"> F  </i>
   <i type="logical" name="LHFONE"> F  </i>
   <i type="logical" name="LRHFCALC"> F  </i>
   <i type="logical" name="LTHOMAS"> F  </i>
   <i type="logical" name="LMODELHF"> F  </i>
   <i name="ENCUT4O">     -1.00000000</i>
   <i type="int" name="EXXOEP">     0</i>
   <i type="int" name="FOURORBIT">     0</i>
   <i name="AEXX">      0.00000000</i>
   <i name="HFALPHA">      0.00000000</i>
   <i name="MCALPHA">      0.00000000</i>
   <i name="ALDAX">      1.00000000</i>
   <i name="AGGAX">      1.00000000</i>
   <i name="ALDAC">      1.00000000</i>
   <i name="AGGAC">      1.00000000</i>
   <i type="int" name="NKREDX">     1</i>
   <i type="int" name="NKREDY">     1</i>
   <i type="int" name="NKREDZ">     1</i>
   <i type="logical" name="SHIFTRED"> F  </i>
   <i type="logical" name="ODDONLY"> F  </i>
   <i type="logical" name="EVENONLY"> F  </i>
   <i type="int" name="LMAXFOCK">     0</i>
   <i type="int" name="NMAXFOCKAE">     0</i>
   <i type="logical" name="LFOCKAEDFT"> F  </i>
   <i name="HFSCREEN">      0.00000000</i>
   <i name="HFSCREENC">      0.00000000</i>
   <i type="int" name="NBANDSGWLOW">     0</i>
  </separator>
  <separator name="vdW DFT" >
   <i type="logical" name="LUSE_VDW"> F  </i>
   <i name="Zab_VDW">     -0.84910000</i>
   <i name="PARAM1">      0.12340000</i>
   <i name="PARAM2">      1.00000000</i>
   <i name="PARAM3">      0.00000000</i>
  </separator>
  <separator name="model GW" >
   <i type="int" name="MODEL_GW">     0</i>
   <i name="MODEL_EPS0">      8.38895903</i>
   <i name="MODEL_ALPHA">      1.00000000</i>
  </separator>
  <separator name="linear response parameters" >
   <i type="logical" name="LEPSILON"> F  </i>
   <i type="logical" name="LRPA"> F  </i>
   <i type="logical" name="LNABLA"> F  </i>
   <i type="logical" name="LVEL"> F  </i>
   <i type="int" name="KINTER">     0</i>
   <i name="CSHIFT">      0.10000000</i>
   <i name="OMEGAMAX">     -1.00000000</i>
   <i name="DEG_THRESHOLD">      0.00200000</i>
  </separator>
  <separator name="orbital magnetization" >
   <i type="logical" name="NUCIND"> F  </i>
   <v name="MAGPOS">      0.00000000      0.00000000      0.00000000</v>
   <i type="logical" name="LNICSALL"> T  </i>
   <i type="logical" name="ORBITALMAG"> F  </i>
   <i type="logical" name="LMAGBLOCH"> F  </i>
   <i type="logical" name="LCHIMAG"> F  </i>
   <i type="logical" name="LGAUGE"> T  </i>
   <i type="int" name="MAGATOM">     0</i>
   <v name="MAGDIPOL">      0.00000000      0.00000000      0.00000000</v>
   <v name="AVECCONST">      0.00000000      0.00000000      0.00000000</v>
  </separator>
  <separator name="response functions" >
   <i type="logical" name="LADDER"> F  </i>
   <i type="logical" name="LFXC"> F  </i>
   <i type="logical" name="LHARTREE"> T  </i>
   <i type="int" name="IBSE">     0</i>
   <v type="int" name="KPOINT">    -1     0     0     0</v>
   <i type="logical" name="LTCTE"> F  </i>
   <i type="logical" name="LTETE"> F  </i>
   <i type="logical" name="LTRIPLET"> F  </i>
   <i type="logical" name="LFXCEPS"> F  </i>
   <i type="logical" name="LFXHEG"> F  </i>
   <i type="int" name="NATURALO">     0</i>
   <i type="logical" name="L2ORDER"> F  </i>
   <i type="logical" name="LUSEW"> F  </i>
   <i name="ENCUTGW">     -2.00000000</i>
   <i name="ENCUTGWSOFT">     -2.00000000</i>
   <i name="ENCUTLF">     -1.00000000</i>
   <i type="int" name="LMAXMP2">    -1</i>
   <i name="SCISSOR">      0.00000000</i>
   <i type="int" name="NOMEGA">     0</i>
   <i type="int" name="NOMEGAR">     0</i>
   <i type="int" name="NBANDSGW">    -1</i>
   <i type="int" name="NBANDSO">    -1</i>
   <i type="int" name="NBANDSV">    -1</i>
   <i type="int" name="NELM">     1</i>
   <i type="int" name="NELMHF">     1</i>
   <i type="int" name="DIM">     3</i>
   <i type="int" name="ANTIRES">     0</i>
   <i name="OMEGAMAX">    -30.00000000</i>
   <i name="OMEGAMIN">    -30.00000000</i>
   <i name="OMEGATL">   -200.00000000</i>
   <i type="int" name="OMEGAGRID">     0</i>
   <i name="CSHIFT">     -0.10000000</i>
   <i type="logical" name="SELFENERGY"> F  </i>
   <i type="logical" name="LSPECTRAL"> F  </i>
   <i type="logical" name="LSPECTRALGW"> F  </i>
   <i type="logical" name="LSINGLES"> F  </i>
   <i type="logical" name="LFERMIGW"> F  </i>
   <i type="logical" name="ODDONLYGW"> F  </i>
   <i type="logical" name="EVENONLYGW"> F  </i>
   <i type="int" name="NKREDLFX">     1</i>
   <i type="int" name="NKREDLFY">     1</i>
   <i type="int" name="NKREDLFZ">     1</i>
   <i type="int" name="MAXMEM">  1800</i>
   <i type="int" name="TELESCOPE">     0</i>
   <i type="int" name="TAUPAR">     1</i>
   <i type="int" name="OMEGAPAR">    -1</i>
   <i name="LAMBDA">      1.00000000</i>
  </separator>
  <separator name="External order field" >
   <i name="OFIELD_KAPPA">      0.00000000</i>
   <v name="OFIELD_K">      0.00000000      0.00000000      0.00000000</v>
   <i name="OFIELD_Q6_NEAR">      0.00000000</i>
   <i name="OFIELD_Q6_FAR">      0.00000000</i>
   <i name="OFIELD_A">      0.00000000</i>
  </separator>
 </parameters>
 <atominfo>
  <atoms>     216 </atoms>
  <types>       2 </types>
  <array name="atoms" >
   <dimension dim="1">ion</dimension>
   <field type="string">element</field>
   <field type="int">atomtype</field>
   <set>
    <rc><c>Ir</c><c>   1</c></rc>
    <rc><c>Ir</c><c>   1</c></rc>
    <rc><c>Ir</c><c>   1</c></rc>
    <rc><c>Ir</c><c>   1</c></rc>
    <rc><c>Ir</c><c>   1</c></rc>
    <rc><c>Ir</c><c>   1</c></rc>
    <rc><c>Ir</c><c>   1</c></rc>
    <rc><c>Ir</c><c>   1</c></rc>
    <rc><c>Ir</c><c>   1</c></rc>
    <rc><c>Ir</c><c>   1</c></rc>
    <rc><c>Ir</c><c>   1</c></rc>
    <rc><c>Ir</c><c>   1</c></rc>
    <rc><c>Ir</c><c>   1</c></rc>
    <rc><c>Ir</c><c>   1</c></rc>
    <rc><c>Ir</c><c>   1</c></rc>
    <rc><c>Ir</c><c>   1</c></rc>
    <rc><c>Ir</c><c>   1</c></rc>
    <rc><c>Ir</c><c>   1</c></rc>
    <rc><c>Ir</c><c>   1</c></rc>
    <rc><c>Ir</c><c>   1</c></rc>
    <rc><c>Ir</c><c>   1</c></rc>
    <rc><c>Ir</c><c>   1</c></rc>
    <rc><c>Ir</c><c>   1</c></rc>
    <rc><c>Ir</c><c>   1</c></rc>
    <rc><c>Ir</c><c>   1</c></rc>
    <rc><c>Ir</c><c>   1</c></rc>
    <rc><c>Ir</c><c>   1</c></rc>
    <rc><c>Ir</c><c>   1</c></rc>
    <rc><c>Ir</c><c>   1</c></rc>
    <rc><c>Ir</c><c>   1</c></rc>
    <rc><c>Ir</c><c>   1</c></rc>
    <rc><c>Ir</c><c>   1</c></rc>
    <rc><c>Ir</c><c>   1</c></rc>
    <rc><c>Ir</c><c>   1</c></rc>
    <rc><c>Ir</c><c>   1</c></rc>
    <rc><c>Ir</c><c>   1</c></rc>
    <rc><c>Ir</c><c>   1</c></rc>
    <rc><c>Ir</c><c>   1</c></rc>
    <rc><c>Ir</c><c>   1</c></rc>
    <rc><c>Ir</c><c>   1</c></rc>
    <rc><c>Ir</c><c>   1</c></rc>
    <rc><c>Ir</c><c>   1</c></rc>
    <rc><c>Ir</c><c>   1</c></rc>
    <rc><c>Ir</c><c>   1</c></rc>
    <rc><c>Ir</c><c>   1</c></rc>
    <rc><c>Ir</c><c>   1</c></rc>
    <rc><c>Ir</c><c>   1</c></rc>
    <rc><c>Ir</c><c>   1</c></rc>
    <rc><c>Ir</c><c>   1</c></rc>
    <rc><c>Ir</c><c>   1</c></rc>
    <rc><c>Ir</c><c>   1</c></rc>
    <rc><c>Ir</c><c>   1</c></rc>
    <rc><c>Ir</c><c>   1</c></rc>
    <rc><c>Ir</c><c>   1</c></rc>
    <rc><c>Ru</c><c>   2</c></rc>
    <rc><c>Ru</c><c>   2</c></rc>
    <rc><c>Ru</c><c>   2</c></rc>
    <rc><c>Ru</c><c>   2</c></rc>
    <rc><c>Ru</c><c>   2</c></rc>
    <rc><c>Ru</c><c>   2</c></rc>
    <rc><c>Ru</c><c>   2</c></rc>
    <rc><c>Ru</c><c>   2</c></rc>
    <rc><c>Ru</c><c>   2</c></rc>
    <rc><c>Ru</c><c>   2</c></rc>
    <rc><c>Ru</c><c>   2</c></rc>
    <rc><c>Ru</c><c>   2</c></rc>
    <rc><c>Ru</c><c>   2</c></rc>
    <rc><c>Ru</c><c>   2</c></rc>
    <rc><c>Ru</c><c>   2</c></rc>
    <rc><c>Ru</c><c>   2</c></rc>
    <rc><c>Ru</c><c>   2</c></rc>
    <rc><c>Ru</c><c>   2</c></rc>
    <rc><c>Ru</c><c>   2</c></rc>
    <rc><c>Ru</c><c>   2</c></rc>
    <rc><c>Ru</c><c>   2</c></rc>
    <rc><c>Ru</c><c>   2</c></rc>
    <rc><c>Ru</c><c>   2</c></rc>
    <rc><c>Ru</c><c>   2</c></rc>
    <rc><c>Ru</c><c>   2</c></rc>
    <rc><c>Ru</c><c>   2</c></rc>
    <rc><c>Ru</c><c>   2</c></rc>
    <rc><c>Ru</c><c>   2</c></rc>
    <rc><c>Ru</c><c>   2</c></rc>
    <rc><c>Ru</c><c>   2</c></rc>
    <rc><c>Ru</c><c>   2</c></rc>
    <rc><c>Ru</c><c>   2</c></rc>
    <rc><c>Ru</c><c>   2</c></rc>
    <rc><c>Ru</c><c>   2</c></rc>
    <rc><c>Ru</c><c>   2</c></rc>
    <rc><c>Ru</c><c>   2</c></rc>
    <rc><c>Ru</c><c>   2</c></rc>
    <rc><c>Ru</c><c>   2</c></rc>
    <rc><c>Ru</c><c>   2</c></rc>
    <rc><c>Ru</c><c>   2</c></rc>
    <rc><c>Ru</c><c>   2</c></rc>
    <rc><c>Ru</c><c>   2</c></rc>
    <rc><c>Ru</c><c>   2</c></rc>
    <rc><c>Ru</c><c>   2</c></rc>
    <rc><c>Ru</c><c>   2</c></rc>
    <rc><c>Ru</c><c>   2</c></rc>
    <rc><c>Ru</c><c>   2</c></rc>
    <rc><c>Ru</c><c>   2</c></rc>
    <rc><c>Ru</c><c>   2</c></rc>
    <rc><c>Ru</c><c>   2</c></rc>
    <rc><c>Ru</c><c>   2</c></rc>
    <rc><c>Ru</c><c>   2</c></rc>
    <rc><c>Ru</c><c>   2</c></rc>
    <rc><c>Ru</c><c>   2</c></rc>
    <rc><c>Ru</c><c>   2</c></rc>
    <rc><c>Ru</c><c>   2</c></rc>
    <rc><c>Ru</c><c>   2</c></rc>
    <rc><c>Ru</c><c>   2</c></rc>
    <rc><c>Ru</c><c>   2</c></rc>
    <rc><c>Ru</c><c>   2</c></rc>
    <rc><c>Ru</c><c>   2</c></rc>
    <rc><c>Ru</c><c>   2</c></rc>
    <rc><c>Ru</c><c>   2</c></rc>
    <rc><c>Ru</c><c>   2</c></rc>
    <rc><c>Ru</c><c>   2</c></rc>
    <rc><c>Ru</c><c>   2</c></rc>
    <rc><c>Ru</c><c>   2</c></rc>
    <rc><c>Ru</c><c>   2</c></rc>
    <rc><c>Ru</c><c>   2</c></rc>
    <rc><c>Ru</c><c>   2</c></rc>
    <rc><c>Ru</c><c>   2</c></rc>
    <rc><c>Ru</c><c>   2</c></rc>
    <rc><c>Ru</c><c>   2</c></rc>
    <rc><c>Ru</c><c>   2</c></rc>
    <rc><c>Ru</c><c>   2</c></rc>
    <rc><c>Ru</c><c>   2</c></rc>
    <rc><c>Ru</c><c>   2</c></rc>
    <rc><c>Ru</c><c>   2</c></rc>
    <rc><c>Ru</c><c>   2</c></rc>
    <rc><c>Ru</c><c>   2</c></rc>
    <rc><c>Ru</c><c>   2</c></rc>
    <rc><c>Ru</c><c>   2</c></rc>
    <rc><c>Ru</c><c>   2</c></rc>
    <rc><c>Ru</c><c>   2</c></rc>
    <rc><c>Ru</c><c>   2</c></rc>
    <rc><c>Ru</c><c>   2</c></rc>
    <rc><c>Ru</c><c>   2</c></rc>
    <rc><c>Ru</c><c>   2</c></rc>
    <rc><c>Ru</c><c>   2</c></rc>
    <rc><c>Ru</c><c>   2</c></rc>
    <rc><c>Ru</c><c>   2</c></rc>
    <rc><c>Ru</c><c>   2</c></rc>
    <rc><c>Ru</c><c>   2</c></rc>
    <rc><c>Ru</c><c>   2</c></rc>
    <rc><c>Ru</c><c>   2</c></rc>
    <rc><c>Ru</c><c>   2</c></rc>
    <rc><c>Ru</c><c>   2</c></rc>
    <rc><c>Ru</c><c>   2</c></rc>
    <rc><c>Ru</c><c>   2</c></rc>
    <rc><c>Ru</c><c>   2</c></rc>
    <rc><c>Ru</c><c>   2</c></rc>
    <rc><c>Ru</c><c>   2</c></rc>
    <rc><c>Ru</c><c>   2</c></rc>
    <rc><c>Ru</c><c>   2</c></rc>
    <rc><c>Ru</c><c>   2</c></rc>
    <rc><c>Ru</c><c>   2</c></rc>
    <rc><c>Ru</c><c>   2</c></rc>
    <rc><c>Ru</c><c>   2</c></rc>
    <rc><c>Ru</c><c>   2</c></rc>
    <rc><c>Ru</c><c>   2</c></rc>
    <rc><c>Ru</c><c>   2</c></rc>
    <rc><c>Ru</c><c>   2</c></rc>
    <rc><c>Ru</c><c>   2</c></rc>
    <rc><c>Ru</c><c>   2</c></rc>
    <rc><c>Ru</c><c>   2</c></rc>
    <rc><c>Ru</c><c>   2</c></rc>
    <rc><c>Ru</c><c>   2</c></rc>
    <rc><c>Ru</c><c>   2</c></rc>
    <rc><c>Ru</c><c>   2</c></rc>
    <rc><c>Ru</c><c>   2</c></rc>
    <rc><c>Ru</c><c>   2</c></rc>
    <rc><c>Ru</c><c>   2</c></rc>
    <rc><c>Ru</c><c>   2</c></rc>
    <rc><c>Ru</c><c>   2</c></rc>
    <rc><c>Ru</c><c>   2</c></rc>
    <rc><c>Ru</c><c>   2</c></rc>
    <rc><c>Ru</c><c>   2</c></rc>
    <rc><c>Ru</c><c>   2</c></rc>
    <rc><c>Ru</c><c>   2</c></rc>
    <rc><c>Ru</c><c>   2</c></rc>
    <rc><c>Ru</c><c>   2</c></rc>
    <rc><c>Ru</c><c>   2</c></rc>
    <rc><c>Ru</c><c>   2</c></rc>
    <rc><c>Ru</c><c>   2</c></rc>
    <rc><c>Ru</c><c>   2</c></rc>
    <rc><c>Ru</c><c>   2</c></rc>
    <rc><c>Ru</c><c>   2</c></rc>
    <rc><c>Ru</c><c>   2</c></rc>
    <rc><c>Ru</c><c>   2</c></rc>
    <rc><c>Ru</c><c>   2</c></rc>
    <rc><c>Ru</c><c>   2</c></rc>
    <rc><c>Ru</c><c>   2</c></rc>
    <rc><c>Ru</c><c>   2</c></rc>
    <rc><c>Ru</c><c>   2</c></rc>
    <rc><c>Ru</c><c>   2</c></rc>
    <rc><c>Ru</c><c>   2</c></rc>
    <rc><c>Ru</c><c>   2</c></rc>
    <rc><c>Ru</c><c>   2</c></rc>
    <rc><c>Ru</c><c>   2</c></rc>
    <rc><c>Ru</c><c>   2</c></rc>
    <rc><c>Ru</c><c>   2</c></rc>
    <rc><c>Ru</c><c>   2</c></rc>
    <rc><c>Ru</c><c>   2</c></rc>
    <rc><c>Ru</c><c>   2</c></rc>
    <rc><c>Ru</c><c>   2</c></rc>
    <rc><c>Ru</c><c>   2</c></rc>
    <rc><c>Ru</c><c>   2</c></rc>
    <rc><c>Ru</c><c>   2</c></rc>
    <rc><c>Ru</c><c>   2</c></rc>
    <rc><c>Ru</c><c>   2</c></rc>
    <rc><c>Ru</c><c>   2</c></rc>
    <rc><c>Ru</c><c>   2</c></rc>
   </set>
  </array>
  <array name="atomtypes" >
   <dimension dim="1">type</dimension>
   <field type="int">atomspertype</field>
   <field type="string">element</field>
   <field>mass</field>
   <field>valence</field>
   <field type="string">pseudopotential</field>
   <set>
    <rc><c>  54</c><c>Ir</c><c>    192.22000000</c><c>      9.00000000</c><c> PAW_PBE Ir 06Sep2000                   </c></rc>
    <rc><c> 162</c><c>Ru</c><c>    101.07000000</c><c>      8.00000000</c><c> PAW_PBE Ru 06Sep2000                   </c></rc>
   </set>
  </array>
 </atominfo>
 <structure name="initialpos" >
  <crystal>
   <varray name="basis" >
    <v>      -8.19811000      -4.73312000      12.97158000 </v>
    <v>      -0.00004000       9.46633000      12.97158000 </v>
    <v>      -8.19815000       4.73321000     -12.97158000 </v>
   </varray>
   <i name="volume">   3020.02524953 </i>
   <varray name="rec_basis" >
    <v>      -0.06098971      -0.03521278       0.02569720 </v>
    <v>       0.00000039       0.07042504       0.02569720 </v>
    <v>      -0.06098933       0.03521226      -0.02569720 </v>
   </varray>
  </crystal>
  <varray name="positions" >
   <v>       0.02777889       0.36111222       0.97222444 </v>
   <v>       0.97222111       0.30555444       0.69444222 </v>
   <v>       0.13889000       0.47222333       0.86111333 </v>
   <v>       0.08333222       0.41666556       0.58333111 </v>
   <v>       0.58333444       0.25000111       0.75000222 </v>
   <v>       0.52777667       0.19444333       0.47222000 </v>
   <v>       0.25000111       0.25000111       0.41666889 </v>
   <v>       0.19444333       0.19444333       0.13888667 </v>
   <v>       0.91666778       0.25000111       0.08333556 </v>
   <v>       0.86111000       0.19444333       0.80555333 </v>
   <v>       0.25000111       0.58333444       0.75000222 </v>
   <v>       0.19444333       0.52777667       0.47222000 </v>
   <v>       0.91666778       0.58333444       0.41666889 </v>
   <v>       0.86111000       0.52777667       0.13888667 </v>
   <v>       0.91666778       0.91666778       0.75000222 </v>
   <v>       0.86111000       0.86111000       0.47222000 </v>
   <v>       0.69444556       0.36111222       0.63889111 </v>
   <v>       0.63888778       0.30555444       0.36110889 </v>
   <v>       0.36111222       0.36111222       0.30555778 </v>
   <v>       0.30555444       0.30555444       0.02777556 </v>
   <v>       0.69444556       0.69444556       0.97222444 </v>
   <v>       0.63888778       0.63888778       0.69444222 </v>
   <v>       0.36111222       0.69444556       0.63889111 </v>
   <v>       0.30555444       0.63888778       0.36110889 </v>
   <v>       0.02777889       0.69444556       0.30555778 </v>
   <v>       0.97222111       0.63888778       0.02777556 </v>
   <v>       0.36111222       0.02777889       0.97222444 </v>
   <v>       0.30555444       0.97222111       0.69444222 </v>
   <v>       0.02777889       0.02777889       0.63889111 </v>
   <v>       0.97222111       0.97222111       0.36110889 </v>
   <v>       0.80555667       0.47222333       0.52778000 </v>
   <v>       0.74999889       0.41666556       0.24999778 </v>
   <v>       0.47222333       0.47222333       0.19444667 </v>
   <v>       0.41666556       0.41666556       0.91666444 </v>
   <v>       0.80555667       0.80555667       0.86111333 </v>
   <v>       0.74999889       0.74999889       0.58333111 </v>
   <v>       0.47222333       0.80555667       0.52778000 </v>
   <v>       0.41666556       0.74999889       0.24999778 </v>
   <v>       0.13889000       0.80555667       0.19444667 </v>
   <v>       0.08333222       0.74999889       0.91666444 </v>
   <v>       0.47222333       0.13889000       0.86111333 </v>
   <v>       0.41666556       0.08333222       0.58333111 </v>
   <v>       0.13889000       0.13889000       0.52778000 </v>
   <v>       0.08333222       0.08333222       0.24999778 </v>
   <v>       0.58333444       0.58333444       0.08333556 </v>
   <v>       0.52777667       0.52777667       0.80555333 </v>
   <v>       0.58333444       0.91666778       0.41666889 </v>
   <v>       0.52777667       0.86111000       0.13888667 </v>
   <v>       0.25000111       0.91666778       0.08333556 </v>
   <v>       0.19444333       0.86111000       0.80555333 </v>
   <v>       0.69444556       0.02777889       0.30555778 </v>
   <v>       0.63888778       0.97222111       0.02777556 </v>
   <v>       0.80555667       0.13889000       0.19444667 </v>
   <v>       0.74999889       0.08333222       0.91666444 </v>
   <v>       0.86084889       0.36163556       0.80581778 </v>
   <v>       0.86085222       0.19418556       0.63837111 </v>
   <v>       0.02830222       0.19418222       0.80581778 </v>
   <v>       0.13915111       0.30503111       0.86084889 </v>
   <v>       0.97169778       0.47248111       0.86084556 </v>
   <v>       0.13914778       0.47248111       0.02829556 </v>
   <v>       0.97196000       0.47274667       0.69470667 </v>
   <v>       0.97196333       0.30529667       0.52726000 </v>
   <v>       0.13941333       0.30529333       0.69470667 </v>
   <v>       0.25026222       0.41614222       0.74973778 </v>
   <v>       0.08280889       0.58359222       0.74973444 </v>
   <v>       0.25025889       0.58359222       0.91718444 </v>
   <v>       0.41640778       0.25052444       0.58359889 </v>
   <v>       0.41640778       0.08307444       0.41614889 </v>
   <v>       0.58385778       0.08307444       0.58359889 </v>
   <v>       0.69470667       0.19392000       0.63862667 </v>
   <v>       0.52725333       0.36137333       0.63862667 </v>
   <v>       0.69470333       0.36137000       0.80607333 </v>
   <v>       0.08307111       0.25052444       0.25026222 </v>
   <v>       0.08307444       0.08307444       0.08281556 </v>
   <v>       0.25052444       0.08307111       0.25026222 </v>
   <v>       0.36137000       0.19392000       0.30529000 </v>
   <v>       0.19392000       0.36137000       0.30529000 </v>
   <v>       0.36137000       0.36137000       0.47274000 </v>
   <v>       0.75255444       0.24949111       0.91693222 </v>
   <v>       0.74974111       0.08307444       0.74948222 </v>
   <v>       0.91719111       0.08307111       0.91692889 </v>
   <v>       0.02804000       0.19392000       0.97196000 </v>
   <v>       0.86058667       0.36137000       0.97195667 </v>
   <v>       0.02803667       0.36137000       0.13940667 </v>
   <v>       0.08307111       0.58385778       0.58359556 </v>
   <v>       0.08307444       0.41640778       0.41614889 </v>
   <v>       0.25052444       0.41640444       0.58359556 </v>
   <v>       0.36137333       0.52725333       0.63862667 </v>
   <v>       0.19392000       0.69470333       0.63862333 </v>
   <v>       0.36137000       0.69470333       0.80607333 </v>
   <v>       0.74974111       0.58385778       0.25026556 </v>
   <v>       0.74974111       0.41640778       0.08281556 </v>
   <v>       0.91719111       0.41640444       0.25026222 </v>
   <v>       0.02804000       0.52725333       0.30529333 </v>
   <v>       0.86058667       0.69470333       0.30529000 </v>
   <v>       0.02803667       0.69470333       0.47274000 </v>
   <v>       0.74973778       0.91719111       0.58359556 </v>
   <v>       0.74974111       0.74974111       0.41614889 </v>
   <v>       0.91719111       0.74973778       0.58359556 </v>
   <v>       0.02803667       0.86058667       0.63862333 </v>
   <v>       0.86058667       0.02803667       0.63862333 </v>
   <v>       0.02803667       0.02803667       0.80607333 </v>
   <v>       0.52751556       0.36163556       0.47248444 </v>
   <v>       0.52751889       0.19418556       0.30503778 </v>
   <v>       0.69496889       0.19418556       0.47248778 </v>
   <v>       0.80581778       0.30503111       0.52751556 </v>
   <v>       0.63836444       0.47248111       0.52751222 </v>
   <v>       0.80581444       0.47248111       0.69496222 </v>
   <v>       0.19418222       0.36163556       0.13915111 </v>
   <v>       0.19418556       0.19418556       0.97170444 </v>
   <v>       0.36163556       0.19418556       0.13915444 </v>
   <v>       0.47248111       0.30503111       0.19417889 </v>
   <v>       0.30503111       0.47248444       0.19418222 </v>
   <v>       0.47248111       0.47248111       0.36162889 </v>
   <v>       0.52751556       0.69496889       0.80581778 </v>
   <v>       0.52751889       0.52751889       0.63837111 </v>
   <v>       0.69496889       0.52751889       0.80582111 </v>
   <v>       0.80581444       0.63836444       0.86084556 </v>
   <v>       0.63836444       0.80581778       0.86084889 </v>
   <v>       0.80581444       0.80581444       0.02829556 </v>
   <v>       0.19418222       0.69496889       0.47248444 </v>
   <v>       0.19418556       0.52751889       0.30503778 </v>
   <v>       0.36163556       0.52751556       0.47248444 </v>
   <v>       0.47248444       0.63836444       0.52751556 </v>
   <v>       0.30503111       0.80581444       0.52751222 </v>
   <v>       0.47248111       0.80581444       0.69496222 </v>
   <v>       0.86085222       0.69496889       0.13915444 </v>
   <v>       0.86085222       0.52751889       0.97170444 </v>
   <v>       0.02830222       0.52751889       0.13915444 </v>
   <v>       0.13914778       0.63836444       0.19417889 </v>
   <v>       0.97169778       0.80581444       0.19417889 </v>
   <v>       0.13914778       0.80581444       0.36162889 </v>
   <v>       0.19418222       0.02830222       0.80581778 </v>
   <v>       0.19418556       0.86085222       0.63837111 </v>
   <v>       0.36163556       0.86085222       0.80582111 </v>
   <v>       0.47248444       0.97169778       0.86084889 </v>
   <v>       0.30503111       0.13914778       0.86084556 </v>
   <v>       0.47248111       0.13914778       0.02829556 </v>
   <v>       0.86084889       0.02830222       0.47248444 </v>
   <v>       0.86085222       0.86085222       0.30503778 </v>
   <v>       0.02830222       0.86084889       0.47248444 </v>
   <v>       0.13914778       0.97169778       0.52751222 </v>
   <v>       0.97169778       0.13914778       0.52751222 </v>
   <v>       0.13914778       0.13914778       0.69496222 </v>
   <v>       0.63862667       0.47274667       0.36137333 </v>
   <v>       0.63863000       0.30529667       0.19392667 </v>
   <v>       0.80608000       0.30529667       0.36137667 </v>
   <v>       0.91692889       0.41614222       0.41640444 </v>
   <v>       0.74947556       0.58359556       0.41640444 </v>
   <v>       0.91692556       0.58359222       0.58385111 </v>
   <v>       0.30529333       0.47274667       0.02804000 </v>
   <v>       0.30529667       0.30529667       0.86059333 </v>
   <v>       0.47274667       0.30529333       0.02804000 </v>
   <v>       0.58359222       0.41614222       0.08306778 </v>
   <v>       0.41614222       0.58359222       0.08306778 </v>
   <v>       0.58359222       0.58359222       0.25051778 </v>
   <v>       0.63863000       0.80608000       0.69471000 </v>
   <v>       0.63863000       0.63863000       0.52726000 </v>
   <v>       0.80608000       0.63863000       0.69471000 </v>
   <v>       0.91692556       0.74947556       0.74973444 </v>
   <v>       0.74947556       0.91692889       0.74973778 </v>
   <v>       0.91692556       0.91692556       0.91718444 </v>
   <v>       0.30529333       0.80608000       0.36137333 </v>
   <v>       0.30529667       0.63863000       0.19392667 </v>
   <v>       0.47274667       0.63862667       0.36137333 </v>
   <v>       0.58359556       0.74947556       0.41640444 </v>
   <v>       0.41614222       0.91692556       0.41640111 </v>
   <v>       0.58359222       0.91692556       0.58385111 </v>
   <v>       0.97196000       0.80608000       0.02804000 </v>
   <v>       0.97196333       0.63863000       0.86059333 </v>
   <v>       0.13941333       0.63863000       0.02804333 </v>
   <v>       0.25025889       0.74947556       0.08306778 </v>
   <v>       0.08280889       0.91692556       0.08306778 </v>
   <v>       0.25025889       0.91692556       0.25051778 </v>
   <v>       0.30529667       0.13941333       0.69471000 </v>
   <v>       0.30529667       0.97196333       0.52726000 </v>
   <v>       0.47274667       0.97196333       0.69471000 </v>
   <v>       0.58359222       0.08280889       0.74973444 </v>
   <v>       0.41614222       0.25025889       0.74973444 </v>
   <v>       0.58359222       0.25025889       0.91718444 </v>
   <v>       0.97196000       0.13941333       0.36137333 </v>
   <v>       0.97196333       0.97196333       0.19392667 </v>
   <v>       0.13941333       0.97196000       0.36137333 </v>
   <v>       0.25025889       0.08280889       0.41640111 </v>
   <v>       0.08280889       0.25025889       0.41640111 </v>
   <v>       0.25025889       0.25025889       0.58385111 </v>
   <v>       0.41640778       0.58385778       0.91693222 </v>
   <v>       0.41640778       0.41640778       0.74948222 </v>
   <v>       0.58385778       0.41640444       0.91692889 </v>
   <v>       0.69470667       0.52725333       0.97196000 </v>
   <v>       0.52725333       0.69470333       0.97195667 </v>
   <v>       0.69470333       0.69470333       0.13940667 </v>
   <v>       0.41640444       0.91719111       0.25026222 </v>
   <v>       0.41640778       0.74974111       0.08281556 </v>
   <v>       0.58385778       0.74973778       0.25026222 </v>
   <v>       0.69470667       0.86058667       0.30529333 </v>
   <v>       0.52725333       0.02803667       0.30529000 </v>
   <v>       0.69470333       0.02803667       0.47274000 </v>
   <v>       0.08307444       0.91719111       0.91693222 </v>
   <v>       0.08307444       0.74974111       0.74948222 </v>
   <v>       0.25052444       0.74973778       0.91692889 </v>
   <v>       0.36137333       0.86058667       0.97196000 </v>
   <v>       0.19392000       0.02803667       0.97195667 </v>
   <v>       0.36137000       0.02803667       0.13940667 </v>
   <v>       0.52751556       0.02830222       0.13915111 </v>
   <v>       0.52751889       0.86085222       0.97170444 </v>
   <v>       0.69496889       0.86084889       0.13915111 </v>
   <v>       0.80581778       0.97169778       0.19418222 </v>
   <v>       0.63836444       0.13914778       0.19417889 </v>
   <v>       0.80581444       0.13914778       0.36162889 </v>
   <v>       0.63862667       0.13941333       0.02804000 </v>
   <v>       0.63863000       0.97196333       0.86059333 </v>
   <v>       0.80608000       0.97196000       0.02804000 </v>
   <v>       0.91692556       0.08280889       0.08306778 </v>
   <v>       0.74947556       0.25025889       0.08306778 </v>
   <v>       0.91692556       0.25025889       0.25051778 </v>
  </varray>
 </structure>
 <calculation>
  <scstep>
   <time name="diag">   55.38   55.48</time>
   <time name="diis">  115.39  115.66</time>
   <time name="orth">   25.60   25.62</time>
   <time name="total">  196.49  196.92</time>
   <energy>
    <i name="alphaZ">  14146.51071896 </i>
    <i name="ewald">-127057.76186201 </i>
    <i name="hartreedc">  -8579.20086077 </i>
    <i name="XCdc">  -6127.38533853 </i>
    <i name="pawpsdc">  86524.61338861 </i>
    <i name="pawaedc"> -76346.65661974 </i>
    <i name="eentropy">      0.01024645 </i>
    <i name="bandstr">  24331.22877382 </i>
    <i name="atom"> 103951.18894314 </i>
    <i name="e_fr_energy">  10842.54738993 </i>
    <i name="e_wo_entrp">  10842.53714347 </i>
    <i name="e_0_energy">  10842.54397444 </i>
   </energy>
  </scstep>
  <scstep>
   <time name="diag">   55.15   55.29</time>
   <time name="diis">  115.27  115.64</time>
   <time name="orth">   25.91   25.94</time>
   <time name="total">  196.34  196.89</time>
   <energy>
    <i name="e_fr_energy">    878.25270247 </i>
    <i name="e_wo_entrp">    878.25107581 </i>
    <i name="e_0_energy">    878.25216025 </i>
   </energy>
  </scstep>
  <scstep>
   <time name="diag">   54.78   54.88</time>
   <time name="diis">  115.34  115.62</time>
   <time name="orth">   25.94   25.99</time>
   <time name="total">  196.07  196.50</time>
   <energy>
    <i name="e_fr_energy">   -948.88296508 </i>
    <i name="e_wo_entrp">   -948.87689935 </i>
    <i name="e_0_energy">   -948.88094317 </i>
   </energy>
  </scstep>
  <scstep>
   <time name="diag">   54.78   54.87</time>
   <time name="diis">  115.40  115.71</time>
   <time name="orth">   25.92   25.93</time>
   <time name="total">  196.10  196.52</time>
   <energy>
    <i name="e_fr_energy">  -1594.68566350 </i>
    <i name="e_wo_entrp">  -1594.69267940 </i>
    <i name="e_0_energy">  -1594.68800213 </i>
   </energy>
  </scstep>
  <scstep>
   <time name="diag">   54.89   55.01</time>
   <time name="diis">  115.51  115.78</time>
   <time name="orth">   25.99   26.03</time>
   <time name="total">  196.39  196.82</time>
   <energy>
    <i name="e_fr_energy">  -1821.73872809 </i>
    <i name="e_wo_entrp">  -1821.73797132 </i>
    <i name="e_0_energy">  -1821.73847583 </i>
   </energy>
  </scstep>
  <scstep>
   <time name="diag">   55.25   55.33</time>
   <time name="diis">  115.41  115.68</time>
   <time name="orth">   25.71   25.77</time>
   <time name="total">  196.38  196.79</time>
   <energy>
    <i name="e_fr_energy">  -1939.38458461 </i>
    <i name="e_wo_entrp">  -1939.38350234 </i>
    <i name="e_0_energy">  -1939.38422385 </i>
   </energy>
  </scstep>
  <scstep>
   <time name="diag">   54.61   54.66</time>
   <time name="diis">  115.33  115.57</time>
   <time name="orth">   25.63   25.65</time>
   <time name="total">  195.58  195.89</time>
   <energy>
    <i name="e_fr_energy">  -2003.52234628 </i>
    <i name="e_wo_entrp">  -2003.52481820 </i>
    <i name="e_0_energy">  -2003.52317025 </i>
   </energy>
  </scstep>
  <scstep>
   <time name="diag">   54.74   54.81</time>
   <time name="diis">  115.77  116.00</time>
   <time name="orth">   25.81   25.83</time>
   <time name="total">  196.33  196.65</time>
   <energy>
    <i name="e_fr_energy">  -2043.38848238 </i>
    <i name="e_wo_entrp">  -2043.39820170 </i>
    <i name="e_0_energy">  -2043.39172215 </i>
   </energy>
  </scstep>
  <scstep>
   <time name="diag">   55.36   55.43</time>
   <time name="diis">  335.83  336.67</time>
   <time name="orth">   25.60   25.60</time>
   <time name="total">  416.80  417.71</time>
   <energy>
    <i name="e_fr_energy">  -2111.16713241 </i>
    <i name="e_wo_entrp">  -2111.19797551 </i>
    <i name="e_0_energy">  -2111.17741344 </i>
   </energy>
  </scstep>
  <scstep>
   <time name="diag">   54.70   54.76</time>
   <time name="diis">  357.46  358.20</time>
   <time name="orth">   25.68   25.69</time>
   <time name="total">  437.84  438.65</time>
   <energy>
    <i name="e_fr_energy">  -2117.33144004 </i>
    <i name="e_wo_entrp">  -2117.37359144 </i>
    <i name="e_0_energy">  -2117.34549051 </i>
   </energy>
  </scstep>
  <scstep>
   <time name="diag">   54.71   54.82</time>
   <time name="diis">  342.37  343.18</time>
   <time name="orth">   25.71   25.73</time>
   <time name="total">  422.79  423.73</time>
   <energy>
    <i name="e_fr_energy">  -2118.67728748 </i>
    <i name="e_wo_entrp">  -2118.72102825 </i>
    <i name="e_0_energy">  -2118.69186774 </i>
   </energy>
  </scstep>
  <scstep>
   <time name="diag">   54.47   54.59</time>
   <time name="diis">  347.73  348.60</time>
   <time name="orth">   25.74   25.74</time>
   <time name="total">  436.23  437.28</time>
   <energy>
    <i name="e_fr_energy">  -2118.83916349 </i>
    <i name="e_wo_entrp">  -2118.88371356 </i>
    <i name="e_0_energy">  -2118.85401351 </i>
   </energy>
  </scstep>
  <scstep>
   <time name="diag">   55.35   55.50</time>
   <time name="diis">  236.41  237.05</time>
   <time name="orth">   25.72   25.72</time>
   <time name="total">  325.67  326.51</time>
   <energy>
    <i name="e_fr_energy">  -2000.19883608 </i>
    <i name="e_wo_entrp">  -2000.19454350 </i>
    <i name="e_0_energy">  -2000.19740522 </i>
   </energy>
  </scstep>
  <scstep>
   <time name="diag">   55.36   55.39</time>
   <time name="diis">  241.05  241.53</time>
   <time name="orth">   25.71   25.72</time>
   <time name="total">  330.40  330.95</time>
   <energy>
    <i name="e_fr_energy">  -1993.58876410 </i>
    <i name="e_wo_entrp">  -1993.60573176 </i>
    <i name="e_0_energy">  -1993.59441998 </i>
   </energy>
  </scstep>
  <scstep>
   <time name="diag">   55.71   55.79</time>
   <time name="diis">  263.09  263.61</time>
   <time name="orth">   25.62   25.66</time>
   <time name="total">  352.62  353.26</time>
   <energy>
    <i name="e_fr_energy">  -1981.53317816 </i>
    <i name="e_wo_entrp">  -1981.54263662 </i>
    <i name="e_0_energy">  -1981.53633098 </i>
   </energy>
  </scstep>
  <scstep>
   <time name="diag">   56.19   56.35</time>
   <time name="diis">  292.57  293.16</time>
   <time name="orth">   25.60   25.66</time>
   <time name="total">  382.74  383.56</time>
   <energy>
    <i name="e_fr_energy">  -1981.26932660 </i>
    <i name="e_wo_entrp">  -1981.28382487 </i>
    <i name="e_0_energy">  -1981.27415936 </i>
   </energy>
  </scstep>
  <scstep>
   <time name="diag">   55.23   55.29</time>
   <time name="diis">  270.03  270.54</time>
   <time name="orth">   25.63   25.69</time>
   <time name="total">  359.09  359.73</time>
   <energy>
    <i name="e_fr_energy">  -1980.68023483 </i>
    <i name="e_wo_entrp">  -1980.69944371 </i>
    <i name="e_0_energy">  -1980.68663779 </i>
   </energy>
  </scstep>
  <scstep>
   <time name="diag">   54.92   54.99</time>
   <time name="diis">  319.82  320.54</time>
   <time name="orth">   25.63   25.66</time>
   <time name="total">  408.70  409.52</time>
   <energy>
    <i name="e_fr_energy">  -1980.64037601 </i>
    <i name="e_wo_entrp">  -1980.65995472 </i>
    <i name="e_0_energy">  -1980.64690225 </i>
   </energy>
  </scstep>
  <scstep>
   <time name="diag">   55.75   55.87</time>
   <time name="diis">  275.91  276.42</time>
   <time name="orth">   25.79   25.85</time>
   <time name="total">  365.70  366.39</time>
   <energy>
    <i name="e_fr_energy">  -1980.58820109 </i>
    <i name="e_wo_entrp">  -1980.60778012 </i>
    <i name="e_0_energy">  -1980.59472743 </i>
   </energy>
  </scstep>
  <scstep>
   <time name="diag">   55.56   55.64</time>
   <time name="diis">  313.70  314.43</time>
   <time name="orth">   25.84   25.88</time>
   <time name="total">  403.45  404.30</time>
   <energy>
    <i name="e_fr_energy">  -1980.58783515 </i>
    <i name="e_wo_entrp">  -1980.60726705 </i>
    <i name="e_0_energy">  -1980.59431245 </i>
   </energy>
  </scstep>
  <scstep>
   <time name="diag">   56.10   56.21</time>
   <time name="diis">  290.56  291.25</time>
   <time name="orth">   26.24   26.28</time>
   <time name="total">  381.17  382.02</time>
   <energy>
    <i name="e_fr_energy">  -1980.58553359 </i>
    <i name="e_wo_entrp">  -1980.60473004 </i>
    <i name="e_0_energy">  -1980.59193241 </i>
   </energy>
  </scstep>
  <scstep>
   <time name="diag">   55.95   56.03</time>
   <time name="diis">  271.32  272.02</time>
   <time name="orth">   25.70   25.77</time>
   <time name="total">  361.33  362.18</time>
   <energy>
    <i name="e_fr_energy">  -1980.58321313 </i>
    <i name="e_wo_entrp">  -1980.60216009 </i>
    <i name="e_0_energy">  -1980.58952879 </i>
   </energy>
  </scstep>
  <scstep>
   <time name="diag">   55.62   55.75</time>
   <time name="diis">  287.24  287.90</time>
   <time name="orth">   25.74   25.78</time>
   <time name="total">  376.82  377.65</time>
   <energy>
    <i name="e_fr_energy">  -1980.58287350 </i>
    <i name="e_wo_entrp">  -1980.60181260 </i>
    <i name="e_0_energy">  -1980.58918653 </i>
   </energy>
  </scstep>
  <scstep>
   <time name="diag">   55.92   55.98</time>
   <time name="diis">  298.76  299.33</time>
   <time name="orth">   25.96   26.01</time>
   <time name="total">  389.01  389.71</time>
   <energy>
    <i name="e_fr_energy">  -1980.58263972 </i>
    <i name="e_wo_entrp">  -1980.60166578 </i>
    <i name="e_0_energy">  -1980.58898174 </i>
   </energy>
  </scstep>
  <scstep>
   <time name="diag">   55.45   55.49</time>
   <time name="diis">  276.72  277.41</time>
   <time name="orth">   25.88   25.92</time>
   <time name="total">  366.28  367.06</time>
   <energy>
    <i name="e_fr_energy">  -1980.58247984 </i>
    <i name="e_wo_entrp">  -1980.60158959 </i>
    <i name="e_0_energy">  -1980.58884976 </i>
   </energy>
  </scstep>
  <scstep>
   <time name="diag">   55.37   55.47</time>
   <time name="diis">  300.62  301.26</time>
   <time name="orth">   25.78   25.82</time>
   <time name="total">  381.86  382.64</time>
   <energy>
    <i name="alphaZ">  14146.51071896 </i>
    <i name="ewald">-127057.76186201 </i>
    <i name="hartreedc">  -6573.42440245 </i>
    <i name="XCdc">  -6140.18400302 </i>
    <i name="pawpsdc">  98795.75204937 </i>
    <i name="pawaedc"> -89165.54067332 </i>
    <i name="eentropy">      0.01913388 </i>
    <i name="bandstr">  10062.85765805 </i>
    <i name="atom"> 103951.18894314 </i>
    <i name="e_fr_energy">  -1980.58243741 </i>
    <i name="e_wo_entrp">  -1980.60157129 </i>
    <i name="e_0_energy">  -1980.58881537 </i>
   </energy>
  </scstep>
  <structure>
   <crystal>
    <varray name="basis" >
     <v>      -8.19811000      -4.73312000      12.97158000 </v>
     <v>      -0.00004000       9.46633000      12.97158000 </v>
     <v>      -8.19815000       4.73321000     -12.97158000 </v>
    </varray>
    <i name="volume">   3020.02524953 </i>
    <varray name="rec_basis" >
     <v>      -0.06098971      -0.03521278       0.02569720 </v>
     <v>       0.00000039       0.07042504       0.02569720 </v>
     <v>      -0.06098933       0.03521226      -0.02569720 </v>
    </varray>
   </crystal>
   <varray name="positions" >
    <v>       0.02777889       0.36111222       0.97222444 </v>
    <v>       0.97222111       0.30555444       0.69444222 </v>
    <v>       0.13889000       0.47222333       0.86111333 </v>
    <v>       0.08333222       0.41666556       0.58333111 </v>
    <v>       0.58333444       0.25000111       0.75000222 </v>
    <v>       0.52777667       0.19444333       0.47222000 </v>
    <v>       0.25000111       0.25000111       0.41666889 </v>
    <v>       0.19444333       0.19444333       0.13888667 </v>
    <v>       0.91666778       0.25000111       0.08333556 </v>
    <v>       0.86111000       0.19444333       0.80555333 </v>
    <v>       0.25000111       0.58333444       0.75000222 </v>
    <v>       0.19444333       0.52777667       0.47222000 </v>
    <v>       0.91666778       0.58333444       0.41666889 </v>
    <v>       0.86111000       0.52777667       0.13888667 </v>
    <v>       0.91666778       0.91666778       0.75000222 </v>
    <v>       0.86111000       0.86111000       0.47222000 </v>
    <v>       0.69444556       0.36111222       0.63889111 </v>
    <v>       0.63888778       0.30555444       0.36110889 </v>
    <v>       0.36111222       0.36111222       0.30555778 </v>
    <v>       0.30555444       0.30555444       0.02777556 </v>
    <v>       0.69444556       0.69444556       0.97222444 </v>
    <v>       0.63888778       0.63888778       0.69444222 </v>
    <v>       0.36111222       0.69444556       0.63889111 </v>
    <v>       0.30555444       0.63888778       0.36110889 </v>
    <v>       0.02777889       0.69444556       0.30555778 </v>
    <v>       0.97222111       0.63888778       0.02777556 </v>
    <v>       0.36111222       0.02777889       0.97222444 </v>
    <v>       0.30555444       0.97222111       0.69444222 </v>
    <v>       0.02777889       0.02777889       0.63889111 </v>
    <v>       0.97222111       0.97222111       0.36110889 </v>
    <v>       0.80555667       0.47222333       0.52778000 </v>
    <v>       0.74999889       0.41666556       0.24999778 </v>
    <v>       0.47222333       0.47222333       0.19444667 </v>
    <v>       0.41666556       0.41666556       0.91666444 </v>
    <v>       0.80555667       0.80555667       0.86111333 </v>
    <v>       0.74999889       0.74999889       0.58333111 </v>
    <v>       0.47222333       0.80555667       0.52778000 </v>
    <v>       0.41666556       0.74999889       0.24999778 </v>
    <v>       0.13889000       0.80555667       0.19444667 </v>
    <v>       0.08333222       0.74999889       0.91666444 </v>
    <v>       0.47222333       0.13889000       0.86111333 </v>
    <v>       0.41666556       0.08333222       0.58333111 </v>
    <v>       0.13889000       0.13889000       0.52778000 </v>
    <v>       0.08333222       0.08333222       0.24999778 </v>
    <v>       0.58333444       0.58333444       0.08333556 </v>
    <v>       0.52777667       0.52777667       0.80555333 </v>
    <v>       0.58333444       0.91666778       0.41666889 </v>
    <v>       0.52777667       0.86111000       0.13888667 </v>
    <v>       0.25000111       0.91666778       0.08333556 </v>
    <v>       0.19444333       0.86111000       0.80555333 </v>
    <v>       0.69444556       0.02777889       0.30555778 </v>
    <v>       0.63888778       0.97222111       0.02777556 </v>
    <v>       0.80555667       0.13889000       0.19444667 </v>
    <v>       0.74999889       0.08333222       0.91666444 </v>
    <v>       0.86084889       0.36163556       0.80581778 </v>
    <v>       0.86085222       0.19418556       0.63837111 </v>
    <v>       0.02830222       0.19418222       0.80581778 </v>
    <v>       0.13915111       0.30503111       0.86084889 </v>
    <v>       0.97169778       0.47248111       0.86084556 </v>
    <v>       0.13914778       0.47248111       0.02829556 </v>
    <v>       0.97196000       0.47274667       0.69470667 </v>
    <v>       0.97196333       0.30529667       0.52726000 </v>
    <v>       0.13941333       0.30529333       0.69470667 </v>
    <v>       0.25026222       0.41614222       0.74973778 </v>
    <v>       0.08280889       0.58359222       0.74973444 </v>
    <v>       0.25025889       0.58359222       0.91718444 </v>
    <v>       0.41640778       0.25052444       0.58359889 </v>
    <v>       0.41640778       0.08307444       0.41614889 </v>
    <v>       0.58385778       0.08307444       0.58359889 </v>
    <v>       0.69470667       0.19392000       0.63862667 </v>
    <v>       0.52725333       0.36137333       0.63862667 </v>
    <v>       0.69470333       0.36137000       0.80607333 </v>
    <v>       0.08307111       0.25052444       0.25026222 </v>
    <v>       0.08307444       0.08307444       0.08281556 </v>
    <v>       0.25052444       0.08307111       0.25026222 </v>
    <v>       0.36137000       0.19392000       0.30529000 </v>
    <v>       0.19392000       0.36137000       0.30529000 </v>
    <v>       0.36137000       0.36137000       0.47274000 </v>
    <v>       0.75255444       0.24949111       0.91693222 </v>
    <v>       0.74974111       0.08307444       0.74948222 </v>
    <v>       0.91719111       0.08307111       0.91692889 </v>
    <v>       0.02804000       0.19392000       0.97196000 </v>
    <v>       0.86058667       0.36137000       0.97195667 </v>
    <v>       0.02803667       0.36137000       0.13940667 </v>
    <v>       0.08307111       0.58385778       0.58359556 </v>
    <v>       0.08307444       0.41640778       0.41614889 </v>
    <v>       0.25052444       0.41640444       0.58359556 </v>
    <v>       0.36137333       0.52725333       0.63862667 </v>
    <v>       0.19392000       0.69470333       0.63862333 </v>
    <v>       0.36137000       0.69470333       0.80607333 </v>
    <v>       0.74974111       0.58385778       0.25026556 </v>
    <v>       0.74974111       0.41640778       0.08281556 </v>
    <v>       0.91719111       0.41640444       0.25026222 </v>
    <v>       0.02804000       0.52725333       0.30529333 </v>
    <v>       0.86058667       0.69470333       0.30529000 </v>
    <v>       0.02803667       0.69470333       0.47274000 </v>
    <v>       0.74973778       0.91719111       0.58359556 </v>
    <v>       0.74974111       0.74974111       0.41614889 </v>
    <v>       0.91719111       0.74973778       0.58359556 </v>
    <v>       0.02803667       0.86058667       0.63862333 </v>
    <v>       0.86058667       0.02803667       0.63862333 </v>
    <v>       0.02803667       0.02803667       0.80607333 </v>
    <v>       0.52751556       0.36163556       0.47248444 </v>
    <v>       0.52751889       0.19418556       0.30503778 </v>
    <v>       0.69496889       0.19418556       0.47248778 </v>
    <v>       0.80581778       0.30503111       0.52751556 </v>
    <v>       0.63836444       0.47248111       0.52751222 </v>
    <v>       0.80581444       0.47248111       0.69496222 </v>
    <v>       0.19418222       0.36163556       0.13915111 </v>
    <v>       0.19418556       0.19418556       0.97170444 </v>
    <v>       0.36163556       0.19418556       0.13915444 </v>
    <v>       0.47248111       0.30503111       0.19417889 </v>
    <v>       0.30503111       0.47248444       0.19418222 </v>
    <v>       0.47248111       0.47248111       0.36162889 </v>
    <v>       0.52751556       0.69496889       0.80581778 </v>
    <v>       0.52751889       0.52751889       0.63837111 </v>
    <v>       0.69496889       0.52751889       0.80582111 </v>
    <v>       0.80581444       0.63836444       0.86084556 </v>
    <v>       0.63836444       0.80581778       0.86084889 </v>
    <v>       0.80581444       0.80581444       0.02829556 </v>
    <v>       0.19418222       0.69496889       0.47248444 </v>
    <v>       0.19418556       0.52751889       0.30503778 </v>
    <v>       0.36163556       0.52751556       0.47248444 </v>
    <v>       0.47248444       0.63836444       0.52751556 </v>
    <v>       0.30503111       0.80581444       0.52751222 </v>
    <v>       0.47248111       0.80581444       0.69496222 </v>
    <v>       0.86085222       0.69496889       0.13915444 </v>
    <v>       0.86085222       0.52751889       0.97170444 </v>
    <v>       0.02830222       0.52751889       0.13915444 </v>
    <v>       0.13914778       0.63836444       0.19417889 </v>
    <v>       0.97169778       0.80581444       0.19417889 </v>
    <v>       0.13914778       0.80581444       0.36162889 </v>
    <v>       0.19418222       0.02830222       0.80581778 </v>
    <v>       0.19418556       0.86085222       0.63837111 </v>
    <v>       0.36163556       0.86085222       0.80582111 </v>
    <v>       0.47248444       0.97169778       0.86084889 </v>
    <v>       0.30503111       0.13914778       0.86084556 </v>
    <v>       0.47248111       0.13914778       0.02829556 </v>
    <v>       0.86084889       0.02830222       0.47248444 </v>
    <v>       0.86085222       0.86085222       0.30503778 </v>
    <v>       0.02830222       0.86084889       0.47248444 </v>
    <v>       0.13914778       0.97169778       0.52751222 </v>
    <v>       0.97169778       0.13914778       0.52751222 </v>
    <v>       0.13914778       0.13914778       0.69496222 </v>
    <v>       0.63862667       0.47274667       0.36137333 </v>
    <v>       0.63863000       0.30529667       0.19392667 </v>
    <v>       0.80608000       0.30529667       0.36137667 </v>
    <v>       0.91692889       0.41614222       0.41640444 </v>
    <v>       0.74947556       0.58359556       0.41640444 </v>
    <v>       0.91692556       0.58359222       0.58385111 </v>
    <v>       0.30529333       0.47274667       0.02804000 </v>
    <v>       0.30529667       0.30529667       0.86059333 </v>
    <v>       0.47274667       0.30529333       0.02804000 </v>
    <v>       0.58359222       0.41614222       0.08306778 </v>
    <v>       0.41614222       0.58359222       0.08306778 </v>
    <v>       0.58359222       0.58359222       0.25051778 </v>
    <v>       0.63863000       0.80608000       0.69471000 </v>
    <v>       0.63863000       0.63863000       0.52726000 </v>
    <v>       0.80608000       0.63863000       0.69471000 </v>
    <v>       0.91692556       0.74947556       0.74973444 </v>
    <v>       0.74947556       0.91692889       0.74973778 </v>
    <v>       0.91692556       0.91692556       0.91718444 </v>
    <v>       0.30529333       0.80608000       0.36137333 </v>
    <v>       0.30529667       0.63863000       0.19392667 </v>
    <v>       0.47274667       0.63862667       0.36137333 </v>
    <v>       0.58359556       0.74947556       0.41640444 </v>
    <v>       0.41614222       0.91692556       0.41640111 </v>
    <v>       0.58359222       0.91692556       0.58385111 </v>
    <v>       0.97196000       0.80608000       0.02804000 </v>
    <v>       0.97196333       0.63863000       0.86059333 </v>
    <v>       0.13941333       0.63863000       0.02804333 </v>
    <v>       0.25025889       0.74947556       0.08306778 </v>
    <v>       0.08280889       0.91692556       0.08306778 </v>
    <v>       0.25025889       0.91692556       0.25051778 </v>
    <v>       0.30529667       0.13941333       0.69471000 </v>
    <v>       0.30529667       0.97196333       0.52726000 </v>
    <v>       0.47274667       0.97196333       0.69471000 </v>
    <v>       0.58359222       0.08280889       0.74973444 </v>
    <v>       0.41614222       0.25025889       0.74973444 </v>
    <v>       0.58359222       0.25025889       0.91718444 </v>
    <v>       0.97196000       0.13941333       0.36137333 </v>
    <v>       0.97196333       0.97196333       0.19392667 </v>
    <v>       0.13941333       0.97196000       0.36137333 </v>
    <v>       0.25025889       0.08280889       0.41640111 </v>
    <v>       0.08280889       0.25025889       0.41640111 </v>
    <v>       0.25025889       0.25025889       0.58385111 </v>
    <v>       0.41640778       0.58385778       0.91693222 </v>
    <v>       0.41640778       0.41640778       0.74948222 </v>
    <v>       0.58385778       0.41640444       0.91692889 </v>
    <v>       0.69470667       0.52725333       0.97196000 </v>
    <v>       0.52725333       0.69470333       0.97195667 </v>
    <v>       0.69470333       0.69470333       0.13940667 </v>
    <v>       0.41640444       0.91719111       0.25026222 </v>
    <v>       0.41640778       0.74974111       0.08281556 </v>
    <v>       0.58385778       0.74973778       0.25026222 </v>
    <v>       0.69470667       0.86058667       0.30529333 </v>
    <v>       0.52725333       0.02803667       0.30529000 </v>
    <v>       0.69470333       0.02803667       0.47274000 </v>
    <v>       0.08307444       0.91719111       0.91693222 </v>
    <v>       0.08307444       0.74974111       0.74948222 </v>
    <v>       0.25052444       0.74973778       0.91692889 </v>
    <v>       0.36137333       0.86058667       0.97196000 </v>
    <v>       0.19392000       0.02803667       0.97195667 </v>
    <v>       0.36137000       0.02803667       0.13940667 </v>
    <v>       0.52751556       0.02830222       0.13915111 </v>
    <v>       0.52751889       0.86085222       0.97170444 </v>
    <v>       0.69496889       0.86084889       0.13915111 </v>
    <v>       0.80581778       0.97169778       0.19418222 </v>
    <v>       0.63836444       0.13914778       0.19417889 </v>
    <v>       0.80581444       0.13914778       0.36162889 </v>
    <v>       0.63862667       0.13941333       0.02804000 </v>
    <v>       0.63863000       0.97196333       0.86059333 </v>
    <v>       0.80608000       0.97196000       0.02804000 </v>
    <v>       0.91692556       0.08280889       0.08306778 </v>
    <v>       0.74947556       0.25025889       0.08306778 </v>
    <v>       0.91692556       0.25025889       0.25051778 </v>
   </varray>
  </structure>
  <varray name="forces" >
   <v>      -0.00206029       0.00228869       0.00150618 </v>
   <v>      -0.00103169      -0.00102350       0.00256029 </v>
   <v>       0.00097929      -0.00096696      -0.00243896 </v>
   <v>      -0.00012452      -0.00003543       0.00348829 </v>
   <v>      -0.02120187      -0.01339668      -0.00019175 </v>
   <v>      -0.00311859      -0.00118550       0.00334109 </v>
   <v>      -0.00831169       0.00115882      -0.00342558 </v>
   <v>       0.00134869       0.00115396       0.00181458 </v>
   <v>      -0.05335780       0.01095622      -0.00035190 </v>
   <v>      -0.00267390      -0.09895330       0.10674079 </v>
   <v>       0.00290209       0.00091664      -0.00346334 </v>
   <v>       0.00015144       0.00058426       0.00285643 </v>
   <v>       0.00075552      -0.00035811      -0.00300557 </v>
   <v>      -0.00281927      -0.00094958       0.00665146 </v>
   <v>      -0.00522554      -0.00699740      -0.00356712 </v>
   <v>      -0.00059763       0.00168350       0.00312156 </v>
   <v>      -0.00003889       0.00419680      -0.00150773 </v>
   <v>      -0.00245042       0.00070919       0.00180961 </v>
   <v>      -0.00048004      -0.00029831      -0.00214108 </v>
   <v>       0.00094878       0.00206887       0.00023536 </v>
   <v>       0.00016758       0.00091954      -0.00072514 </v>
   <v>       0.00011638       0.00177255       0.00252001 </v>
   <v>       0.00046247       0.00000841      -0.00376995 </v>
   <v>       0.00064279       0.00008518       0.00277113 </v>
   <v>       0.00120282       0.00022890      -0.00312283 </v>
   <v>      -0.00140976      -0.00019343       0.00104667 </v>
   <v>       0.00069487      -0.00004656      -0.00277392 </v>
   <v>      -0.00066170       0.00028864       0.00359279 </v>
   <v>      -0.00011376       0.00183393      -0.00187618 </v>
   <v>       0.00001690       0.00000192       0.00384226 </v>
   <v>      -0.00023300      -0.00037666      -0.00143972 </v>
   <v>       0.00161032      -0.00027710       0.00114171 </v>
   <v>       0.00098883      -0.00071769      -0.00340657 </v>
   <v>      -0.00544483      -0.00292138       0.00470943 </v>
   <v>       0.00079381      -0.00120924      -0.00293040 </v>
   <v>      -0.00047157       0.00131227       0.00263557 </v>
   <v>       0.00023873       0.00078518      -0.00301232 </v>
   <v>      -0.00131769       0.00023660       0.00381338 </v>
   <v>       0.00085580      -0.00005959      -0.00339839 </v>
   <v>      -0.00067906       0.00152523       0.00208720 </v>
   <v>      -0.00340692      -0.00075984      -0.00228178 </v>
   <v>       0.00008537      -0.00005380       0.00126739 </v>
   <v>      -0.00094473      -0.00049184      -0.00247240 </v>
   <v>      -0.00083398       0.00172474       0.00380496 </v>
   <v>      -0.00495988      -0.00763618      -0.00298267 </v>
   <v>      -0.00166845      -0.00324804       0.00089938 </v>
   <v>       0.00091744      -0.00021619      -0.00298758 </v>
   <v>      -0.00097652       0.00062158       0.00296593 </v>
   <v>       0.00273746       0.00203912      -0.00297157 </v>
   <v>      -0.00089274       0.00110287       0.00314827 </v>
   <v>       0.00118506      -0.00132940      -0.00220703 </v>
   <v>      -0.00157444      -0.00087887       0.00173483 </v>
   <v>       0.00130592      -0.00252391      -0.00503501 </v>
   <v>      -0.00264783       0.00070383       0.00047455 </v>
   <v>      -0.00267028      -0.00873119       0.01460131 </v>
   <v>      -0.00433338       0.00009763      -0.00416245 </v>
   <v>       0.00566712       0.00041039       0.00047555 </v>
   <v>      -0.00223285       0.00562991       0.00933723 </v>
   <v>      -0.00662586      -0.00247124       0.00036215 </v>
   <v>       0.00722719      -0.00397252      -0.00020151 </v>
   <v>      -0.00007335      -0.00769546      -0.00044900 </v>
   <v>      -0.00489104       0.00305260      -0.00166374 </v>
   <v>       0.00547903       0.00399184      -0.00137515 </v>
   <v>      -0.00091946       0.00662905       0.00126365 </v>
   <v>      -0.00650760      -0.00315847       0.00130785 </v>
   <v>       0.00522595      -0.00304944       0.00196213 </v>
   <v>      -0.01102128      -0.00591565      -0.00018103 </v>
   <v>      -0.00389285       0.00246258      -0.00182613 </v>
   <v>      -0.00070501      -0.00226954      -0.00241467 </v>
   <v>       0.01170612       0.00820812       0.00130507 </v>
   <v>      -0.00927341      -0.00183071      -0.00065499 </v>
   <v>      -0.00816915      -0.01532125      -0.01673919 </v>
   <v>      -0.01049037      -0.00677833      -0.00095250 </v>
   <v>      -0.01363197      -0.00419267      -0.00225983 </v>
   <v>       0.00815709       0.00398296      -0.00208738 </v>
   <v>      -0.00191733       0.00629499       0.00107280 </v>
   <v>      -0.00582976      -0.00345950       0.00158045 </v>
   <v>       0.00524502      -0.00222372       0.00230749 </v>
   <v>       0.34486860       0.33807462      -0.34783762 </v>
   <v>      -0.01524063       0.00791511       0.00112021 </v>
   <v>      -0.00163621      -0.04529561       0.00166647 </v>
   <v>      -0.02054372      -0.00348139       0.02096464 </v>
   <v>      -0.06153652       0.01961482       0.05689547 </v>
   <v>       0.00021766       0.00017007       0.00066039 </v>
   <v>      -0.00054668      -0.00714856      -0.00425292 </v>
   <v>      -0.00311367       0.00242029      -0.00217450 </v>
   <v>       0.00789860       0.00427394      -0.00203367 </v>
   <v>      -0.00088255       0.00689303       0.00241884 </v>
   <v>      -0.00617515      -0.00300195       0.00235396 </v>
   <v>       0.00479311      -0.00286249       0.00229398 </v>
   <v>       0.00289604      -0.00990312      -0.00107197 </v>
   <v>       0.01151574      -0.02342064       0.00045171 </v>
   <v>      -0.00013449      -0.00152385      -0.00186558 </v>
   <v>       0.00003361       0.00715115       0.00120720 </v>
   <v>      -0.00547979      -0.00410212       0.00237676 </v>
   <v>       0.00550634      -0.00301095       0.00162638 </v>
   <v>       0.00596361      -0.01331290      -0.00035302 </v>
   <v>      -0.00381750       0.00300337      -0.00260423 </v>
   <v>       0.00637949       0.00449389      -0.00126086 </v>
   <v>      -0.00099168       0.00625957       0.00176203 </v>
   <v>      -0.00707715      -0.00656135       0.00636829 </v>
   <v>       0.00379765      -0.00929809       0.00194541 </v>
   <v>       0.00226116      -0.00860588      -0.00191570 </v>
   <v>      -0.00409918       0.00284658      -0.00218250 </v>
   <v>       0.00583691       0.00273847      -0.00053768 </v>
   <v>       0.00305155       0.00799123       0.00687652 </v>
   <v>      -0.00608048      -0.00394331       0.00091218 </v>
   <v>       0.00415629      -0.00280946       0.00018443 </v>
   <v>       0.00136816      -0.00700307      -0.00185074 </v>
   <v>      -0.00433998       0.00283719      -0.00278207 </v>
   <v>       0.00582943       0.00302124      -0.00188874 </v>
   <v>       0.00109857       0.00509586       0.00907146 </v>
   <v>      -0.00599730      -0.00258386       0.00229214 </v>
   <v>       0.00535960      -0.00286343       0.00228579 </v>
   <v>       0.00013301      -0.00393585      -0.00211739 </v>
   <v>      -0.00664123       0.00237740      -0.00052563 </v>
   <v>       0.00676099       0.00101493      -0.00217795 </v>
   <v>       0.00072718       0.00724292       0.00658559 </v>
   <v>      -0.00609420      -0.00439389       0.00128199 </v>
   <v>       0.00547199      -0.00227635       0.00161193 </v>
   <v>      -0.00050340      -0.00669781      -0.00113326 </v>
   <v>      -0.00482861       0.00209266      -0.00180112 </v>
   <v>       0.00667861       0.00357851      -0.00280531 </v>
   <v>      -0.00116477       0.00687577       0.00140920 </v>
   <v>      -0.00528899      -0.00174185       0.00142479 </v>
   <v>       0.00444655      -0.00353575       0.00249533 </v>
   <v>       0.00178891      -0.00657393      -0.00271443 </v>
   <v>      -0.00415421       0.00518245      -0.00083796 </v>
   <v>       0.00753484       0.00195287      -0.00049672 </v>
   <v>      -0.00107381       0.00680582       0.00128896 </v>
   <v>      -0.00619912      -0.00285803       0.00280562 </v>
   <v>       0.00469385      -0.00256561       0.00127134 </v>
   <v>       0.00106206      -0.00515772      -0.00156660 </v>
   <v>      -0.00492833       0.00224242      -0.00163423 </v>
   <v>       0.00556694       0.00134947      -0.00127473 </v>
   <v>       0.00091465       0.00997691       0.00799766 </v>
   <v>      -0.00411101      -0.00294605      -0.00022386 </v>
   <v>       0.00403171      -0.00310216       0.00082413 </v>
   <v>       0.00085628      -0.00578623      -0.00165727 </v>
   <v>      -0.00493251       0.00226032      -0.00162241 </v>
   <v>       0.00654814       0.00289211      -0.00132179 </v>
   <v>      -0.00129080       0.00629692       0.00056612 </v>
   <v>      -0.00772337      -0.00185267      -0.00043877 </v>
   <v>       0.00574467      -0.00036957      -0.00041255 </v>
   <v>       0.00055619      -0.00719578      -0.00289595 </v>
   <v>      -0.00201492       0.00196110       0.00066024 </v>
   <v>       0.00490408       0.00336534      -0.00148054 </v>
   <v>      -0.00064763       0.00674908       0.00135866 </v>
   <v>      -0.00599313      -0.00484041       0.00124170 </v>
   <v>       0.00570902      -0.00239091       0.00120221 </v>
   <v>       0.00042313      -0.00497188      -0.00136267 </v>
   <v>      -0.00281363       0.00354085      -0.00145533 </v>
   <v>       0.00459996       0.00008753       0.00196033 </v>
   <v>       0.00562383      -0.01023735       0.01533431 </v>
   <v>      -0.00639529      -0.00213409      -0.00015136 </v>
   <v>       0.00438954      -0.00068532       0.00146314 </v>
   <v>       0.00028321      -0.00515698      -0.00314108 </v>
   <v>      -0.00519291       0.00261505      -0.00132466 </v>
   <v>       0.00630073       0.00296368      -0.00256799 </v>
   <v>      -0.00167202       0.00565955       0.00112080 </v>
   <v>      -0.00384631      -0.00335678       0.00002097 </v>
   <v>       0.00138819      -0.00544550       0.00184543 </v>
   <v>      -0.00021485      -0.00691984      -0.00149648 </v>
   <v>      -0.00451162       0.00197696      -0.00186688 </v>
   <v>       0.00632555       0.00303521      -0.00250092 </v>
   <v>       0.00049506       0.00661589       0.00028671 </v>
   <v>      -0.00593058      -0.00261216       0.00298474 </v>
   <v>       0.00583625      -0.00476789       0.00276681 </v>
   <v>       0.00135721      -0.00465726      -0.00097661 </v>
   <v>      -0.00454012       0.00270805      -0.00225816 </v>
   <v>       0.00544201       0.00151228      -0.00127388 </v>
   <v>      -0.00112744       0.00567061       0.00164068 </v>
   <v>      -0.00558619      -0.00536178       0.00330497 </v>
   <v>       0.00476823      -0.00260405       0.00323473 </v>
   <v>       0.00298192      -0.00708602      -0.00178702 </v>
   <v>      -0.00553894       0.00282153      -0.00144946 </v>
   <v>       0.00662682       0.00215171      -0.00126518 </v>
   <v>      -0.00832356       0.02003314       0.00984034 </v>
   <v>      -0.01088533      -0.00528122       0.00543974 </v>
   <v>      -0.07097175      -0.04733169       0.08326604 </v>
   <v>       0.00186266      -0.00638007      -0.00141039 </v>
   <v>      -0.00429809       0.00274499       0.00183587 </v>
   <v>       0.00615952       0.00340181      -0.00216953 </v>
   <v>      -0.00194307       0.00683970       0.00098953 </v>
   <v>      -0.00607163      -0.00369777       0.00105869 </v>
   <v>       0.00478676      -0.00252053       0.00184808 </v>
   <v>      -0.00777335      -0.02652810      -0.00073974 </v>
   <v>      -0.01309990      -0.00453745      -0.00224546 </v>
   <v>      -0.02763356      -0.02063469       0.00039840 </v>
   <v>       0.00619065       0.00999492      -0.00581168 </v>
   <v>      -0.00890811      -0.00493758       0.00309489 </v>
   <v>       0.00588335      -0.00310770       0.00206482 </v>
   <v>      -0.00100113      -0.00751129      -0.00376321 </v>
   <v>      -0.00391593       0.00383512      -0.00144421 </v>
   <v>       0.00558806       0.00440717      -0.00211832 </v>
[...]
       <r>     8.3591   173.5113  1647.9635 </r>
       <r>     8.4080   189.4766  1657.2292 </r>
       <r>     8.4569   204.2016  1667.2149 </r>
       <r>     8.5058   193.5765  1676.6811 </r>
       <r>     8.5547   163.7112  1684.6868 </r>
       <r>     8.6036   130.3540  1691.0614 </r>
       <r>     8.6525   118.0360  1696.8335 </r>
       <r>     8.7014   137.2827  1703.5468 </r>
       <r>     8.7503   173.6109  1712.0367 </r>
       <r>     8.7992   208.7875  1722.2467 </r>
       <r>     8.8481   231.0626  1733.5460 </r>
       <r>     8.8970   230.8449  1744.8347 </r>
       <r>     8.9459   200.9198  1754.6599 </r>
       <r>     8.9948   158.0850  1762.3905 </r>
       <r>     9.0437   135.7674  1769.0298 </r>
       <r>     9.0926   139.8423  1775.8683 </r>
       <r>     9.1415   153.4357  1783.3715 </r>
       <r>     9.1904   170.3433  1791.7015 </r>
       <r>     9.2393   188.1441  1800.9021 </r>
       <r>     9.2882   198.3613  1810.6022 </r>
       <r>     9.3371   207.0474  1820.7272 </r>
       <r>     9.3860   230.7689  1832.0121 </r>
       <r>     9.4349   252.5833  1844.3638 </r>
       <r>     9.4838   243.6698  1856.2796 </r>
       <r>     9.5327   217.5689  1866.9191 </r>
       <r>     9.5816   207.0619  1877.0447 </r>
       <r>     9.6305   227.8365  1888.1863 </r>
       <r>     9.6794   264.1097  1901.1016 </r>
       <r>     9.7283   289.4855  1915.2579 </r>
       <r>     9.7772   301.2822  1929.9911 </r>
       <r>     9.8261   308.5061  1945.0775 </r>
       <r>     9.8750   306.8635  1960.0836 </r>
       <r>     9.9239   288.8821  1974.2103 </r>
       <r>     9.9728   281.1091  1987.9570 </r>
       <r>    10.0217   320.4683  2003.6284 </r>
       <r>    10.0706   385.6016  2022.4849 </r>
       <r>    10.1195   417.7169  2042.9119 </r>
       <r>    10.1684   408.1930  2062.8731 </r>
       <r>    10.2173   395.5492  2082.2161 </r>
       <r>    10.2662   392.6328  2101.4164 </r>
       <r>    10.3151   377.1200  2119.8581 </r>
       <r>    10.3640   337.9553  2136.3847 </r>
       <r>    10.4129   286.5212  2150.3960 </r>
       <r>    10.4618   227.7144  2161.5315 </r>
       <r>    10.5107   157.5424  2169.2356 </r>
       <r>    10.5596    84.4610  2173.3659 </r>
       <r>    10.6085    29.5196  2174.8094 </r>
       <r>    10.6574     3.5670  2174.9839 </r>
       <r>    10.7063    -2.1802  2174.8772 </r>
       <r>    10.7552    -1.3606  2174.8107 </r>
       <r>    10.8041    -0.4170  2174.7903 </r>
       <r>    10.8530    -0.1236  2174.7843 </r>
       <r>    10.9019    -0.0457  2174.7820 </r>
       <r>    10.9509    -0.0134  2174.7814 </r>
       <r>    10.9998    -0.0024  2174.7813 </r>
       <r>    11.0487    -0.0003  2174.7813 </r>
       <r>    11.0976    -0.0000  2174.7813 </r>
       <r>    11.1465    -0.0000  2174.7813 </r>
       <r>    11.1954    -0.0000  2174.7813 </r>
       <r>    11.2443    -0.0000  2174.7812 </r>
       <r>    11.2932    -0.0000  2174.7812 </r>
       <r>    11.3421    -0.0000  2174.7812 </r>
       <r>    11.3910     0.0000  2174.7812 </r>
       <r>    11.4399    -0.0000  2174.7812 </r>
       <r>    11.4888    -0.0000  2174.7812 </r>
       <r>    11.5377    -0.0000  2174.7812 </r>
       <r>    11.5866    -0.0000  2174.7812 </r>
       <r>    11.6355    -0.0000  2174.7812 </r>
       <r>    11.6844    -0.0000  2174.7812 </r>
       <r>    11.7333    -0.0000  2174.7812 </r>
       <r>    11.7822    -0.0000  2174.7812 </r>
       <r>    11.8311    -0.0000  2174.7812 </r>
       <r>    11.8800    -0.0000  2174.7812 </r>
       <r>    11.9289    -0.0000  2174.7812 </r>
       <r>    11.9778    -0.0002  2174.7812 </r>
       <r>    12.0267    -0.0020  2174.7811 </r>
       <r>    12.0756    -0.0132  2174.7805 </r>
       <r>    12.1245    -0.0448  2174.7783 </r>
       <r>    12.1734    -0.0451  2174.7761 </r>
       <r>    12.2223     0.1766  2174.7847 </r>
       <r>    12.2712     0.7148  2174.8197 </r>
       <r>    12.3201     1.3181  2174.8842 </r>
       <r>    12.3690     1.8560  2174.9749 </r>
       <r>    12.4179     2.4754  2175.0960 </r>
       <r>    12.4668     2.8940  2175.2375 </r>
       <r>    12.5157     2.5773  2175.3635 </r>
       <r>    12.5646     1.8168  2175.4524 </r>
       <r>    12.6135     1.4075  2175.5212 </r>
       <r>    12.6624     1.2583  2175.5827 </r>
       <r>    12.7113     0.9814  2175.6307 </r>
       <r>    12.7602     0.8258  2175.6711 </r>
       <r>    12.8091     0.8941  2175.7148 </r>
       <r>    12.8580     1.0654  2175.7669 </r>
       <r>    12.9069     1.3866  2175.8347 </r>
       <r>    12.9558     1.6167  2175.9138 </r>
       <r>    13.0047     1.2806  2175.9764 </r>
       <r>    13.0536     0.5422  2176.0029 </r>
       <r>    13.1025     0.0420  2176.0050 </r>
       <r>    13.1514    -0.0643  2176.0018 </r>
       <r>    13.2003    -0.0304  2176.0004 </r>
       <r>    13.2492    -0.0064  2176.0000 </r>
       <r>    13.2981    -0.0008  2176.0000 </r>
       <r>    13.3470    -0.0001  2176.0000 </r>
       <r>    13.3959    -0.0000  2176.0000 </r>
       <r>    13.4448    -0.0000  2176.0000 </r>
       <r>    13.4937    -0.0000  2176.0000 </r>
       <r>    13.5426    -0.0000  2176.0000 </r>
       <r>    13.5915    -0.0000  2176.0000 </r>
       <r>    13.6404    -0.0000  2176.0000 </r>
       <r>    13.6893     0.0000  2176.0000 </r>
       <r>    13.7382     0.0000  2176.0000 </r>
       <r>    13.7871     0.0000  2176.0000 </r>
       <r>    13.8360     0.0000  2176.0000 </r>
       <r>    13.8849     0.0000  2176.0000 </r>
       <r>    13.9338     0.0000  2176.0000 </r>
       <r>    13.9827     0.0000  2176.0000 </r>
      </set>
     </set>
    </array>
   </total>
  </dos>
 </calculation>
 <structure name="finalpos" >
  <crystal>
   <varray name="basis" >
    <v>      -8.19811000      -4.73312000      12.97158000 </v>
    <v>      -0.00004000       9.46633000      12.97158000 </v>
    <v>      -8.19815000       4.73321000     -12.97158000 </v>
   </varray>
   <i name="volume">   3020.02524953 </i>
   <varray name="rec_basis" >
    <v>      -0.06098971      -0.03521278       0.02569720 </v>
    <v>       0.00000039       0.07042504       0.02569720 </v>
    <v>      -0.06098933       0.03521226      -0.02569720 </v>
   </varray>
  </crystal>
  <varray name="positions" >
   <v>       0.02777889       0.36111222       0.97222444 </v>
   <v>       0.97222111       0.30555444       0.69444222 </v>
   <v>       0.13889000       0.47222333       0.86111333 </v>
   <v>       0.08333222       0.41666556       0.58333111 </v>
   <v>       0.58333444       0.25000111       0.75000222 </v>
   <v>       0.52777667       0.19444333       0.47222000 </v>
   <v>       0.25000111       0.25000111       0.41666889 </v>
   <v>       0.19444333       0.19444333       0.13888667 </v>
   <v>       0.91666778       0.25000111       0.08333556 </v>
   <v>       0.86111000       0.19444333       0.80555333 </v>
   <v>       0.25000111       0.58333444       0.75000222 </v>
   <v>       0.19444333       0.52777667       0.47222000 </v>
   <v>       0.91666778       0.58333444       0.41666889 </v>
   <v>       0.86111000       0.52777667       0.13888667 </v>
   <v>       0.91666778       0.91666778       0.75000222 </v>
   <v>       0.86111000       0.86111000       0.47222000 </v>
   <v>       0.69444556       0.36111222       0.63889111 </v>
   <v>       0.63888778       0.30555444       0.36110889 </v>
   <v>       0.36111222       0.36111222       0.30555778 </v>
   <v>       0.30555444       0.30555444       0.02777556 </v>
   <v>       0.69444556       0.69444556       0.97222444 </v>
   <v>       0.63888778       0.63888778       0.69444222 </v>
   <v>       0.36111222       0.69444556       0.63889111 </v>
   <v>       0.30555444       0.63888778       0.36110889 </v>
   <v>       0.02777889       0.69444556       0.30555778 </v>
   <v>       0.97222111       0.63888778       0.02777556 </v>
   <v>       0.36111222       0.02777889       0.97222444 </v>
   <v>       0.30555444       0.97222111       0.69444222 </v>
   <v>       0.02777889       0.02777889       0.63889111 </v>
   <v>       0.97222111       0.97222111       0.36110889 </v>
   <v>       0.80555667       0.47222333       0.52778000 </v>
   <v>       0.74999889       0.41666556       0.24999778 </v>
   <v>       0.47222333       0.47222333       0.19444667 </v>
   <v>       0.41666556       0.41666556       0.91666444 </v>
   <v>       0.80555667       0.80555667       0.86111333 </v>
   <v>       0.74999889       0.74999889       0.58333111 </v>
   <v>       0.47222333       0.80555667       0.52778000 </v>
   <v>       0.41666556       0.74999889       0.24999778 </v>
   <v>       0.13889000       0.80555667       0.19444667 </v>
   <v>       0.08333222       0.74999889       0.91666444 </v>
   <v>       0.47222333       0.13889000       0.86111333 </v>
   <v>       0.41666556       0.08333222       0.58333111 </v>
   <v>       0.13889000       0.13889000       0.52778000 </v>
   <v>       0.08333222       0.08333222       0.24999778 </v>
   <v>       0.58333444       0.58333444       0.08333556 </v>
   <v>       0.52777667       0.52777667       0.80555333 </v>
   <v>       0.58333444       0.91666778       0.41666889 </v>
   <v>       0.52777667       0.86111000       0.13888667 </v>
   <v>       0.25000111       0.91666778       0.08333556 </v>
   <v>       0.19444333       0.86111000       0.80555333 </v>
   <v>       0.69444556       0.02777889       0.30555778 </v>
   <v>       0.63888778       0.97222111       0.02777556 </v>
   <v>       0.80555667       0.13889000       0.19444667 </v>
   <v>       0.74999889       0.08333222       0.91666444 </v>
   <v>       0.86084889       0.36163556       0.80581778 </v>
   <v>       0.86085222       0.19418556       0.63837111 </v>
   <v>       0.02830222       0.19418222       0.80581778 </v>
   <v>       0.13915111       0.30503111       0.86084889 </v>
   <v>       0.97169778       0.47248111       0.86084556 </v>
   <v>       0.13914778       0.47248111       0.02829556 </v>
   <v>       0.97196000       0.47274667       0.69470667 </v>
   <v>       0.97196333       0.30529667       0.52726000 </v>
   <v>       0.13941333       0.30529333       0.69470667 </v>
   <v>       0.25026222       0.41614222       0.74973778 </v>
   <v>       0.08280889       0.58359222       0.74973444 </v>
   <v>       0.25025889       0.58359222       0.91718444 </v>
   <v>       0.41640778       0.25052444       0.58359889 </v>
   <v>       0.41640778       0.08307444       0.41614889 </v>
   <v>       0.58385778       0.08307444       0.58359889 </v>
   <v>       0.69470667       0.19392000       0.63862667 </v>
   <v>       0.52725333       0.36137333       0.63862667 </v>
   <v>       0.69470333       0.36137000       0.80607333 </v>
   <v>       0.08307111       0.25052444       0.25026222 </v>
   <v>       0.08307444       0.08307444       0.08281556 </v>
   <v>       0.25052444       0.08307111       0.25026222 </v>
   <v>       0.36137000       0.19392000       0.30529000 </v>
   <v>       0.19392000       0.36137000       0.30529000 </v>
   <v>       0.36137000       0.36137000       0.47274000 </v>
   <v>       0.75255444       0.24949111       0.91693222 </v>
   <v>       0.74974111       0.08307444       0.74948222 </v>
   <v>       0.91719111       0.08307111       0.91692889 </v>
   <v>       0.02804000       0.19392000       0.97196000 </v>
   <v>       0.86058667       0.36137000       0.97195667 </v>
   <v>       0.02803667       0.36137000       0.13940667 </v>
   <v>       0.08307111       0.58385778       0.58359556 </v>
   <v>       0.08307444       0.41640778       0.41614889 </v>
   <v>       0.25052444       0.41640444       0.58359556 </v>
   <v>       0.36137333       0.52725333       0.63862667 </v>
   <v>       0.19392000       0.69470333       0.63862333 </v>
   <v>       0.36137000       0.69470333       0.80607333 </v>
   <v>       0.74974111       0.58385778       0.25026556 </v>
   <v>       0.74974111       0.41640778       0.08281556 </v>
   <v>       0.91719111       0.41640444       0.25026222 </v>
   <v>       0.02804000       0.52725333       0.30529333 </v>
   <v>       0.86058667       0.69470333       0.30529000 </v>
   <v>       0.02803667       0.69470333       0.47274000 </v>
   <v>       0.74973778       0.91719111       0.58359556 </v>
   <v>       0.74974111       0.74974111       0.41614889 </v>
   <v>       0.91719111       0.74973778       0.58359556 </v>
   <v>       0.02803667       0.86058667       0.63862333 </v>
   <v>       0.86058667       0.02803667       0.63862333 </v>
   <v>       0.02803667       0.02803667       0.80607333 </v>
   <v>       0.52751556       0.36163556       0.47248444 </v>
   <v>       0.52751889       0.19418556       0.30503778 </v>
   <v>       0.69496889       0.19418556       0.47248778 </v>
   <v>       0.80581778       0.30503111       0.52751556 </v>
   <v>       0.63836444       0.47248111       0.52751222 </v>
   <v>       0.80581444       0.47248111       0.69496222 </v>
   <v>       0.19418222       0.36163556       0.13915111 </v>
   <v>       0.19418556       0.19418556       0.97170444 </v>
   <v>       0.36163556       0.19418556       0.13915444 </v>
   <v>       0.47248111       0.30503111       0.19417889 </v>
   <v>       0.30503111       0.47248444       0.19418222 </v>
   <v>       0.47248111       0.47248111       0.36162889 </v>
   <v>       0.52751556       0.69496889       0.80581778 </v>
   <v>       0.52751889       0.52751889       0.63837111 </v>
   <v>       0.69496889       0.52751889       0.80582111 </v>
   <v>       0.80581444       0.63836444       0.86084556 </v>
   <v>       0.63836444       0.80581778       0.86084889 </v>
   <v>       0.80581444       0.80581444       0.02829556 </v>
   <v>       0.19418222       0.69496889       0.47248444 </v>
   <v>       0.19418556       0.52751889       0.30503778 </v>
   <v>       0.36163556       0.52751556       0.47248444 </v>
   <v>       0.47248444       0.63836444       0.52751556 </v>
   <v>       0.30503111       0.80581444       0.52751222 </v>
   <v>       0.47248111       0.80581444       0.69496222 </v>
   <v>       0.86085222       0.69496889       0.13915444 </v>
   <v>       0.86085222       0.52751889       0.97170444 </v>
   <v>       0.02830222       0.52751889       0.13915444 </v>
   <v>       0.13914778       0.63836444       0.19417889 </v>
   <v>       0.97169778       0.80581444       0.19417889 </v>
   <v>       0.13914778       0.80581444       0.36162889 </v>
   <v>       0.19418222       0.02830222       0.80581778 </v>
   <v>       0.19418556       0.86085222       0.63837111 </v>
   <v>       0.36163556       0.86085222       0.80582111 </v>
   <v>       0.47248444       0.97169778       0.86084889 </v>
   <v>       0.30503111       0.13914778       0.86084556 </v>
   <v>       0.47248111       0.13914778       0.02829556 </v>
   <v>       0.86084889       0.02830222       0.47248444 </v>
   <v>       0.86085222       0.86085222       0.30503778 </v>
   <v>       0.02830222       0.86084889       0.47248444 </v>
   <v>       0.13914778       0.97169778       0.52751222 </v>
   <v>       0.97169778       0.13914778       0.52751222 </v>
   <v>       0.13914778       0.13914778       0.69496222 </v>
   <v>       0.63862667       0.47274667       0.36137333 </v>
   <v>       0.63863000       0.30529667       0.19392667 </v>
   <v>       0.80608000       0.30529667       0.36137667 </v>
   <v>       0.91692889       0.41614222       0.41640444 </v>
   <v>       0.74947556       0.58359556       0.41640444 </v>
   <v>       0.91692556       0.58359222       0.58385111 </v>
   <v>       0.30529333       0.47274667       0.02804000 </v>
   <v>       0.30529667       0.30529667       0.86059333 </v>
   <v>       0.47274667       0.30529333       0.02804000 </v>
   <v>       0.58359222       0.41614222       0.08306778 </v>
   <v>       0.41614222       0.58359222       0.08306778 </v>
   <v>       0.58359222       0.58359222       0.25051778 </v>
   <v>       0.63863000       0.80608000       0.69471000 </v>
   <v>       0.63863000       0.63863000       0.52726000 </v>
   <v>       0.80608000       0.63863000       0.69471000 </v>
   <v>       0.91692556       0.74947556       0.74973444 </v>
   <v>       0.74947556       0.91692889       0.74973778 </v>
   <v>       0.91692556       0.91692556       0.91718444 </v>
   <v>       0.30529333       0.80608000       0.36137333 </v>
   <v>       0.30529667       0.63863000       0.19392667 </v>
   <v>       0.47274667       0.63862667       0.36137333 </v>
   <v>       0.58359556       0.74947556       0.41640444 </v>
   <v>       0.41614222       0.91692556       0.41640111 </v>
   <v>       0.58359222       0.91692556       0.58385111 </v>
   <v>       0.97196000       0.80608000       0.02804000 </v>
   <v>       0.97196333       0.63863000       0.86059333 </v>
   <v>       0.13941333       0.63863000       0.02804333 </v>
   <v>       0.25025889       0.74947556       0.08306778 </v>
   <v>       0.08280889       0.91692556       0.08306778 </v>
   <v>       0.25025889       0.91692556       0.25051778 </v>
   <v>       0.30529667       0.13941333       0.69471000 </v>
   <v>       0.30529667       0.97196333       0.52726000 </v>
   <v>       0.47274667       0.97196333       0.69471000 </v>
   <v>       0.58359222       0.08280889       0.74973444 </v>
   <v>       0.41614222       0.25025889       0.74973444 </v>
   <v>       0.58359222       0.25025889       0.91718444 </v>
   <v>       0.97196000       0.13941333       0.36137333 </v>
   <v>       0.97196333       0.97196333       0.19392667 </v>
   <v>       0.13941333       0.97196000       0.36137333 </v>
   <v>       0.25025889       0.08280889       0.41640111 </v>
   <v>       0.08280889       0.25025889       0.41640111 </v>
   <v>       0.25025889       0.25025889       0.58385111 </v>
   <v>       0.41640778       0.58385778       0.91693222 </v>
   <v>       0.41640778       0.41640778       0.74948222 </v>
   <v>       0.58385778       0.41640444       0.91692889 </v>
   <v>       0.69470667       0.52725333       0.97196000 </v>
   <v>       0.52725333       0.69470333       0.97195667 </v>
   <v>       0.69470333       0.69470333       0.13940667 </v>
   <v>       0.41640444       0.91719111       0.25026222 </v>
   <v>       0.41640778       0.74974111       0.08281556 </v>
   <v>       0.58385778       0.74973778       0.25026222 </v>
   <v>       0.69470667       0.86058667       0.30529333 </v>
   <v>       0.52725333       0.02803667       0.30529000 </v>
   <v>       0.69470333       0.02803667       0.47274000 </v>
   <v>       0.08307444       0.91719111       0.91693222 </v>
   <v>       0.08307444       0.74974111       0.74948222 </v>
   <v>       0.25052444       0.74973778       0.91692889 </v>
   <v>       0.36137333       0.86058667       0.97196000 </v>
   <v>       0.19392000       0.02803667       0.97195667 </v>
   <v>       0.36137000       0.02803667       0.13940667 </v>
   <v>       0.52751556       0.02830222       0.13915111 </v>
   <v>       0.52751889       0.86085222       0.97170444 </v>
   <v>       0.69496889       0.86084889       0.13915111 </v>
   <v>       0.80581778       0.97169778       0.19418222 </v>
   <v>       0.63836444       0.13914778       0.19417889 </v>
   <v>       0.80581444       0.13914778       0.36162889 </v>
   <v>       0.63862667       0.13941333       0.02804000 </v>
   <v>       0.63863000       0.97196333       0.86059333 </v>
   <v>       0.80608000       0.97196000       0.02804000 </v>
   <v>       0.91692556       0.08280889       0.08306778 </v>
   <v>       0.74947556       0.25025889       0.08306778 </v>
   <v>       0.91692556       0.25025889       0.25051778 </v>
  </varray>
 </structure>
</modeling>
