 256 256   0   0
  0.1418917E+02  0.1588033E-08  0.1692661E-08  0.1693229E-08  0.5000000E-15
  1.000000000000000E-004
  CAR 
 Ir_Ru                                   
     14.27978808     -1.29181785  301      9.45693190      1.00000000
     -1.292  0.0000E+00  0.0000E+00
     -1.240  0.0000E+00  0.0000E+00
     -1.188  0.0000E+00  0.0000E+00
     -1.136 -0.2813E-30 -0.1460E-31
     -1.084 -0.1291E-26 -0.6703E-28
     -1.032 -0.3443E-23 -0.1788E-24
     -0.980 -0.5330E-20 -0.2768E-21
     -0.928 -0.4786E-17 -0.2487E-18
     -0.877 -0.2431E-14 -0.1265E-15
     -0.825 -0.7243E-12 -0.3772E-13
     -0.773 -0.1251E-09 -0.6530E-11
     -0.721 -0.1242E-07 -0.6514E-09
     -0.669 -0.7067E-06 -0.3733E-07
     -0.617 -0.2290E-04 -0.1226E-05
     -0.565 -0.4194E-03 -0.2300E-04
     -0.513 -0.4302E-02 -0.2463E-03
     -0.461 -0.2445E-01 -0.1515E-02
     -0.409 -0.7545E-01 -0.5431E-02
     -0.358 -0.1017E+00 -0.1071E-01
     -0.306  0.2095E+00  0.1647E-03
     -0.254  0.1652E+01  0.8591E-01
     -0.202  0.4415E+01  0.3151E+00
     -0.150  0.6359E+01  0.6451E+00
     -0.098  0.6421E+01  0.9784E+00
     -0.046  0.6971E+01  0.1340E+01
      0.006  0.8875E+01  0.1801E+01
      0.058  0.1120E+02  0.2382E+01
      0.110  0.1363E+02  0.3089E+01
      0.162  0.1433E+02  0.3833E+01
      0.213  0.1167E+02  0.4439E+01
      0.265  0.1008E+02  0.4962E+01
      0.317  0.1433E+02  0.5706E+01
      0.369  0.2038E+02  0.6764E+01
      0.421  0.2252E+02  0.7933E+01
      0.473  0.2271E+02  0.9111E+01
      0.525  0.2351E+02  0.1033E+02
      0.577  0.2250E+02  0.1150E+02
      0.629  0.2043E+02  0.1256E+02
      0.681  0.2101E+02  0.1365E+02
      0.732  0.2034E+02  0.1471E+02
      0.784  0.1452E+02  0.1546E+02
      0.836  0.8830E+01  0.1592E+02
      0.888  0.8041E+01  0.1634E+02
      0.940  0.1177E+02  0.1695E+02
      0.992  0.1901E+02  0.1793E+02
      1.044  0.2795E+02  0.1938E+02
      1.096  0.3338E+02  0.2112E+02
      1.148  0.3304E+02  0.2283E+02
      1.200  0.2875E+02  0.2432E+02
      1.252  0.2277E+02  0.2551E+02
      1.303  0.1947E+02  0.2652E+02
      1.355  0.2174E+02  0.2764E+02
      1.407  0.2723E+02  0.2906E+02
      1.459  0.3036E+02  0.3063E+02
      1.511  0.2981E+02  0.3218E+02
      1.563  0.2935E+02  0.3370E+02
      1.615  0.3043E+02  0.3528E+02
      1.667  0.3112E+02  0.3690E+02
      1.719  0.3204E+02  0.3856E+02
      1.771  0.3504E+02  0.4038E+02
      1.823  0.3914E+02  0.4241E+02
      1.874  0.4559E+02  0.4478E+02
      1.926  0.5476E+02  0.4762E+02
      1.978  0.5934E+02  0.5070E+02
      2.030  0.5468E+02  0.5354E+02
      2.082  0.5054E+02  0.5616E+02
      2.134  0.6184E+02  0.5937E+02
      2.186  0.8719E+02  0.6390E+02
      2.238  0.1089E+03  0.6955E+02
      2.290  0.1198E+03  0.7577E+02
      2.342  0.1258E+03  0.8230E+02
      2.393  0.1316E+03  0.8913E+02
      2.445  0.1376E+03  0.9627E+02
      2.497  0.1473E+03  0.1039E+03
      2.549  0.1646E+03  0.1125E+03
      2.601  0.1831E+03  0.1220E+03
      2.653  0.1950E+03  0.1321E+03
      2.705  0.2070E+03  0.1428E+03
      2.757  0.2239E+03  0.1545E+03
      2.809  0.2307E+03  0.1664E+03
      2.861  0.2244E+03  0.1781E+03
      2.913  0.2279E+03  0.1899E+03
      2.964  0.2455E+03  0.2027E+03
      3.016  0.2581E+03  0.2160E+03
      3.068  0.2601E+03  0.2295E+03
      3.120  0.2606E+03  0.2431E+03
      3.172  0.2641E+03  0.2568E+03
      3.224  0.2732E+03  0.2710E+03
      3.276  0.2884E+03  0.2859E+03
      3.328  0.3077E+03  0.3019E+03
      3.380  0.3245E+03  0.3187E+03
      3.432  0.3308E+03  0.3359E+03
      3.483  0.3277E+03  0.3529E+03
      3.535  0.3213E+03  0.3696E+03
      3.587  0.3181E+03  0.3861E+03
      3.639  0.3165E+03  0.4025E+03
      3.691  0.3109E+03  0.4187E+03
      3.743  0.3050E+03  0.4345E+03
      3.795  0.3010E+03  0.4501E+03
      3.847  0.2968E+03  0.4655E+03
      3.899  0.2933E+03  0.4808E+03
      3.951  0.2884E+03  0.4957E+03
      4.003  0.2758E+03  0.5100E+03
      4.054  0.2664E+03  0.5239E+03
      4.106  0.2761E+03  0.5382E+03
      4.158  0.2945E+03  0.5535E+03
      4.210  0.3029E+03  0.5692E+03
      4.262  0.3052E+03  0.5851E+03
      4.314  0.3122E+03  0.6013E+03
      4.366  0.3188E+03  0.6178E+03
      4.418  0.3214E+03  0.6345E+03
      4.470  0.3236E+03  0.6513E+03
      4.522  0.3207E+03  0.6679E+03
      4.573  0.3093E+03  0.6840E+03
      4.625  0.2971E+03  0.6994E+03
      4.677  0.2935E+03  0.7146E+03
      4.729  0.2984E+03  0.7301E+03
      4.781  0.3062E+03  0.7460E+03
      4.833  0.3183E+03  0.7625E+03
      4.885  0.3318E+03  0.7798E+03
      4.937  0.3380E+03  0.7973E+03
      4.989  0.3455E+03  0.8152E+03
      5.041  0.3586E+03  0.8339E+03
      5.093  0.3658E+03  0.8528E+03
      5.144  0.3643E+03  0.8718E+03
      5.196  0.3547E+03  0.8902E+03
      5.248  0.3337E+03  0.9075E+03
      5.300  0.3011E+03  0.9231E+03
      5.352  0.2600E+03  0.9366E+03
      5.404  0.2169E+03  0.9479E+03
      5.456  0.1834E+03  0.9574E+03
      5.508  0.1724E+03  0.9663E+03
      5.560  0.1900E+03  0.9762E+03
      5.612  0.2289E+03  0.9881E+03
      5.663  0.2776E+03  0.1002E+04
      5.715  0.3277E+03  0.1019E+04
      5.767  0.3693E+03  0.1039E+04
      5.819  0.3962E+03  0.1059E+04
      5.871  0.4111E+03  0.1081E+04
      5.923  0.4197E+03  0.1102E+04
      5.975  0.4259E+03  0.1124E+04
      6.027  0.4278E+03  0.1147E+04
      6.079  0.4154E+03  0.1168E+04
      6.131  0.3909E+03  0.1189E+04
      6.183  0.3713E+03  0.1208E+04
      6.234  0.3608E+03  0.1227E+04
      6.286  0.3551E+03  0.1245E+04
      6.338  0.3566E+03  0.1263E+04
      6.390  0.3699E+03  0.1283E+04
      6.442  0.3822E+03  0.1302E+04
      6.494  0.3842E+03  0.1322E+04
      6.546  0.3920E+03  0.1343E+04
      6.598  0.4106E+03  0.1364E+04
      6.650  0.4244E+03  0.1386E+04
      6.702  0.4283E+03  0.1408E+04
      6.754  0.4249E+03  0.1430E+04
      6.805  0.4122E+03  0.1452E+04
      6.857  0.3909E+03  0.1472E+04
      6.909  0.3729E+03  0.1491E+04
      6.961  0.3665E+03  0.1510E+04
      7.013  0.3637E+03  0.1529E+04
      7.065  0.3687E+03  0.1548E+04
      7.117  0.3924E+03  0.1569E+04
      7.169  0.4154E+03  0.1590E+04
      7.221  0.4223E+03  0.1612E+04
      7.273  0.4223E+03  0.1634E+04
      7.324  0.4128E+03  0.1656E+04
      7.376  0.3868E+03  0.1676E+04
      7.428  0.3578E+03  0.1694E+04
      7.480  0.3395E+03  0.1712E+04
      7.532  0.3323E+03  0.1729E+04
      7.584  0.3283E+03  0.1746E+04
      7.636  0.3163E+03  0.1763E+04
      7.688  0.2949E+03  0.1778E+04
      7.740  0.2771E+03  0.1792E+04
      7.792  0.2685E+03  0.1806E+04
      7.844  0.2634E+03  0.1820E+04
      7.895  0.2571E+03  0.1833E+04
      7.947  0.2480E+03  0.1846E+04
      7.999  0.2428E+03  0.1859E+04
      8.051  0.2432E+03  0.1871E+04
      8.103  0.2389E+03  0.1884E+04
      8.155  0.2310E+03  0.1896E+04
      8.207  0.2291E+03  0.1908E+04
      8.259  0.2337E+03  0.1920E+04
      8.311  0.2378E+03  0.1932E+04
      8.363  0.2390E+03  0.1945E+04
      8.414  0.2366E+03  0.1957E+04
      8.466  0.2283E+03  0.1969E+04
      8.518  0.2181E+03  0.1980E+04
      8.570  0.2118E+03  0.1991E+04
      8.622  0.2068E+03  0.2002E+04
      8.674  0.1995E+03  0.2012E+04
      8.726  0.1911E+03  0.2022E+04
      8.778  0.1829E+03  0.2032E+04
      8.830  0.1795E+03  0.2041E+04
      8.882  0.1891E+03  0.2051E+04
      8.934  0.2145E+03  0.2062E+04
      8.985  0.2361E+03  0.2074E+04
      9.037  0.2360E+03  0.2086E+04
      9.089  0.2227E+03  0.2098E+04
      9.141  0.2054E+03  0.2108E+04
      9.193  0.1861E+03  0.2118E+04
      9.245  0.1792E+03  0.2127E+04
      9.297  0.1990E+03  0.2138E+04
      9.349  0.2298E+03  0.2150E+04
      9.401  0.2432E+03  0.2162E+04
      9.453  0.2429E+03  0.2175E+04
      9.504  0.2451E+03  0.2188E+04
      9.556  0.2442E+03  0.2200E+04
      9.608  0.2469E+03  0.2213E+04
      9.660  0.2767E+03  0.2228E+04
      9.712  0.3194E+03  0.2244E+04
      9.764  0.3354E+03  0.2262E+04
      9.816  0.3255E+03  0.2278E+04
      9.868  0.3163E+03  0.2295E+04
      9.920  0.3155E+03  0.2311E+04
      9.972  0.3225E+03  0.2328E+04
     10.024  0.3449E+03  0.2346E+04
     10.075  0.3821E+03  0.2366E+04
     10.127  0.4143E+03  0.2387E+04
     10.179  0.4290E+03  0.2409E+04
     10.231  0.4368E+03  0.2432E+04
     10.283  0.4497E+03  0.2455E+04
     10.335  0.4684E+03  0.2480E+04
     10.387  0.4869E+03  0.2505E+04
     10.439  0.4973E+03  0.2531E+04
     10.491  0.4883E+03  0.2556E+04
     10.543  0.4489E+03  0.2579E+04
     10.595  0.3874E+03  0.2600E+04
     10.646  0.3177E+03  0.2616E+04
     10.698  0.2328E+03  0.2628E+04
     10.750  0.1318E+03  0.2635E+04
     10.802  0.4504E+02  0.2637E+04
     10.854  0.1837E+01  0.2637E+04
     10.906 -0.5619E+01  0.2637E+04
     10.958 -0.2491E+01  0.2637E+04
     11.010 -0.5284E+00  0.2637E+04
     11.062 -0.6798E-01  0.2637E+04
     11.114 -0.5939E-02  0.2637E+04
     11.165 -0.3637E-03  0.2637E+04
     11.217 -0.1488E-04  0.2637E+04
     11.269 -0.3805E-06  0.2637E+04
     11.321 -0.5815E-08  0.2637E+04
     11.373 -0.5206E-10  0.2637E+04
     11.425 -0.1785E-11  0.2637E+04
     11.477 -0.2637E-09  0.2637E+04
     11.529 -0.2651E-07  0.2637E+04
     11.581 -0.1535E-05  0.2637E+04
     11.633 -0.5090E-04  0.2637E+04
     11.685 -0.9570E-03  0.2637E+04
     11.736 -0.9956E-02  0.2637E+04
     11.788 -0.5355E-01  0.2637E+04
     11.840 -0.1122E+00  0.2637E+04
     11.892  0.1651E+00  0.2637E+04
     11.944  0.1268E+01  0.2637E+04
     11.996  0.2419E+01  0.2637E+04
     12.048  0.2128E+01  0.2637E+04
     12.100  0.1083E+01  0.2637E+04
     12.152  0.7694E+00  0.2637E+04
     12.204  0.1232E+01  0.2637E+04
     12.255  0.2425E+01  0.2638E+04
     12.307  0.3773E+01  0.2638E+04
     12.359  0.3956E+01  0.2638E+04
     12.411  0.3085E+01  0.2638E+04
     12.463  0.2347E+01  0.2638E+04
     12.515  0.1964E+01  0.2638E+04
     12.567  0.2186E+01  0.2638E+04
     12.619  0.3089E+01  0.2639E+04
     12.671  0.4026E+01  0.2639E+04
     12.723  0.4230E+01  0.2639E+04
     12.775  0.3040E+01  0.2639E+04
     12.826  0.1892E+01  0.2639E+04
     12.878  0.2137E+01  0.2639E+04
     12.930  0.2375E+01  0.2640E+04
     12.982  0.1771E+01  0.2640E+04
     13.034  0.1189E+01  0.2640E+04
     13.086  0.8402E+00  0.2640E+04
     13.138  0.6682E+00  0.2640E+04
     13.190  0.8927E+00  0.2640E+04
     13.242  0.1161E+01  0.2640E+04
     13.294  0.1112E+01  0.2640E+04
     13.345  0.6748E+00  0.2640E+04
     13.397  0.1593E+00  0.2640E+04
     13.449 -0.4377E-01  0.2640E+04
     13.501 -0.3311E-01  0.2640E+04
     13.553 -0.7308E-02  0.2640E+04
     13.605 -0.7779E-03  0.2640E+04
     13.657 -0.4414E-04  0.2640E+04
     13.709 -0.1387E-05  0.2640E+04
     13.761 -0.2461E-07  0.2640E+04
     13.813 -0.2489E-09  0.2640E+04
     13.865 -0.1445E-11  0.2640E+04
     13.916 -0.4753E-14  0.2640E+04
     13.968  0.0000E+00  0.2640E+04
     14.020  0.0000E+00  0.2640E+04
     14.072  0.0000E+00  0.2640E+04
     14.124  0.0000E+00  0.2640E+04
     14.176  0.0000E+00  0.2640E+04
     14.228  0.0000E+00  0.2640E+04
     14.280  0.0000E+00  0.2640E+04
