 256 256   0   0
  0.1418917E+02  0.1588033E-08  0.1692661E-08  0.1693229E-08  0.5000000E-15
  1.000000000000000E-004
  CAR 
 Ir_Ru                                   
     14.26482980     -1.29177817  301      9.45685956      1.00000000
     -1.292  0.0000E+00  0.0000E+00
     -1.240  0.0000E+00  0.0000E+00
     -1.188  0.0000E+00  0.0000E+00
     -1.136 -0.2746E-30 -0.1424E-31
     -1.084 -0.1252E-26 -0.6496E-28
     -1.033 -0.3322E-23 -0.1723E-24
     -0.981 -0.5121E-20 -0.2657E-21
     -0.929 -0.4584E-17 -0.2380E-18
     -0.877 -0.2321E-14 -0.1206E-15
     -0.825 -0.6917E-12 -0.3599E-13
     -0.773 -0.1195E-09 -0.6231E-11
     -0.721 -0.1188E-07 -0.6222E-09
     -0.670 -0.6772E-06 -0.3574E-07
     -0.618 -0.2202E-04 -0.1177E-05
     -0.566 -0.4052E-03 -0.2219E-04
     -0.514 -0.4180E-02 -0.2389E-03
     -0.462 -0.2392E-01 -0.1479E-02
     -0.410 -0.7447E-01 -0.5341E-02
     -0.358 -0.1025E+00 -0.1066E-01
     -0.307  0.1968E+00 -0.4519E-03
     -0.255  0.1609E+01  0.8300E-01
     -0.203  0.4358E+01  0.3090E+00
     -0.151  0.6342E+01  0.6379E+00
     -0.099  0.6424E+01  0.9710E+00
     -0.047  0.6939E+01  0.1331E+01
      0.005  0.8820E+01  0.1788E+01
      0.056  0.1113E+02  0.2365E+01
      0.108  0.1357E+02  0.3069E+01
      0.160  0.1436E+02  0.3814E+01
      0.212  0.1176E+02  0.4424E+01
      0.264  0.1004E+02  0.4944E+01
      0.316  0.1412E+02  0.5676E+01
      0.368  0.2023E+02  0.6725E+01
      0.419  0.2248E+02  0.7891E+01
      0.471  0.2266E+02  0.9066E+01
      0.523  0.2347E+02  0.1028E+02
      0.575  0.2256E+02  0.1145E+02
      0.627  0.2043E+02  0.1251E+02
      0.679  0.2092E+02  0.1360E+02
      0.731  0.2049E+02  0.1466E+02
      0.782  0.1487E+02  0.1543E+02
      0.834  0.9069E+01  0.1590E+02
      0.886  0.8104E+01  0.1632E+02
      0.938  0.1169E+02  0.1693E+02
      0.990  0.1878E+02  0.1790E+02
      1.042  0.2766E+02  0.1933E+02
      1.094  0.3325E+02  0.2106E+02
      1.145  0.3308E+02  0.2277E+02
      1.197  0.2889E+02  0.2427E+02
      1.249  0.2293E+02  0.2546E+02
      1.301  0.1950E+02  0.2647E+02
      1.353  0.2157E+02  0.2759E+02
      1.405  0.2701E+02  0.2899E+02
      1.457  0.3030E+02  0.3056E+02
      1.508  0.2986E+02  0.3211E+02
      1.560  0.2933E+02  0.3363E+02
      1.612  0.3039E+02  0.3521E+02
      1.664  0.3115E+02  0.3682E+02
      1.716  0.3201E+02  0.3848E+02
      1.768  0.3489E+02  0.4029E+02
      1.820  0.3888E+02  0.4231E+02
      1.871  0.4507E+02  0.4465E+02
      1.923  0.5419E+02  0.4746E+02
      1.975  0.5928E+02  0.5053E+02
      2.027  0.5506E+02  0.5338E+02
      2.079  0.5044E+02  0.5600E+02
      2.131  0.6058E+02  0.5914E+02
      2.183  0.8551E+02  0.6358E+02
      2.234  0.1079E+03  0.6917E+02
      2.286  0.1193E+03  0.7535E+02
      2.338  0.1255E+03  0.8186E+02
      2.390  0.1312E+03  0.8866E+02
      2.442  0.1371E+03  0.9577E+02
      2.494  0.1465E+03  0.1034E+03
      2.546  0.1633E+03  0.1118E+03
      2.597  0.1821E+03  0.1213E+03
      2.649  0.1944E+03  0.1314E+03
      2.701  0.2058E+03  0.1420E+03
      2.753  0.2227E+03  0.1536E+03
      2.805  0.2309E+03  0.1656E+03
      2.857  0.2249E+03  0.1772E+03
      2.909  0.2270E+03  0.1890E+03
      2.960  0.2442E+03  0.2016E+03
      3.012  0.2578E+03  0.2150E+03
      3.064  0.2603E+03  0.2285E+03
      3.116  0.2606E+03  0.2420E+03
      3.168  0.2635E+03  0.2557E+03
      3.220  0.2719E+03  0.2698E+03
      3.271  0.2868E+03  0.2847E+03
      3.323  0.3063E+03  0.3006E+03
      3.375  0.3238E+03  0.3173E+03
      3.427  0.3309E+03  0.3345E+03
      3.479  0.3282E+03  0.3515E+03
      3.531  0.3216E+03  0.3682E+03
      3.583  0.3181E+03  0.3847E+03
      3.634  0.3166E+03  0.4011E+03
      3.686  0.3114E+03  0.4173E+03
      3.738  0.3054E+03  0.4331E+03
      3.790  0.3014E+03  0.4487E+03
      3.842  0.2972E+03  0.4641E+03
      3.894  0.2935E+03  0.4794E+03
      3.946  0.2891E+03  0.4943E+03
      3.997  0.2773E+03  0.5087E+03
      4.049  0.2668E+03  0.5226E+03
      4.101  0.2744E+03  0.5368E+03
      4.153  0.2929E+03  0.5520E+03
      4.205  0.3025E+03  0.5677E+03
      4.257  0.3048E+03  0.5835E+03
      4.309  0.3114E+03  0.5996E+03
      4.360  0.3183E+03  0.6161E+03
      4.412  0.3211E+03  0.6328E+03
      4.464  0.3235E+03  0.6495E+03
      4.516  0.3217E+03  0.6662E+03
      4.568  0.3107E+03  0.6823E+03
      4.620  0.2980E+03  0.6978E+03
      4.672  0.2933E+03  0.7130E+03
      4.723  0.2975E+03  0.7284E+03
      4.775  0.3051E+03  0.7442E+03
      4.827  0.3166E+03  0.7607E+03
      4.879  0.3305E+03  0.7778E+03
      4.931  0.3375E+03  0.7953E+03
      4.983  0.3444E+03  0.8132E+03
      5.035  0.3573E+03  0.8317E+03
      5.086  0.3653E+03  0.8506E+03
      5.138  0.3644E+03  0.8695E+03
      5.190  0.3560E+03  0.8880E+03
      5.242  0.3368E+03  0.9055E+03
      5.294  0.3056E+03  0.9213E+03
      5.346  0.2652E+03  0.9351E+03
      5.398  0.2219E+03  0.9466E+03
      5.449  0.1867E+03  0.9562E+03
      5.501  0.1725E+03  0.9652E+03
      5.553  0.1866E+03  0.9749E+03
      5.605  0.2232E+03  0.9864E+03
      5.657  0.2710E+03  0.1000E+04
      5.709  0.3214E+03  0.1017E+04
      5.761  0.3645E+03  0.1036E+04
      5.812  0.3931E+03  0.1056E+04
      5.864  0.4092E+03  0.1078E+04
      5.916  0.4187E+03  0.1099E+04
      5.968  0.4255E+03  0.1121E+04
      6.020  0.4286E+03  0.1144E+04
      6.072  0.4183E+03  0.1165E+04
      6.124  0.3944E+03  0.1186E+04
      6.175  0.3734E+03  0.1205E+04
      6.227  0.3620E+03  0.1224E+04
      6.279  0.3558E+03  0.1242E+04
      6.331  0.3558E+03  0.1261E+04
      6.383  0.3677E+03  0.1280E+04
      6.435  0.3813E+03  0.1300E+04
      6.487  0.3842E+03  0.1320E+04
      6.538  0.3901E+03  0.1340E+04
      6.590  0.4078E+03  0.1361E+04
      6.642  0.4230E+03  0.1383E+04
      6.694  0.4281E+03  0.1405E+04
      6.746  0.4259E+03  0.1427E+04
      6.798  0.4150E+03  0.1449E+04
      6.850  0.3944E+03  0.1469E+04
      6.901  0.3749E+03  0.1489E+04
      6.953  0.3669E+03  0.1508E+04
      7.005  0.3639E+03  0.1527E+04
      7.057  0.3667E+03  0.1546E+04
      7.109  0.3881E+03  0.1566E+04
      7.161  0.4130E+03  0.1587E+04
      7.213  0.4221E+03  0.1609E+04
      7.264  0.4226E+03  0.1631E+04
      7.316  0.4153E+03  0.1652E+04
      7.368  0.3914E+03  0.1673E+04
      7.420  0.3617E+03  0.1691E+04
      7.472  0.3416E+03  0.1709E+04
      7.524  0.3329E+03  0.1726E+04
      7.575  0.3293E+03  0.1744E+04
      7.627  0.3191E+03  0.1760E+04
      7.679  0.2983E+03  0.1776E+04
      7.731  0.2790E+03  0.1790E+04
      7.783  0.2694E+03  0.1804E+04
      7.835  0.2643E+03  0.1818E+04
      7.887  0.2585E+03  0.1831E+04
      7.938  0.2495E+03  0.1844E+04
      7.990  0.2431E+03  0.1857E+04
      8.042  0.2432E+03  0.1869E+04
      8.094  0.2402E+03  0.1882E+04
      8.146  0.2323E+03  0.1894E+04
      8.198  0.2289E+03  0.1906E+04
      8.250  0.2327E+03  0.1918E+04
      8.301  0.2374E+03  0.1930E+04
      8.353  0.2391E+03  0.1942E+04
      8.405  0.2376E+03  0.1955E+04
      8.457  0.2301E+03  0.1967E+04
      8.509  0.2197E+03  0.1978E+04
      8.561  0.2127E+03  0.1989E+04
      8.613  0.2079E+03  0.2000E+04
      8.664  0.2009E+03  0.2010E+04
      8.716  0.1925E+03  0.2020E+04
      8.768  0.1842E+03  0.2030E+04
      8.820  0.1795E+03  0.2039E+04
      8.872  0.1860E+03  0.2049E+04
      8.924  0.2090E+03  0.2060E+04
      8.976  0.2334E+03  0.2072E+04
      9.027  0.2374E+03  0.2084E+04
      9.079  0.2256E+03  0.2096E+04
      9.131  0.2090E+03  0.2107E+04
      9.183  0.1897E+03  0.2116E+04
      9.235  0.1787E+03  0.2126E+04
      9.287  0.1933E+03  0.2136E+04
      9.339  0.2244E+03  0.2147E+04
      9.390  0.2423E+03  0.2160E+04
      9.442  0.2431E+03  0.2172E+04
      9.494  0.2446E+03  0.2185E+04
      9.546  0.2448E+03  0.2198E+04
      9.598  0.2447E+03  0.2211E+04
      9.650  0.2685E+03  0.2224E+04
      9.702  0.3121E+03  0.2241E+04
      9.753  0.3352E+03  0.2258E+04
      9.805  0.3283E+03  0.2275E+04
      9.857  0.3173E+03  0.2291E+04
      9.909  0.3149E+03  0.2308E+04
      9.961  0.3200E+03  0.2324E+04
     10.013  0.3386E+03  0.2342E+04
     10.065  0.3740E+03  0.2361E+04
     10.116  0.4092E+03  0.2383E+04
     10.168  0.4272E+03  0.2405E+04
     10.220  0.4348E+03  0.2427E+04
     10.272  0.4461E+03  0.2450E+04
     10.324  0.4638E+03  0.2474E+04
     10.376  0.4822E+03  0.2499E+04
     10.428  0.4938E+03  0.2525E+04
     10.479  0.4893E+03  0.2550E+04
     10.531  0.4569E+03  0.2574E+04
     10.583  0.4001E+03  0.2595E+04
     10.635  0.3343E+03  0.2612E+04
     10.687  0.2559E+03  0.2625E+04
     10.739  0.1583E+03  0.2634E+04
     10.791  0.6513E+02  0.2637E+04
     10.842  0.9995E+01  0.2638E+04
     10.894 -0.5005E+01  0.2637E+04
     10.946 -0.3336E+01  0.2637E+04
     10.998 -0.9017E+00  0.2637E+04
     11.050 -0.1438E+00  0.2637E+04
     11.102 -0.1508E-01  0.2637E+04
     11.154 -0.1064E-02  0.2637E+04
     11.205 -0.4900E-04  0.2637E+04
     11.257 -0.1408E-05  0.2637E+04
     11.309 -0.2439E-07  0.2637E+04
     11.361 -0.2502E-09  0.2637E+04
     11.413 -0.1511E-11  0.2637E+04
     11.465 -0.2227E-11  0.2637E+04
     11.516 -0.3885E-09  0.2637E+04
     11.568 -0.3909E-07  0.2637E+04
     11.620 -0.2251E-05  0.2637E+04
     11.672 -0.7345E-04  0.2637E+04
     11.724 -0.1335E-02  0.2637E+04
     11.776 -0.1305E-01  0.2637E+04
     11.828 -0.6266E-01  0.2637E+04
     11.879 -0.9690E-01  0.2637E+04
     11.931  0.2774E+00  0.2637E+04
     11.983  0.1343E+01  0.2637E+04
     12.035  0.2237E+01  0.2637E+04
     12.087  0.2129E+01  0.2637E+04
     12.139  0.1496E+01  0.2637E+04
     12.191  0.9987E+00  0.2638E+04
     12.242  0.1221E+01  0.2638E+04
     12.294  0.2208E+01  0.2638E+04
     12.346  0.3260E+01  0.2638E+04
     12.398  0.3920E+01  0.2638E+04
     12.450  0.3498E+01  0.2638E+04
     12.502  0.2149E+01  0.2638E+04
     12.554  0.1744E+01  0.2638E+04
     12.605  0.2425E+01  0.2639E+04
     12.657  0.2991E+01  0.2639E+04
     12.709  0.3778E+01  0.2639E+04
     12.761  0.3969E+01  0.2639E+04
     12.813  0.2984E+01  0.2639E+04
     12.865  0.2469E+01  0.2639E+04
     12.917  0.2296E+01  0.2640E+04
     12.968  0.1611E+01  0.2640E+04
     13.020  0.1101E+01  0.2640E+04
     13.072  0.9601E+00  0.2640E+04
     13.124  0.8758E+00  0.2640E+04
     13.176  0.9813E+00  0.2640E+04
     13.228  0.1146E+01  0.2640E+04
     13.280  0.1086E+01  0.2640E+04
     13.331  0.6600E+00  0.2640E+04
     13.383  0.1535E+00  0.2640E+04
     13.435 -0.4413E-01  0.2640E+04
     13.487 -0.3251E-01  0.2640E+04
     13.539 -0.7109E-02  0.2640E+04
     13.591 -0.7518E-03  0.2640E+04
     13.643 -0.4245E-04  0.2640E+04
     13.694 -0.1330E-05  0.2640E+04
     13.746 -0.2353E-07  0.2640E+04
     13.798 -0.2377E-09  0.2640E+04
     13.850 -0.1380E-11  0.2640E+04
     13.902 -0.4758E-14  0.2640E+04
     13.954  0.0000E+00  0.2640E+04
     14.006  0.0000E+00  0.2640E+04
     14.057  0.0000E+00  0.2640E+04
     14.109  0.0000E+00  0.2640E+04
     14.161  0.0000E+00  0.2640E+04
     14.213  0.0000E+00  0.2640E+04
     14.265  0.0000E+00  0.2640E+04
