 256 256   0   0
  0.1418917E+02  0.1588033E-08  0.1692661E-08  0.1693229E-08  0.5000000E-15
  1.000000000000000E-004
  CAR 
 Ir_Ru                                   
     14.27615904     -1.29174737  301      9.45694464      1.00000000
     -1.292  0.0000E+00  0.0000E+00
     -1.240  0.0000E+00  0.0000E+00
     -1.188  0.0000E+00  0.0000E+00
     -1.136 -0.2797E-30 -0.1451E-31
     -1.084 -0.1281E-26 -0.6651E-28
     -1.032 -0.3413E-23 -0.1772E-24
     -0.980 -0.5278E-20 -0.2741E-21
     -0.928 -0.4736E-17 -0.2460E-18
     -0.877 -0.2404E-14 -0.1250E-15
     -0.825 -0.7162E-12 -0.3729E-13
     -0.773 -0.1237E-09 -0.6455E-11
     -0.721 -0.1229E-07 -0.6440E-09
     -0.669 -0.6993E-06 -0.3693E-07
     -0.617 -0.2268E-04 -0.1214E-05
     -0.565 -0.4159E-03 -0.2279E-04
     -0.513 -0.4272E-02 -0.2445E-03
     -0.461 -0.2432E-01 -0.1506E-02
     -0.410 -0.7521E-01 -0.5409E-02
     -0.358 -0.1019E+00 -0.1070E-01
     -0.306  0.2064E+00  0.1148E-04
     -0.254  0.1641E+01  0.8518E-01
     -0.202  0.4401E+01  0.3136E+00
     -0.150  0.6355E+01  0.6433E+00
     -0.098  0.6422E+01  0.9766E+00
     -0.046  0.6963E+01  0.1338E+01
      0.006  0.8860E+01  0.1798E+01
      0.057  0.1118E+02  0.2378E+01
      0.109  0.1361E+02  0.3084E+01
      0.161  0.1434E+02  0.3829E+01
      0.213  0.1170E+02  0.4436E+01
      0.265  0.1007E+02  0.4958E+01
      0.317  0.1427E+02  0.5698E+01
      0.369  0.2034E+02  0.6754E+01
      0.421  0.2252E+02  0.7923E+01
      0.473  0.2271E+02  0.9101E+01
      0.525  0.2351E+02  0.1032E+02
      0.576  0.2252E+02  0.1149E+02
      0.628  0.2044E+02  0.1255E+02
      0.680  0.2100E+02  0.1364E+02
      0.732  0.2037E+02  0.1470E+02
      0.784  0.1458E+02  0.1545E+02
      0.836  0.8862E+01  0.1591E+02
      0.888  0.8018E+01  0.1633E+02
      0.940  0.1171E+02  0.1694E+02
      0.992  0.1893E+02  0.1792E+02
      1.043  0.2787E+02  0.1937E+02
      1.095  0.3335E+02  0.2110E+02
      1.147  0.3306E+02  0.2281E+02
      1.199  0.2881E+02  0.2431E+02
      1.251  0.2283E+02  0.2549E+02
      1.303  0.1947E+02  0.2650E+02
      1.355  0.2167E+02  0.2763E+02
      1.407  0.2717E+02  0.2904E+02
      1.459  0.3035E+02  0.3061E+02
      1.510  0.2983E+02  0.3216E+02
      1.562  0.2935E+02  0.3368E+02
      1.614  0.3043E+02  0.3526E+02
      1.666  0.3112E+02  0.3688E+02
      1.718  0.3201E+02  0.3854E+02
      1.770  0.3502E+02  0.4036E+02
      1.822  0.3912E+02  0.4239E+02
      1.874  0.4550E+02  0.4475E+02
      1.926  0.5463E+02  0.4758E+02
      1.978  0.5931E+02  0.5066E+02
      2.029  0.5474E+02  0.5350E+02
      2.081  0.5047E+02  0.5612E+02
      2.133  0.6147E+02  0.5931E+02
      2.185  0.8673E+02  0.6381E+02
      2.237  0.1086E+03  0.6945E+02
      2.289  0.1197E+03  0.7566E+02
      2.341  0.1258E+03  0.8219E+02
      2.393  0.1315E+03  0.8901E+02
      2.445  0.1376E+03  0.9615E+02
      2.496  0.1472E+03  0.1038E+03
      2.548  0.1644E+03  0.1123E+03
      2.600  0.1828E+03  0.1218E+03
      2.652  0.1947E+03  0.1319E+03
      2.704  0.2066E+03  0.1426E+03
      2.756  0.2236E+03  0.1542E+03
      2.808  0.2307E+03  0.1662E+03
      2.860  0.2245E+03  0.1779E+03
      2.912  0.2276E+03  0.1897E+03
      2.963  0.2450E+03  0.2024E+03
      3.015  0.2579E+03  0.2158E+03
      3.067  0.2601E+03  0.2293E+03
      3.119  0.2606E+03  0.2428E+03
      3.171  0.2640E+03  0.2565E+03
      3.223  0.2729E+03  0.2706E+03
      3.275  0.2880E+03  0.2856E+03
      3.327  0.3074E+03  0.3015E+03
      3.379  0.3245E+03  0.3184E+03
      3.431  0.3310E+03  0.3356E+03
      3.482  0.3280E+03  0.3526E+03
      3.534  0.3215E+03  0.3693E+03
      3.586  0.3183E+03  0.3858E+03
      3.638  0.3167E+03  0.4022E+03
      3.690  0.3112E+03  0.4184E+03
      3.742  0.3051E+03  0.4342E+03
      3.794  0.3010E+03  0.4498E+03
      3.846  0.2968E+03  0.4652E+03
      3.898  0.2933E+03  0.4804E+03
      3.949  0.2885E+03  0.4954E+03
      4.001  0.2760E+03  0.5097E+03
      4.053  0.2663E+03  0.5236E+03
      4.105  0.2755E+03  0.5379E+03
      4.157  0.2942E+03  0.5531E+03
      4.209  0.3029E+03  0.5688E+03
      4.261  0.3052E+03  0.5847E+03
      4.313  0.3120E+03  0.6009E+03
      4.365  0.3185E+03  0.6174E+03
      4.416  0.3212E+03  0.6341E+03
      4.468  0.3238E+03  0.6509E+03
      4.520  0.3212E+03  0.6675E+03
      4.572  0.3096E+03  0.6836E+03
      4.624  0.2971E+03  0.6990E+03
      4.676  0.2934E+03  0.7143E+03
      4.728  0.2982E+03  0.7297E+03
      4.780  0.3059E+03  0.7456E+03
      4.832  0.3179E+03  0.7621E+03
      4.884  0.3315E+03  0.7793E+03
      4.935  0.3378E+03  0.7968E+03
      4.987  0.3452E+03  0.8147E+03
      5.039  0.3584E+03  0.8333E+03
      5.091  0.3659E+03  0.8523E+03
      5.143  0.3645E+03  0.8712E+03
      5.195  0.3551E+03  0.8897E+03
      5.247  0.3344E+03  0.9070E+03
      5.299  0.3020E+03  0.9227E+03
      5.351  0.2610E+03  0.9362E+03
      5.402  0.2178E+03  0.9475E+03
      5.454  0.1841E+03  0.9571E+03
      5.506  0.1725E+03  0.9660E+03
      5.558  0.1893E+03  0.9759E+03
      5.610  0.2277E+03  0.9877E+03
      5.662  0.2761E+03  0.1002E+04
      5.714  0.3262E+03  0.1019E+04
      5.766  0.3681E+03  0.1038E+04
      5.818  0.3955E+03  0.1059E+04
      5.869  0.4106E+03  0.1080E+04
      5.921  0.4192E+03  0.1102E+04
      5.973  0.4258E+03  0.1124E+04
      6.025  0.4283E+03  0.1146E+04
      6.077  0.4163E+03  0.1168E+04
      6.129  0.3918E+03  0.1188E+04
      6.181  0.3717E+03  0.1207E+04
      6.233  0.3611E+03  0.1226E+04
      6.285  0.3553E+03  0.1244E+04
      6.337  0.3564E+03  0.1263E+04
      6.388  0.3693E+03  0.1282E+04
      6.440  0.3820E+03  0.1302E+04
      6.492  0.3843E+03  0.1322E+04
      6.544  0.3916E+03  0.1342E+04
      6.596  0.4100E+03  0.1363E+04
      6.648  0.4241E+03  0.1385E+04
      6.700  0.4282E+03  0.1408E+04
      6.752  0.4252E+03  0.1430E+04
      6.804  0.4130E+03  0.1451E+04
      6.855  0.3919E+03  0.1471E+04
      6.907  0.3732E+03  0.1491E+04
      6.959  0.3664E+03  0.1510E+04
      7.011  0.3636E+03  0.1529E+04
      7.063  0.3683E+03  0.1548E+04
      7.115  0.3916E+03  0.1568E+04
      7.167  0.4150E+03  0.1590E+04
      7.219  0.4222E+03  0.1612E+04
      7.271  0.4223E+03  0.1633E+04
      7.322  0.4133E+03  0.1655E+04
      7.374  0.3878E+03  0.1675E+04
      7.426  0.3586E+03  0.1694E+04
      7.478  0.3401E+03  0.1711E+04
      7.530  0.3326E+03  0.1729E+04
      7.582  0.3287E+03  0.1746E+04
      7.634  0.3169E+03  0.1762E+04
      7.686  0.2955E+03  0.1777E+04
      7.738  0.2773E+03  0.1792E+04
      7.790  0.2687E+03  0.1806E+04
      7.841  0.2638E+03  0.1819E+04
      7.893  0.2576E+03  0.1833E+04
      7.945  0.2483E+03  0.1846E+04
      7.997  0.2428E+03  0.1858E+04
      8.049  0.2432E+03  0.1871E+04
      8.101  0.2392E+03  0.1883E+04
      8.153  0.2312E+03  0.1895E+04
      8.205  0.2289E+03  0.1907E+04
      8.257  0.2335E+03  0.1919E+04
      8.308  0.2379E+03  0.1932E+04
      8.360  0.2391E+03  0.1944E+04
      8.412  0.2368E+03  0.1956E+04
      8.464  0.2286E+03  0.1968E+04
      8.516  0.2185E+03  0.1980E+04
      8.568  0.2122E+03  0.1991E+04
      8.620  0.2072E+03  0.2001E+04
      8.672  0.1997E+03  0.2012E+04
      8.724  0.1912E+03  0.2022E+04
      8.775  0.1831E+03  0.2031E+04
      8.827  0.1795E+03  0.2040E+04
      8.879  0.1883E+03  0.2050E+04
      8.931  0.2132E+03  0.2061E+04
      8.983  0.2355E+03  0.2073E+04
      9.035  0.2363E+03  0.2086E+04
      9.087  0.2233E+03  0.2097E+04
      9.139  0.2063E+03  0.2108E+04
      9.191  0.1870E+03  0.2118E+04
      9.243  0.1789E+03  0.2127E+04
      9.294  0.1975E+03  0.2137E+04
      9.346  0.2285E+03  0.2149E+04
      9.398  0.2431E+03  0.2162E+04
      9.450  0.2429E+03  0.2174E+04
      9.502  0.2449E+03  0.2187E+04
      9.554  0.2443E+03  0.2200E+04
      9.606  0.2463E+03  0.2213E+04
      9.658  0.2747E+03  0.2227E+04
      9.710  0.3177E+03  0.2243E+04
      9.761  0.3356E+03  0.2261E+04
      9.813  0.3262E+03  0.2278E+04
      9.865  0.3165E+03  0.2294E+04
      9.917  0.3154E+03  0.2310E+04
      9.969  0.3219E+03  0.2327E+04
     10.021  0.3433E+03  0.2345E+04
     10.073  0.3802E+03  0.2365E+04
     10.125  0.4132E+03  0.2386E+04
     10.177  0.4285E+03  0.2408E+04
     10.229  0.4361E+03  0.2431E+04
     10.280  0.4487E+03  0.2454E+04
     10.332  0.4673E+03  0.2478E+04
     10.384  0.4862E+03  0.2504E+04
     10.436  0.4973E+03  0.2530E+04
     10.488  0.4898E+03  0.2555E+04
     10.540  0.4521E+03  0.2578E+04
     10.592  0.3911E+03  0.2599E+04
     10.644  0.3216E+03  0.2615E+04
     10.696  0.2375E+03  0.2628E+04
     10.747  0.1366E+03  0.2635E+04
     10.799  0.4835E+02  0.2637E+04
     10.851  0.2970E+01  0.2637E+04
     10.903 -0.5620E+01  0.2637E+04
     10.955 -0.2327E+01  0.2637E+04
     11.007  0.2260E+00  0.2637E+04
     11.059  0.7416E+00  0.2637E+04
     11.111  0.3184E+00  0.2637E+04
     11.163 -0.5762E-02  0.2637E+04
     11.214 -0.4083E-01  0.2637E+04
     11.266 -0.1202E-01  0.2637E+04
     11.318 -0.1562E-02  0.2637E+04
     11.370 -0.1057E-03  0.2637E+04
     11.422 -0.3930E-05  0.2637E+04
     11.474 -0.4500E-06  0.2637E+04
     11.526 -0.1428E-04  0.2637E+04
     11.578 -0.3093E-03  0.2637E+04
     11.630 -0.3635E-02  0.2637E+04
     11.682 -0.2169E-01  0.2637E+04
     11.733 -0.5229E-01  0.2637E+04
     11.785  0.3559E-01  0.2637E+04
     11.837  0.4323E+00  0.2637E+04
     11.889  0.1008E+01  0.2637E+04
     11.941  0.1590E+01  0.2637E+04
     11.993  0.1883E+01  0.2637E+04
     12.045  0.1291E+01  0.2637E+04
     12.097  0.5512E+00  0.2637E+04
     12.149  0.6093E+00  0.2637E+04
     12.200  0.9560E+00  0.2638E+04
     12.252  0.1484E+01  0.2638E+04
     12.304  0.2516E+01  0.2638E+04
     12.356  0.3348E+01  0.2638E+04
     12.408  0.3397E+01  0.2638E+04
     12.460  0.2940E+01  0.2638E+04
     12.512  0.2553E+01  0.2638E+04
     12.564  0.2631E+01  0.2639E+04
     12.616  0.2709E+01  0.2639E+04
     12.667  0.3011E+01  0.2639E+04
     12.719  0.3816E+01  0.2639E+04
     12.771  0.3483E+01  0.2639E+04
     12.823  0.2286E+01  0.2639E+04
     12.875  0.2232E+01  0.2639E+04
     12.927  0.2593E+01  0.2640E+04
     12.979  0.2091E+01  0.2640E+04
     13.031  0.1281E+01  0.2640E+04
     13.083  0.6578E+00  0.2640E+04
     13.135  0.5029E+00  0.2640E+04
     13.186  0.8608E+00  0.2640E+04
     13.238  0.1155E+01  0.2640E+04
     13.290  0.1099E+01  0.2640E+04
     13.342  0.6697E+00  0.2640E+04
     13.394  0.1591E+00  0.2640E+04
     13.446 -0.4330E-01  0.2640E+04
     13.498 -0.3288E-01  0.2640E+04
     13.550 -0.7252E-02  0.2640E+04
     13.602 -0.7711E-03  0.2640E+04
     13.653 -0.4371E-04  0.2640E+04
     13.705 -0.1373E-05  0.2640E+04
     13.757 -0.2434E-07  0.2640E+04
     13.809 -0.2461E-09  0.2640E+04
     13.861 -0.1429E-11  0.2640E+04
     13.913 -0.4754E-14  0.2640E+04
     13.965  0.0000E+00  0.2640E+04
     14.017  0.0000E+00  0.2640E+04
     14.069  0.0000E+00  0.2640E+04
     14.120  0.0000E+00  0.2640E+04
     14.172  0.0000E+00  0.2640E+04
     14.224  0.0000E+00  0.2640E+04
     14.276  0.0000E+00  0.2640E+04
