 256 256   0   0
  0.1418917E+02  0.1588033E-08  0.1692661E-08  0.1693229E-08  0.5000000E-15
  1.000000000000000E-004
  CAR 
 Ir_Ru                                   
     14.29166382     -1.29207273  301      9.45700441      1.00000000
     -1.292  0.0000E+00  0.0000E+00
     -1.240  0.0000E+00  0.0000E+00
     -1.188  0.0000E+00  0.0000E+00
     -1.136 -0.2869E-30 -0.1490E-31
     -1.084 -0.1323E-26 -0.6876E-28
     -1.032 -0.3544E-23 -0.1842E-24
     -0.980 -0.5505E-20 -0.2861E-21
     -0.928 -0.4956E-17 -0.2577E-18
     -0.877 -0.2524E-14 -0.1314E-15
     -0.825 -0.7519E-12 -0.3919E-13
     -0.773 -0.1298E-09 -0.6783E-11
     -0.721 -0.1288E-07 -0.6759E-09
     -0.669 -0.7314E-06 -0.3867E-07
     -0.617 -0.2363E-04 -0.1266E-05
     -0.565 -0.4313E-03 -0.2367E-04
     -0.513 -0.4403E-02 -0.2524E-03
     -0.461 -0.2488E-01 -0.1545E-02
     -0.409 -0.7623E-01 -0.5505E-02
     -0.357 -0.1010E+00 -0.1075E-01
     -0.305  0.2200E+00  0.6807E-03
     -0.253  0.1687E+01  0.8830E-01
     -0.201  0.4461E+01  0.3200E+00
     -0.149  0.6372E+01  0.6510E+00
     -0.097  0.6420E+01  0.9845E+00
     -0.045  0.6998E+01  0.1348E+01
      0.007  0.8919E+01  0.1811E+01
      0.059  0.1125E+02  0.2396E+01
      0.110  0.1367E+02  0.3106E+01
      0.162  0.1431E+02  0.3849E+01
      0.214  0.1160E+02  0.4451E+01
      0.266  0.1011E+02  0.4977E+01
      0.318  0.1450E+02  0.5730E+01
      0.370  0.2050E+02  0.6795E+01
      0.422  0.2253E+02  0.7965E+01
      0.474  0.2272E+02  0.9145E+01
      0.526  0.2352E+02  0.1037E+02
      0.578  0.2244E+02  0.1153E+02
      0.630  0.2042E+02  0.1259E+02
      0.682  0.2105E+02  0.1369E+02
      0.734  0.2023E+02  0.1474E+02
      0.786  0.1429E+02  0.1548E+02
      0.838  0.8706E+01  0.1593E+02
      0.890  0.8081E+01  0.1635E+02
      0.942  0.1193E+02  0.1697E+02
      0.994  0.1927E+02  0.1797E+02
      1.045  0.2821E+02  0.1944E+02
      1.097  0.3348E+02  0.2118E+02
      1.149  0.3297E+02  0.2289E+02
      1.201  0.2856E+02  0.2437E+02
      1.253  0.2258E+02  0.2555E+02
      1.305  0.1946E+02  0.2656E+02
      1.357  0.2191E+02  0.2770E+02
      1.409  0.2743E+02  0.2912E+02
      1.461  0.3041E+02  0.3070E+02
      1.513  0.2979E+02  0.3225E+02
      1.565  0.2936E+02  0.3377E+02
      1.617  0.3046E+02  0.3536E+02
      1.669  0.3112E+02  0.3697E+02
      1.721  0.3214E+02  0.3864E+02
      1.773  0.3522E+02  0.4047E+02
      1.825  0.3937E+02  0.4252E+02
      1.877  0.4600E+02  0.4491E+02
      1.929  0.5519E+02  0.4777E+02
      1.981  0.5932E+02  0.5085E+02
      2.032  0.5430E+02  0.5367E+02
      2.084  0.5062E+02  0.5630E+02
      2.136  0.6292E+02  0.5957E+02
      2.188  0.8860E+02  0.6417E+02
      2.240  0.1098E+03  0.6988E+02
      2.292  0.1202E+03  0.7612E+02
      2.344  0.1261E+03  0.8267E+02
      2.396  0.1319E+03  0.8952E+02
      2.448  0.1380E+03  0.9669E+02
      2.500  0.1481E+03  0.1044E+03
      2.552  0.1658E+03  0.1130E+03
      2.604  0.1841E+03  0.1226E+03
      2.656  0.1957E+03  0.1327E+03
      2.708  0.2080E+03  0.1435E+03
      2.760  0.2249E+03  0.1552E+03
      2.812  0.2305E+03  0.1672E+03
      2.864  0.2241E+03  0.1788E+03
      2.916  0.2287E+03  0.1907E+03
      2.967  0.2467E+03  0.2035E+03
      3.019  0.2585E+03  0.2170E+03
      3.071  0.2599E+03  0.2305E+03
      3.123  0.2605E+03  0.2440E+03
      3.175  0.2644E+03  0.2577E+03
      3.227  0.2740E+03  0.2719E+03
      3.279  0.2895E+03  0.2870E+03
      3.331  0.3090E+03  0.3030E+03
      3.383  0.3253E+03  0.3199E+03
      3.435  0.3306E+03  0.3371E+03
      3.487  0.3271E+03  0.3541E+03
      3.539  0.3209E+03  0.3708E+03
      3.591  0.3180E+03  0.3873E+03
      3.643  0.3160E+03  0.4037E+03
      3.695  0.3102E+03  0.4198E+03
      3.747  0.3047E+03  0.4356E+03
      3.799  0.3008E+03  0.4513E+03
      3.851  0.2964E+03  0.4667E+03
      3.903  0.2929E+03  0.4819E+03
      3.954  0.2877E+03  0.4968E+03
      4.006  0.2748E+03  0.5111E+03
      4.058  0.2665E+03  0.5250E+03
      4.110  0.2775E+03  0.5394E+03
      4.162  0.2956E+03  0.5547E+03
      4.214  0.3029E+03  0.5705E+03
      4.266  0.3056E+03  0.5863E+03
      4.318  0.3131E+03  0.6026E+03
      4.370  0.3193E+03  0.6192E+03
      4.422  0.3215E+03  0.6359E+03
      4.474  0.3236E+03  0.6527E+03
      4.526  0.3200E+03  0.6693E+03
      4.578  0.3079E+03  0.6853E+03
      4.630  0.2963E+03  0.7007E+03
      4.682  0.2938E+03  0.7160E+03
      4.734  0.2991E+03  0.7315E+03
      4.786  0.3069E+03  0.7474E+03
      4.838  0.3195E+03  0.7640E+03
      4.889  0.3326E+03  0.7813E+03
      4.941  0.3383E+03  0.7989E+03
      4.993  0.3464E+03  0.8169E+03
      5.045  0.3595E+03  0.8355E+03
      5.097  0.3658E+03  0.8545E+03
      5.149  0.3635E+03  0.8734E+03
      5.201  0.3531E+03  0.8918E+03
      5.253  0.3310E+03  0.9090E+03
      5.305  0.2973E+03  0.9244E+03
      5.357  0.2557E+03  0.9377E+03
      5.409  0.2132E+03  0.9488E+03
      5.461  0.1818E+03  0.9582E+03
      5.513  0.1735E+03  0.9672E+03
      5.565  0.1935E+03  0.9773E+03
      5.617  0.2336E+03  0.9894E+03
      5.669  0.2828E+03  0.1004E+04
      5.721  0.3323E+03  0.1021E+04
      5.773  0.3725E+03  0.1041E+04
      5.825  0.3978E+03  0.1061E+04
      5.876  0.4116E+03  0.1083E+04
      5.928  0.4198E+03  0.1105E+04
      5.980  0.4264E+03  0.1127E+04
      6.032  0.4276E+03  0.1149E+04
      6.084  0.4134E+03  0.1170E+04
      6.136  0.3886E+03  0.1191E+04
      6.188  0.3700E+03  0.1210E+04
      6.240  0.3603E+03  0.1229E+04
      6.292  0.3551E+03  0.1247E+04
      6.344  0.3578E+03  0.1266E+04
      6.396  0.3717E+03  0.1285E+04
      6.448  0.3828E+03  0.1305E+04
      6.500  0.3845E+03  0.1325E+04
      6.552  0.3938E+03  0.1345E+04
      6.604  0.4126E+03  0.1367E+04
      6.656  0.4251E+03  0.1389E+04
      6.708  0.4279E+03  0.1411E+04
      6.760  0.4238E+03  0.1433E+04
      6.811  0.4102E+03  0.1454E+04
      6.863  0.3885E+03  0.1474E+04
      6.915  0.3714E+03  0.1494E+04
      6.967  0.3659E+03  0.1513E+04
      7.019  0.3636E+03  0.1532E+04
      7.071  0.3709E+03  0.1551E+04
      7.123  0.3959E+03  0.1571E+04
      7.175  0.4170E+03  0.1593E+04
      7.227  0.4224E+03  0.1615E+04
      7.279  0.4217E+03  0.1637E+04
      7.331  0.4100E+03  0.1658E+04
      7.383  0.3826E+03  0.1678E+04
      7.435  0.3547E+03  0.1697E+04
      7.487  0.3382E+03  0.1714E+04
      7.539  0.3318E+03  0.1731E+04
      7.591  0.3274E+03  0.1748E+04
      7.643  0.3139E+03  0.1765E+04
      7.695  0.2921E+03  0.1780E+04
      7.746  0.2755E+03  0.1794E+04
      7.798  0.2678E+03  0.1808E+04
      7.850  0.2628E+03  0.1822E+04
      7.902  0.2561E+03  0.1835E+04
      7.954  0.2469E+03  0.1848E+04
      8.006  0.2427E+03  0.1860E+04
      8.058  0.2432E+03  0.1873E+04
      8.110  0.2380E+03  0.1885E+04
      8.162  0.2304E+03  0.1897E+04
      8.214  0.2295E+03  0.1909E+04
      8.266  0.2343E+03  0.1922E+04
      8.318  0.2381E+03  0.1934E+04
      8.370  0.2390E+03  0.1946E+04
      8.422  0.2358E+03  0.1959E+04
      8.474  0.2268E+03  0.1970E+04
      8.526  0.2170E+03  0.1982E+04
      8.578  0.2112E+03  0.1993E+04
      8.630  0.2059E+03  0.2003E+04
      8.682  0.1982E+03  0.2014E+04
      8.733  0.1897E+03  0.2023E+04
      8.785  0.1819E+03  0.2033E+04
      8.837  0.1799E+03  0.2042E+04
      8.889  0.1920E+03  0.2052E+04
      8.941  0.2186E+03  0.2064E+04
      8.993  0.2374E+03  0.2076E+04
      9.045  0.2344E+03  0.2088E+04
      9.097  0.2203E+03  0.2099E+04
      9.149  0.2025E+03  0.2110E+04
      9.201  0.1838E+03  0.2120E+04
      9.253  0.1805E+03  0.2129E+04
      9.305  0.2038E+03  0.2140E+04
      9.357  0.2333E+03  0.2152E+04
      9.409  0.2435E+03  0.2164E+04
      9.461  0.2430E+03  0.2177E+04
      9.513  0.2453E+03  0.2190E+04
      9.565  0.2438E+03  0.2202E+04
      9.617  0.2497E+03  0.2215E+04
      9.668  0.2838E+03  0.2230E+04
      9.720  0.3244E+03  0.2247E+04
      9.772  0.3349E+03  0.2264E+04
      9.824  0.3235E+03  0.2281E+04
      9.876  0.3157E+03  0.2297E+04
      9.928  0.3160E+03  0.2314E+04
      9.980  0.3249E+03  0.2331E+04
     10.032  0.3503E+03  0.2349E+04
     10.084  0.3886E+03  0.2369E+04
     10.136  0.4181E+03  0.2391E+04
     10.188  0.4302E+03  0.2413E+04
     10.240  0.4383E+03  0.2436E+04
     10.292  0.4526E+03  0.2459E+04
     10.344  0.4720E+03  0.2484E+04
     10.396  0.4898E+03  0.2509E+04
     10.448  0.4978E+03  0.2535E+04
     10.500  0.4840E+03  0.2560E+04
     10.552  0.4393E+03  0.2583E+04
     10.604  0.3756E+03  0.2603E+04
     10.655  0.3040E+03  0.2619E+04
     10.707  0.2155E+03  0.2630E+04
     10.759  0.1142E+03  0.2636E+04
     10.811  0.3391E+02  0.2637E+04
     10.863 -0.1290E+01  0.2637E+04
     10.915 -0.5192E+01  0.2637E+04
     10.967 -0.1949E+01  0.2637E+04
     11.019 -0.3786E+00  0.2637E+04
     11.071 -0.4772E-01  0.2637E+04
     11.123 -0.4391E-02  0.2637E+04
     11.175 -0.2906E-03  0.2637E+04
     11.227 -0.1256E-04  0.2637E+04
     11.279 -0.3291E-06  0.2637E+04
     11.331 -0.5050E-08  0.2637E+04
     11.383 -0.4485E-10  0.2637E+04
     11.435 -0.3749E-12  0.2637E+04
     11.487 -0.3469E-10  0.2637E+04
     11.539 -0.4761E-08  0.2637E+04
     11.590 -0.3748E-06  0.2637E+04
     11.642 -0.1679E-04  0.2637E+04
     11.694 -0.4226E-03  0.2637E+04
     11.746 -0.5830E-02  0.2637E+04
     11.798 -0.4160E-01  0.2637E+04
     11.850 -0.1272E+00  0.2637E+04
     11.902  0.2923E-01  0.2637E+04
     11.954  0.1093E+01  0.2637E+04
     12.006  0.2478E+01  0.2637E+04
     12.058  0.2300E+01  0.2637E+04
     12.110  0.1077E+01  0.2637E+04
     12.162  0.6461E+00  0.2637E+04
     12.214  0.9737E+00  0.2637E+04
     12.266  0.1947E+01  0.2638E+04
     12.318  0.3459E+01  0.2638E+04
     12.370  0.4373E+01  0.2638E+04
     12.422  0.3962E+01  0.2638E+04
     12.474  0.2736E+01  0.2638E+04
     12.526  0.1932E+01  0.2638E+04
     12.577  0.2208E+01  0.2639E+04
     12.629  0.3004E+01  0.2639E+04
     12.681  0.3898E+01  0.2639E+04
     12.733  0.4243E+01  0.2639E+04
     12.785  0.3114E+01  0.2639E+04
     12.837  0.1955E+01  0.2639E+04
     12.889  0.2049E+01  0.2639E+04
     12.941  0.2161E+01  0.2640E+04
     12.993  0.1683E+01  0.2640E+04
     13.045  0.1220E+01  0.2640E+04
     13.097  0.1001E+01  0.2640E+04
     13.149  0.9455E+00  0.2640E+04
     13.201  0.9037E+00  0.2640E+04
     13.253  0.8570E+00  0.2640E+04
     13.305  0.9098E+00  0.2640E+04
     13.357  0.6624E+00  0.2640E+04
     13.409  0.1830E+00  0.2640E+04
     13.461 -0.3674E-01  0.2640E+04
     13.512 -0.3270E-01  0.2640E+04
     13.564 -0.7413E-02  0.2640E+04
     13.616 -0.7975E-03  0.2640E+04
     13.668 -0.4551E-04  0.2640E+04
     13.720 -0.1435E-05  0.2640E+04
     13.772 -0.2552E-07  0.2640E+04
     13.824 -0.2584E-09  0.2640E+04
     13.876 -0.1499E-11  0.2640E+04
     13.928 -0.5224E-14  0.2640E+04
     13.980  0.0000E+00  0.2640E+04
     14.032  0.0000E+00  0.2640E+04
     14.084  0.0000E+00  0.2640E+04
     14.136  0.0000E+00  0.2640E+04
     14.188  0.0000E+00  0.2640E+04
     14.240  0.0000E+00  0.2640E+04
     14.292  0.0000E+00  0.2640E+04
