 256 256   0   0
  0.1418917E+02  0.1588033E-08  0.1692661E-08  0.1693229E-08  0.5000000E-15
  1.000000000000000E-004
  CAR 
 Ir_Ru                                   
     14.27397440     -1.29165363  301      9.45697766      1.00000000
     -1.292  0.0000E+00  0.0000E+00
     -1.240  0.0000E+00  0.0000E+00
     -1.188  0.0000E+00  0.0000E+00
     -1.136 -0.2786E-30 -0.1446E-31
     -1.084 -0.1276E-26 -0.6620E-28
     -1.032 -0.3394E-23 -0.1762E-24
     -0.980 -0.5246E-20 -0.2724E-21
     -0.928 -0.4705E-17 -0.2444E-18
     -0.877 -0.2387E-14 -0.1241E-15
     -0.825 -0.7112E-12 -0.3702E-13
     -0.773 -0.1228E-09 -0.6409E-11
     -0.721 -0.1220E-07 -0.6396E-09
     -0.669 -0.6948E-06 -0.3669E-07
     -0.617 -0.2254E-04 -0.1206E-05
     -0.565 -0.4137E-03 -0.2267E-04
     -0.513 -0.4253E-02 -0.2433E-03
     -0.461 -0.2424E-01 -0.1501E-02
     -0.410 -0.7506E-01 -0.5395E-02
     -0.358 -0.1020E+00 -0.1069E-01
     -0.306  0.2044E+00 -0.8342E-04
     -0.254  0.1635E+01  0.8474E-01
     -0.202  0.4392E+01  0.3126E+00
     -0.150  0.6352E+01  0.6422E+00
     -0.098  0.6423E+01  0.9755E+00
     -0.046  0.6958E+01  0.1336E+01
      0.005  0.8852E+01  0.1796E+01
      0.057  0.1117E+02  0.2376E+01
      0.109  0.1360E+02  0.3081E+01
      0.161  0.1435E+02  0.3826E+01
      0.213  0.1171E+02  0.4433E+01
      0.265  0.1006E+02  0.4955E+01
      0.317  0.1425E+02  0.5694E+01
      0.369  0.2033E+02  0.6749E+01
      0.421  0.2251E+02  0.7917E+01
      0.472  0.2269E+02  0.9095E+01
      0.524  0.2350E+02  0.1031E+02
      0.576  0.2254E+02  0.1148E+02
      0.628  0.2045E+02  0.1254E+02
      0.680  0.2099E+02  0.1363E+02
      0.732  0.2040E+02  0.1469E+02
      0.784  0.1464E+02  0.1545E+02
      0.836  0.8883E+01  0.1591E+02
      0.888  0.8003E+01  0.1633E+02
      0.939  0.1166E+02  0.1693E+02
      0.991  0.1884E+02  0.1791E+02
      1.043  0.2779E+02  0.1935E+02
      1.095  0.3336E+02  0.2108E+02
      1.147  0.3312E+02  0.2280E+02
      1.199  0.2886E+02  0.2430E+02
      1.251  0.2287E+02  0.2549E+02
      1.303  0.1949E+02  0.2650E+02
      1.355  0.2165E+02  0.2762E+02
      1.406  0.2713E+02  0.2903E+02
      1.458  0.3033E+02  0.3060E+02
      1.510  0.2983E+02  0.3215E+02
      1.562  0.2934E+02  0.3367E+02
      1.614  0.3040E+02  0.3525E+02
      1.666  0.3111E+02  0.3686E+02
      1.718  0.3200E+02  0.3852E+02
      1.770  0.3496E+02  0.4034E+02
      1.821  0.3905E+02  0.4236E+02
      1.873  0.4540E+02  0.4472E+02
      1.925  0.5454E+02  0.4755E+02
      1.977  0.5931E+02  0.5063E+02
      2.029  0.5482E+02  0.5347E+02
      2.081  0.5047E+02  0.5609E+02
      2.133  0.6129E+02  0.5927E+02
      2.185  0.8650E+02  0.6376E+02
      2.237  0.1085E+03  0.6939E+02
      2.288  0.1196E+03  0.7560E+02
      2.340  0.1257E+03  0.8212E+02
      2.392  0.1314E+03  0.8894E+02
      2.444  0.1374E+03  0.9607E+02
      2.496  0.1469E+03  0.1037E+03
      2.548  0.1640E+03  0.1122E+03
      2.600  0.1826E+03  0.1217E+03
      2.652  0.1948E+03  0.1318E+03
      2.704  0.2066E+03  0.1425E+03
      2.755  0.2234E+03  0.1541E+03
      2.807  0.2308E+03  0.1661E+03
      2.859  0.2247E+03  0.1777E+03
      2.911  0.2275E+03  0.1895E+03
      2.963  0.2449E+03  0.2022E+03
      3.015  0.2578E+03  0.2156E+03
      3.067  0.2600E+03  0.2291E+03
      3.119  0.2605E+03  0.2426E+03
      3.170  0.2639E+03  0.2563E+03
      3.222  0.2728E+03  0.2705E+03
      3.274  0.2879E+03  0.2854E+03
      3.326  0.3073E+03  0.3013E+03
      3.378  0.3244E+03  0.3182E+03
      3.430  0.3309E+03  0.3354E+03
      3.482  0.3281E+03  0.3524E+03
      3.534  0.3216E+03  0.3691E+03
      3.586  0.3182E+03  0.3856E+03
      3.637  0.3165E+03  0.4020E+03
      3.689  0.3111E+03  0.4181E+03
      3.741  0.3052E+03  0.4340E+03
      3.793  0.3012E+03  0.4496E+03
      3.845  0.2970E+03  0.4650E+03
      3.897  0.2933E+03  0.4802E+03
      3.949  0.2886E+03  0.4952E+03
      4.001  0.2762E+03  0.5095E+03
      4.053  0.2664E+03  0.5233E+03
      4.104  0.2753E+03  0.5376E+03
      4.156  0.2939E+03  0.5529E+03
      4.208  0.3028E+03  0.5686E+03
      4.260  0.3053E+03  0.5844E+03
      4.312  0.3122E+03  0.6006E+03
      4.364  0.3189E+03  0.6172E+03
      4.416  0.3215E+03  0.6339E+03
      4.468  0.3237E+03  0.6507E+03
      4.520  0.3212E+03  0.6673E+03
      4.571  0.3098E+03  0.6834E+03
      4.623  0.2973E+03  0.6988E+03
      4.675  0.2934E+03  0.7140E+03
      4.727  0.2981E+03  0.7295E+03
      4.779  0.3058E+03  0.7454E+03
      4.831  0.3177E+03  0.7619E+03
      4.883  0.3313E+03  0.7790E+03
      4.935  0.3378E+03  0.7966E+03
      4.986  0.3451E+03  0.8145E+03
      5.038  0.3580E+03  0.8331E+03
      5.090  0.3656E+03  0.8520E+03
      5.142  0.3645E+03  0.8709E+03
      5.194  0.3554E+03  0.8894E+03
      5.246  0.3349E+03  0.9068E+03
      5.298  0.3027E+03  0.9225E+03
      5.350  0.2618E+03  0.9360E+03
      5.402  0.2185E+03  0.9474E+03
      5.453  0.1844E+03  0.9570E+03
      5.505  0.1723E+03  0.9659E+03
      5.557  0.1887E+03  0.9757E+03
      5.609  0.2268E+03  0.9875E+03
      5.661  0.2752E+03  0.1002E+04
      5.713  0.3254E+03  0.1019E+04
      5.765  0.3676E+03  0.1038E+04
      5.817  0.3952E+03  0.1058E+04
      5.869  0.4104E+03  0.1079E+04
      5.920  0.4191E+03  0.1101E+04
      5.972  0.4255E+03  0.1123E+04
      6.024  0.4280E+03  0.1146E+04
      6.076  0.4164E+03  0.1167E+04
      6.128  0.3921E+03  0.1187E+04
      6.180  0.3719E+03  0.1207E+04
      6.232  0.3611E+03  0.1226E+04
      6.284  0.3553E+03  0.1244E+04
      6.336  0.3563E+03  0.1262E+04
      6.387  0.3691E+03  0.1282E+04
      6.439  0.3820E+03  0.1301E+04
      6.491  0.3844E+03  0.1321E+04
      6.543  0.3914E+03  0.1342E+04
      6.595  0.4097E+03  0.1363E+04
      6.647  0.4240E+03  0.1385E+04
      6.699  0.4283E+03  0.1407E+04
      6.751  0.4256E+03  0.1429E+04
      6.802  0.4137E+03  0.1451E+04
      6.854  0.3924E+03  0.1471E+04
      6.906  0.3735E+03  0.1490E+04
      6.958  0.3666E+03  0.1509E+04
      7.010  0.3637E+03  0.1528E+04
      7.062  0.3679E+03  0.1547E+04
      7.114  0.3908E+03  0.1568E+04
      7.166  0.4145E+03  0.1589E+04
      7.218  0.4220E+03  0.1611E+04
      7.269  0.4222E+03  0.1633E+04
      7.321  0.4137E+03  0.1654E+04
      7.373  0.3887E+03  0.1675E+04
      7.425  0.3594E+03  0.1693E+04
      7.477  0.3404E+03  0.1711E+04
      7.529  0.3326E+03  0.1728E+04
      7.581  0.3287E+03  0.1745E+04
      7.633  0.3173E+03  0.1762E+04
      7.685  0.2960E+03  0.1777E+04
      7.736  0.2777E+03  0.1791E+04
      7.788  0.2688E+03  0.1805E+04
      7.840  0.2638E+03  0.1819E+04
      7.892  0.2577E+03  0.1832E+04
      7.944  0.2486E+03  0.1845E+04
      7.996  0.2428E+03  0.1858E+04
      8.048  0.2432E+03  0.1871E+04
      8.100  0.2394E+03  0.1883E+04
      8.151  0.2315E+03  0.1895E+04
      8.203  0.2290E+03  0.1907E+04
      8.255  0.2332E+03  0.1919E+04
      8.307  0.2377E+03  0.1931E+04
      8.359  0.2391E+03  0.1944E+04
      8.411  0.2371E+03  0.1956E+04
      8.463  0.2290E+03  0.1968E+04
      8.515  0.2186E+03  0.1979E+04
      8.567  0.2121E+03  0.1990E+04
      8.618  0.2072E+03  0.2001E+04
      8.670  0.1999E+03  0.2011E+04
      8.722  0.1916E+03  0.2021E+04
      8.774  0.1833E+03  0.2031E+04
      8.826  0.1794E+03  0.2040E+04
      8.878  0.1878E+03  0.2050E+04
      8.930  0.2124E+03  0.2061E+04
      8.982  0.2351E+03  0.2073E+04
      9.034  0.2365E+03  0.2085E+04
      9.085  0.2238E+03  0.2097E+04
      9.137  0.2068E+03  0.2108E+04
      9.189  0.1875E+03  0.2117E+04
      9.241  0.1788E+03  0.2127E+04
      9.293  0.1967E+03  0.2137E+04
      9.345  0.2277E+03  0.2149E+04
      9.397  0.2430E+03  0.2161E+04
      9.449  0.2430E+03  0.2174E+04
      9.501  0.2449E+03  0.2187E+04
      9.552  0.2445E+03  0.2199E+04
      9.604  0.2460E+03  0.2212E+04
      9.656  0.2734E+03  0.2226E+04
      9.708  0.3166E+03  0.2243E+04
      9.760  0.3355E+03  0.2260E+04
      9.812  0.3268E+03  0.2277E+04
      9.864  0.3168E+03  0.2294E+04
      9.916  0.3153E+03  0.2310E+04
      9.967  0.3215E+03  0.2327E+04
     10.019  0.3423E+03  0.2344E+04
     10.071  0.3789E+03  0.2364E+04
     10.123  0.4122E+03  0.2385E+04
     10.175  0.4281E+03  0.2408E+04
     10.227  0.4359E+03  0.2430E+04
     10.279  0.4484E+03  0.2453E+04
     10.331  0.4669E+03  0.2478E+04
     10.383  0.4858E+03  0.2503E+04
     10.434  0.4972E+03  0.2529E+04
     10.486  0.4905E+03  0.2554E+04
     10.538  0.4535E+03  0.2578E+04
     10.590  0.3931E+03  0.2598E+04
     10.642  0.3244E+03  0.2615E+04
     10.694  0.2412E+03  0.2627E+04
     10.746  0.1400E+03  0.2635E+04
     10.798  0.5018E+02  0.2637E+04
     10.850  0.3461E+01  0.2637E+04
     10.901 -0.5685E+01  0.2637E+04
     10.953 -0.2476E+01  0.2637E+04
     11.005  0.1404E+00  0.2637E+04
     11.057  0.7812E+00  0.2637E+04
     11.109  0.3964E+00  0.2637E+04
     11.161  0.2037E-01  0.2637E+04
     11.213 -0.4433E-01  0.2637E+04
     11.265 -0.1537E-01  0.2637E+04
     11.317 -0.2228E-02  0.2637E+04
     11.368 -0.1659E-03  0.2637E+04
     11.420 -0.6739E-05  0.2637E+04
     11.472 -0.1536E-06  0.2637E+04
     11.524 -0.1549E-07  0.2637E+04
     11.576 -0.8396E-06  0.2637E+04
     11.628 -0.2987E-04  0.2637E+04
     11.680 -0.6029E-03  0.2637E+04
     11.732 -0.6766E-02  0.2637E+04
     11.783 -0.4006E-01  0.2637E+04
     11.835 -0.1020E+00  0.2637E+04
     11.887  0.5936E-01  0.2637E+04
     11.939  0.9558E+00  0.2637E+04
     11.991  0.2202E+01  0.2637E+04
     12.043  0.2264E+01  0.2637E+04
     12.095  0.1207E+01  0.2637E+04
     12.147  0.8138E+00  0.2637E+04
     12.199  0.1250E+01  0.2638E+04
     12.250  0.1809E+01  0.2638E+04
     12.302  0.2796E+01  0.2638E+04
     12.354  0.3516E+01  0.2638E+04
     12.406  0.2977E+01  0.2638E+04
     12.458  0.2265E+01  0.2638E+04
     12.510  0.2064E+01  0.2638E+04
     12.562  0.2262E+01  0.2638E+04
     12.614  0.2820E+01  0.2639E+04
     12.666  0.3366E+01  0.2639E+04
     12.717  0.3708E+01  0.2639E+04
     12.769  0.3379E+01  0.2639E+04
     12.821  0.2724E+01  0.2639E+04
     12.873  0.2688E+01  0.2639E+04
     12.925  0.2517E+01  0.2640E+04
     12.977  0.1605E+01  0.2640E+04
     13.029  0.9750E+00  0.2640E+04
     13.081  0.7990E+00  0.2640E+04
     13.132  0.6271E+00  0.2640E+04
     13.184  0.8261E+00  0.2640E+04
     13.236  0.1285E+01  0.2640E+04
     13.288  0.1289E+01  0.2640E+04
     13.340  0.7243E+00  0.2640E+04
     13.392  0.1470E+00  0.2640E+04
     13.444 -0.5159E-01  0.2640E+04
     13.496 -0.3431E-01  0.2640E+04
     13.548 -0.7353E-02  0.2640E+04
     13.599 -0.7731E-03  0.2640E+04
     13.651 -0.4360E-04  0.2640E+04
     13.703 -0.1366E-05  0.2640E+04
     13.755 -0.2419E-07  0.2640E+04
     13.807 -0.2445E-09  0.2640E+04
     13.859 -0.1419E-11  0.2640E+04
     13.911 -0.4755E-14  0.2640E+04
     13.963  0.0000E+00  0.2640E+04
     14.015  0.0000E+00  0.2640E+04
     14.066  0.0000E+00  0.2640E+04
     14.118  0.0000E+00  0.2640E+04
     14.170  0.0000E+00  0.2640E+04
     14.222  0.0000E+00  0.2640E+04
     14.274  0.0000E+00  0.2640E+04
