  48  48   0   0
  0.1705593E+02  0.7375077E-09  0.1089151E-08  0.1197421E-08  0.1500000E-14
   3000.00000000000     
  CAR 
 Ir_Ru                                   
     24.10707401     -4.62188095  301      8.03546613      1.00000000
     -4.622  0.0000E+00  0.0000E+00
     -4.526  0.0000E+00  0.0000E+00
     -4.430  0.0000E+00  0.0000E+00
     -4.335  0.0000E+00  0.0000E+00
     -4.239  0.0000E+00  0.0000E+00
     -4.143  0.1987E-04  0.1882E-05
     -4.047  0.2377E-03  0.2429E-04
     -3.952  0.5213E-03  0.7341E-04
     -3.856  0.1060E-02  0.1733E-03
     -3.760  0.1591E-02  0.3232E-03
     -3.664  0.2114E-02  0.5224E-03
     -3.568  0.3001E-02  0.8052E-03
     -3.473  0.4196E-02  0.1201E-02
     -3.377  0.5982E-02  0.1764E-02
     -3.281  0.8613E-02  0.2576E-02
     -3.185  0.1205E-01  0.3712E-02
     -3.090  0.1681E-01  0.5296E-02
     -2.994  0.2380E-01  0.7540E-02
     -2.898  0.3358E-01  0.1071E-01
     -2.802  0.4639E-01  0.1508E-01
     -2.707  0.6460E-01  0.2117E-01
     -2.611  0.8993E-01  0.2965E-01
     -2.515  0.1244E+00  0.4138E-01
     -2.419  0.1714E+00  0.5755E-01
     -2.324  0.2348E+00  0.7969E-01
     -2.228  0.3186E+00  0.1097E+00
     -2.132  0.4281E+00  0.1501E+00
     -2.036  0.5673E+00  0.2036E+00
     -1.941  0.7397E+00  0.2734E+00
     -1.845  0.9468E+00  0.3627E+00
     -1.749  0.1186E+01  0.4745E+00
     -1.653  0.1453E+01  0.6115E+00
     -1.557  0.1741E+01  0.7757E+00
     -1.462  0.2042E+01  0.9681E+00
     -1.366  0.2350E+01  0.1190E+01
     -1.270  0.2662E+01  0.1440E+01
     -1.174  0.2978E+01  0.1721E+01
     -1.079  0.3301E+01  0.2032E+01
     -0.983  0.3635E+01  0.2375E+01
     -0.887  0.3981E+01  0.2750E+01
     -0.791  0.4344E+01  0.3159E+01
     -0.696  0.4727E+01  0.3605E+01
     -0.600  0.5135E+01  0.4089E+01
     -0.504  0.5576E+01  0.4614E+01
     -0.408  0.6062E+01  0.5186E+01
     -0.313  0.6607E+01  0.5809E+01
     -0.217  0.7228E+01  0.6490E+01
     -0.121  0.7943E+01  0.7239E+01
     -0.025  0.8773E+01  0.8066E+01
      0.071  0.9737E+01  0.8984E+01
      0.166  0.1086E+02  0.1001E+02
      0.262  0.1215E+02  0.1115E+02
      0.358  0.1363E+02  0.1244E+02
      0.454  0.1532E+02  0.1388E+02
      0.549  0.1722E+02  0.1551E+02
      0.645  0.1932E+02  0.1733E+02
      0.741  0.2162E+02  0.1937E+02
      0.837  0.2410E+02  0.2164E+02
      0.932  0.2671E+02  0.2416E+02
      1.028  0.2941E+02  0.2693E+02
      1.124  0.3216E+02  0.2996E+02
      1.220  0.3490E+02  0.3326E+02
      1.315  0.3758E+02  0.3680E+02
      1.411  0.4017E+02  0.4059E+02
      1.507  0.4262E+02  0.4461E+02
      1.603  0.4491E+02  0.4884E+02
      1.698  0.4703E+02  0.5327E+02
      1.794  0.4899E+02  0.5789E+02
      1.890  0.5080E+02  0.6268E+02
      1.986  0.5246E+02  0.6763E+02
      2.082  0.5400E+02  0.7272E+02
      2.177  0.5543E+02  0.7794E+02
      2.273  0.5675E+02  0.8329E+02
      2.369  0.5797E+02  0.8875E+02
      2.465  0.5909E+02  0.9432E+02
      2.560  0.6011E+02  0.9999E+02
      2.656  0.6104E+02  0.1057E+03
      2.752  0.6187E+02  0.1116E+03
      2.848  0.6263E+02  0.1175E+03
      2.943  0.6330E+02  0.1234E+03
      3.039  0.6390E+02  0.1295E+03
      3.135  0.6442E+02  0.1355E+03
      3.231  0.6487E+02  0.1416E+03
      3.326  0.6523E+02  0.1478E+03
      3.422  0.6552E+02  0.1540E+03
      3.518  0.6573E+02  0.1602E+03
      3.614  0.6587E+02  0.1664E+03
      3.710  0.6594E+02  0.1726E+03
      3.805  0.6594E+02  0.1788E+03
      3.901  0.6587E+02  0.1850E+03
      3.997  0.6574E+02  0.1912E+03
      4.093  0.6555E+02  0.1974E+03
      4.188  0.6530E+02  0.2035E+03
      4.284  0.6499E+02  0.2097E+03
      4.380  0.6464E+02  0.2157E+03
      4.476  0.6424E+02  0.2218E+03
      4.571  0.6383E+02  0.2278E+03
      4.667  0.6340E+02  0.2338E+03
      4.763  0.6297E+02  0.2397E+03
      4.859  0.6254E+02  0.2456E+03
      4.954  0.6214E+02  0.2515E+03
      5.050  0.6175E+02  0.2573E+03
      5.146  0.6138E+02  0.2631E+03
      5.242  0.6102E+02  0.2688E+03
      5.337  0.6069E+02  0.2745E+03
      5.433  0.6037E+02  0.2802E+03
      5.529  0.6008E+02  0.2859E+03
      5.625  0.5982E+02  0.2915E+03
      5.721  0.5960E+02  0.2972E+03
      5.816  0.5942E+02  0.3028E+03
      5.912  0.5928E+02  0.3083E+03
      6.008  0.5919E+02  0.3139E+03
      6.104  0.5916E+02  0.3195E+03
      6.199  0.5917E+02  0.3251E+03
      6.295  0.5924E+02  0.3307E+03
      6.391  0.5938E+02  0.3363E+03
      6.487  0.5958E+02  0.3419E+03
      6.582  0.5985E+02  0.3475E+03
      6.678  0.6020E+02  0.3532E+03
      6.774  0.6062E+02  0.3589E+03
      6.870  0.6110E+02  0.3647E+03
      6.965  0.6165E+02  0.3705E+03
      7.061  0.6224E+02  0.3763E+03
      7.157  0.6286E+02  0.3823E+03
      7.253  0.6350E+02  0.3882E+03
      7.349  0.6414E+02  0.3943E+03
      7.444  0.6476E+02  0.4004E+03
      7.540  0.6532E+02  0.4065E+03
      7.636  0.6580E+02  0.4127E+03
      7.732  0.6616E+02  0.4190E+03
      7.827  0.6638E+02  0.4252E+03
      7.923  0.6641E+02  0.4315E+03
      8.019  0.6622E+02  0.4377E+03
      8.115  0.6578E+02  0.4439E+03
      8.210  0.6505E+02  0.4501E+03
      8.306  0.6402E+02  0.4561E+03
      8.402  0.6267E+02  0.4620E+03
      8.498  0.6101E+02  0.4678E+03
      8.593  0.5902E+02  0.4733E+03
      8.689  0.5673E+02  0.4787E+03
      8.785  0.5417E+02  0.4838E+03
      8.881  0.5137E+02  0.4886E+03
      8.976  0.4839E+02  0.4932E+03
      9.072  0.4528E+02  0.4974E+03
      9.168  0.4212E+02  0.5014E+03
      9.264  0.3897E+02  0.5051E+03
      9.360  0.3591E+02  0.5085E+03
      9.455  0.3302E+02  0.5116E+03
      9.551  0.3034E+02  0.5145E+03
      9.647  0.2792E+02  0.5171E+03
      9.743  0.2578E+02  0.5195E+03
      9.838  0.2393E+02  0.5218E+03
      9.934  0.2234E+02  0.5239E+03
     10.030  0.2100E+02  0.5259E+03
     10.126  0.1988E+02  0.5277E+03
     10.221  0.1894E+02  0.5295E+03
     10.317  0.1816E+02  0.5312E+03
     10.413  0.1751E+02  0.5329E+03
     10.509  0.1696E+02  0.5345E+03
     10.604  0.1649E+02  0.5361E+03
     10.700  0.1608E+02  0.5376E+03
     10.796  0.1572E+02  0.5391E+03
     10.892  0.1540E+02  0.5405E+03
     10.988  0.1511E+02  0.5419E+03
     11.083  0.1484E+02  0.5433E+03
     11.179  0.1459E+02  0.5447E+03
     11.275  0.1436E+02  0.5461E+03
     11.371  0.1415E+02  0.5474E+03
     11.466  0.1395E+02  0.5487E+03
     11.562  0.1376E+02  0.5500E+03
     11.658  0.1358E+02  0.5513E+03
     11.754  0.1341E+02  0.5526E+03
     11.849  0.1325E+02  0.5538E+03
     11.945  0.1309E+02  0.5550E+03
     12.041  0.1295E+02  0.5563E+03
     12.137  0.1283E+02  0.5575E+03
     12.232  0.1271E+02  0.5587E+03
     12.328  0.1262E+02  0.5599E+03
     12.424  0.1255E+02  0.5610E+03
     12.520  0.1251E+02  0.5622E+03
     12.615  0.1251E+02  0.5634E+03
     12.711  0.1253E+02  0.5646E+03
     12.807  0.1259E+02  0.5658E+03
     12.903  0.1268E+02  0.5670E+03
     12.999  0.1279E+02  0.5682E+03
     13.094  0.1292E+02  0.5694E+03
     13.190  0.1307E+02  0.5706E+03
     13.286  0.1323E+02  0.5719E+03
     13.382  0.1341E+02  0.5731E+03
     13.477  0.1358E+02  0.5744E+03
     13.573  0.1376E+02  0.5757E+03
     13.669  0.1393E+02  0.5770E+03
     13.765  0.1410E+02  0.5784E+03
     13.860  0.1425E+02  0.5797E+03
     13.956  0.1439E+02  0.5811E+03
     14.052  0.1453E+02  0.5824E+03
     14.148  0.1465E+02  0.5838E+03
     14.243  0.1476E+02  0.5852E+03
     14.339  0.1487E+02  0.5866E+03
     14.435  0.1497E+02  0.5880E+03
     14.531  0.1507E+02  0.5894E+03
     14.627  0.1517E+02  0.5909E+03
     14.722  0.1527E+02  0.5923E+03
     14.818  0.1537E+02  0.5937E+03
     14.914  0.1547E+02  0.5952E+03
     15.010  0.1556E+02  0.5967E+03
     15.105  0.1566E+02  0.5981E+03
     15.201  0.1575E+02  0.5996E+03
     15.297  0.1584E+02  0.6011E+03
     15.393  0.1592E+02  0.6026E+03
     15.488  0.1600E+02  0.6041E+03
     15.584  0.1608E+02  0.6056E+03
     15.680  0.1615E+02  0.6072E+03
     15.776  0.1622E+02  0.6087E+03
     15.871  0.1629E+02  0.6102E+03
     15.967  0.1637E+02  0.6118E+03
     16.063  0.1644E+02  0.6133E+03
     16.159  0.1652E+02  0.6149E+03
     16.254  0.1660E+02  0.6164E+03
     16.350  0.1668E+02  0.6180E+03
     16.446  0.1677E+02  0.6196E+03
     16.542  0.1686E+02  0.6212E+03
     16.638  0.1696E+02  0.6228E+03
     16.733  0.1705E+02  0.6244E+03
     16.829  0.1714E+02  0.6260E+03
     16.925  0.1723E+02  0.6276E+03
     17.021  0.1731E+02  0.6293E+03
     17.116  0.1739E+02  0.6309E+03
     17.212  0.1747E+02  0.6326E+03
     17.308  0.1754E+02  0.6342E+03
     17.404  0.1762E+02  0.6359E+03
     17.499  0.1769E+02  0.6375E+03
     17.595  0.1777E+02  0.6392E+03
     17.691  0.1784E+02  0.6409E+03
     17.787  0.1792E+02  0.6426E+03
     17.882  0.1800E+02  0.6443E+03
     17.978  0.1809E+02  0.6460E+03
     18.074  0.1817E+02  0.6477E+03
     18.170  0.1826E+02  0.6494E+03
     18.266  0.1836E+02  0.6512E+03
     18.361  0.1846E+02  0.6529E+03
     18.457  0.1856E+02  0.6546E+03
     18.553  0.1866E+02  0.6564E+03
     18.649  0.1876E+02  0.6582E+03
     18.744  0.1887E+02  0.6599E+03
     18.840  0.1897E+02  0.6617E+03
     18.936  0.1907E+02  0.6635E+03
     19.032  0.1916E+02  0.6653E+03
     19.127  0.1924E+02  0.6672E+03
     19.223  0.1930E+02  0.6690E+03
     19.319  0.1934E+02  0.6708E+03
     19.415  0.1936E+02  0.6726E+03
     19.510  0.1933E+02  0.6744E+03
     19.606  0.1926E+02  0.6763E+03
     19.702  0.1913E+02  0.6781E+03
     19.798  0.1894E+02  0.6798E+03
     19.893  0.1868E+02  0.6816E+03
     19.989  0.1834E+02  0.6833E+03
     20.085  0.1792E+02  0.6850E+03
     20.181  0.1740E+02  0.6867E+03
     20.277  0.1678E+02  0.6882E+03
     20.372  0.1603E+02  0.6898E+03
     20.468  0.1516E+02  0.6912E+03
     20.564  0.1415E+02  0.6925E+03
     20.660  0.1300E+02  0.6937E+03
     20.755  0.1173E+02  0.6949E+03
     20.851  0.1038E+02  0.6958E+03
     20.947  0.8985E+01  0.6967E+03
     21.043  0.7602E+01  0.6974E+03
     21.138  0.6285E+01  0.6980E+03
     21.234  0.5080E+01  0.6985E+03
     21.330  0.4018E+01  0.6989E+03
     21.426  0.3116E+01  0.6991E+03
     21.521  0.2375E+01  0.6994E+03
     21.617  0.1783E+01  0.6995E+03
     21.713  0.1322E+01  0.6997E+03
     21.809  0.9702E+00  0.6998E+03
     21.905  0.7059E+00  0.6998E+03
     22.000  0.5100E+00  0.6999E+03
     22.096  0.3662E+00  0.6999E+03
     22.192  0.2615E+00  0.6999E+03
     22.288  0.1857E+00  0.7000E+03
     22.383  0.1311E+00  0.7000E+03
     22.479  0.9176E-01  0.7000E+03
     22.575  0.6360E-01  0.7000E+03
     22.671  0.4345E-01  0.7000E+03
     22.766  0.2905E-01  0.7000E+03
     22.862  0.1881E-01  0.7000E+03
     22.958  0.1160E-01  0.7000E+03
     23.054  0.6635E-02  0.7000E+03
     23.149  0.3431E-02  0.7000E+03
     23.245  0.1554E-02  0.7000E+03
     23.341  0.5792E-03  0.7000E+03
     23.437  0.1633E-03  0.7000E+03
     23.532  0.2573E-04  0.7000E+03
     23.628  0.0000E+00  0.7000E+03
     23.724  0.0000E+00  0.7000E+03
     23.820  0.0000E+00  0.7000E+03
     23.916  0.0000E+00  0.7000E+03
     24.011  0.0000E+00  0.7000E+03
     24.107  0.0000E+00  0.7000E+03
     23.82817258     -4.62679059  301      7.83188168      1.00000000
     -4.627  0.0000E+00  0.0000E+00
     -4.532  0.0000E+00  0.0000E+00
     -4.437  0.0000E+00  0.0000E+00
     -4.342  0.0000E+00  0.0000E+00
     -4.247  0.0000E+00  0.0000E+00
     -4.153  0.1509E-04  0.1430E-05
     -4.058  0.2344E-03  0.2346E-04
     -3.963  0.5160E-03  0.7188E-04
     -3.868  0.9912E-03  0.1651E-03
     -3.773  0.1544E-02  0.3100E-03
     -3.678  0.2108E-02  0.5080E-03
     -3.583  0.2962E-02  0.7860E-03
     -3.489  0.4187E-02  0.1179E-02
     -3.394  0.6003E-02  0.1743E-02
     -3.299  0.8460E-02  0.2537E-02
     -3.204  0.1192E-01  0.3656E-02
     -3.109  0.1654E-01  0.5209E-02
     -3.014  0.2341E-01  0.7408E-02
     -2.919  0.3289E-01  0.1050E-01
     -2.825  0.4579E-01  0.1480E-01
     -2.730  0.6352E-01  0.2076E-01
     -2.635  0.8817E-01  0.2905E-01
     -2.540  0.1219E+00  0.4050E-01
     -2.445  0.1678E+00  0.5626E-01
     -2.350  0.2298E+00  0.7785E-01
     -2.256  0.3120E+00  0.1072E+00
     -2.161  0.4194E+00  0.1466E+00
     -2.066  0.5565E+00  0.1988E+00
     -1.971  0.7266E+00  0.2671E+00
     -1.876  0.9318E+00  0.3546E+00
     -1.781  0.1171E+01  0.4645E+00
     -1.686  0.1439E+01  0.5997E+00
     -1.592  0.1731E+01  0.7622E+00
     -1.497  0.2038E+01  0.9535E+00
     -1.402  0.2354E+01  0.1174E+01
     -1.307  0.2675E+01  0.1425E+01
     -1.212  0.3000E+01  0.1707E+01
     -1.117  0.3331E+01  0.2019E+01
     -1.022  0.3670E+01  0.2364E+01
     -0.928  0.4021E+01  0.2741E+01
     -0.833  0.4388E+01  0.3153E+01
     -0.738  0.4775E+01  0.3601E+01
     -0.643  0.5187E+01  0.4087E+01
     -0.548  0.5631E+01  0.4616E+01
     -0.453  0.6119E+01  0.5190E+01
     -0.359  0.6663E+01  0.5815E+01
     -0.264  0.7283E+01  0.6499E+01
     -0.169  0.7998E+01  0.7250E+01
     -0.074  0.8827E+01  0.8078E+01
      0.021  0.9792E+01  0.8997E+01
      0.116  0.1091E+02  0.1002E+02
      0.211  0.1219E+02  0.1117E+02
      0.305  0.1366E+02  0.1245E+02
      0.400  0.1532E+02  0.1389E+02
      0.495  0.1718E+02  0.1550E+02
      0.590  0.1922E+02  0.1731E+02
      0.685  0.2145E+02  0.1932E+02
      0.780  0.2383E+02  0.2156E+02
      0.875  0.2633E+02  0.2403E+02
      0.969  0.2893E+02  0.2675E+02
      1.064  0.3157E+02  0.2971E+02
      1.159  0.3423E+02  0.3292E+02
      1.254  0.3685E+02  0.3638E+02
      1.349  0.3942E+02  0.4008E+02
      1.444  0.4189E+02  0.4401E+02
      1.538  0.4424E+02  0.4816E+02
      1.633  0.4647E+02  0.5253E+02
      1.728  0.4857E+02  0.5708E+02
      1.823  0.5053E+02  0.6182E+02
      1.918  0.5237E+02  0.6674E+02
      2.013  0.5408E+02  0.7181E+02
      2.108  0.5567E+02  0.7703E+02
      2.202  0.5715E+02  0.8239E+02
      2.297  0.5851E+02  0.8788E+02
      2.392  0.5975E+02  0.9349E+02
      2.487  0.6089E+02  0.9920E+02
      2.582  0.6191E+02  0.1050E+03
      2.677  0.6282E+02  0.1109E+03
      2.771  0.6362E+02  0.1169E+03
      2.866  0.6431E+02  0.1229E+03
      2.961  0.6491E+02  0.1290E+03
      3.056  0.6540E+02  0.1351E+03
      3.151  0.6580E+02  0.1413E+03
      3.246  0.6611E+02  0.1475E+03
      3.341  0.6632E+02  0.1537E+03
      3.435  0.6645E+02  0.1599E+03
      3.530  0.6649E+02  0.1662E+03
      3.625  0.6646E+02  0.1724E+03
      3.720  0.6636E+02  0.1786E+03
      3.815  0.6621E+02  0.1849E+03
      3.910  0.6601E+02  0.1911E+03
      4.005  0.6578E+02  0.1972E+03
      4.099  0.6552E+02  0.2034E+03
      4.194  0.6524E+02  0.2095E+03
      4.289  0.6494E+02  0.2156E+03
      4.384  0.6463E+02  0.2216E+03
      4.479  0.6431E+02  0.2277E+03
      4.574  0.6397E+02  0.2337E+03
      4.668  0.6362E+02  0.2396E+03
      4.763  0.6326E+02  0.2456E+03
      4.858  0.6289E+02  0.2515E+03
      4.953  0.6253E+02  0.2574E+03
      5.048  0.6218E+02  0.2632E+03
      5.143  0.6184E+02  0.2690E+03
      5.238  0.6152E+02  0.2748E+03
      5.332  0.6122E+02  0.2805E+03
      5.427  0.6094E+02  0.2862E+03
      5.522  0.6070E+02  0.2919E+03
      5.617  0.6049E+02  0.2976E+03
      5.712  0.6032E+02  0.3032E+03
      5.807  0.6018E+02  0.3089E+03
      5.902  0.6008E+02  0.3145E+03
      5.996  0.6003E+02  0.3202E+03
      6.091  0.6002E+02  0.3258E+03
      6.186  0.6006E+02  0.3314E+03
      6.281  0.6015E+02  0.3371E+03
      6.376  0.6031E+02  0.3427E+03
      6.471  0.6054E+02  0.3484E+03
      6.565  0.6083E+02  0.3541E+03
      6.660  0.6120E+02  0.3599E+03
      6.755  0.6163E+02  0.3656E+03
      6.850  0.6212E+02  0.3715E+03
      6.945  0.6266E+02  0.3774E+03
      7.040  0.6323E+02  0.3833E+03
      7.135  0.6380E+02  0.3893E+03
      7.229  0.6436E+02  0.3953E+03
      7.324  0.6488E+02  0.4014E+03
      7.419  0.6533E+02  0.4075E+03
      7.514  0.6569E+02  0.4137E+03
      7.609  0.6593E+02  0.4199E+03
      7.704  0.6602E+02  0.4261E+03
      7.799  0.6594E+02  0.4323E+03
      7.893  0.6566E+02  0.4384E+03
      7.988  0.6517E+02  0.4445E+03
      8.083  0.6443E+02  0.4506E+03
      8.178  0.6342E+02  0.4565E+03
      8.273  0.6214E+02  0.4624E+03
      8.368  0.6058E+02  0.4680E+03
      8.462  0.5872E+02  0.4735E+03
      8.557  0.5658E+02  0.4789E+03
      8.652  0.5417E+02  0.4839E+03
      8.747  0.5151E+02  0.4888E+03
      8.842  0.4865E+02  0.4933E+03
      8.937  0.4564E+02  0.4976E+03
      9.032  0.4254E+02  0.5016E+03
      9.126  0.3943E+02  0.5053E+03
      9.221  0.3638E+02  0.5087E+03
      9.316  0.3347E+02  0.5119E+03
      9.411  0.3076E+02  0.5148E+03
      9.506  0.2829E+02  0.5174E+03
      9.601  0.2609E+02  0.5199E+03
      9.696  0.2416E+02  0.5222E+03
      9.790  0.2250E+02  0.5243E+03
      9.885  0.2109E+02  0.5263E+03
      9.980  0.1989E+02  0.5281E+03
     10.075  0.1889E+02  0.5299E+03
     10.170  0.1805E+02  0.5316E+03
     10.265  0.1735E+02  0.5332E+03
     10.359  0.1676E+02  0.5348E+03
     10.454  0.1626E+02  0.5363E+03
     10.549  0.1584E+02  0.5378E+03
     10.644  0.1548E+02  0.5393E+03
     10.739  0.1516E+02  0.5407E+03
     10.834  0.1489E+02  0.5421E+03
     10.929  0.1464E+02  0.5435E+03
     11.023  0.1440E+02  0.5448E+03
     11.118  0.1418E+02  0.5462E+03
     11.213  0.1397E+02  0.5475E+03
     11.308  0.1377E+02  0.5488E+03
     11.403  0.1358E+02  0.5500E+03
     11.498  0.1340E+02  0.5513E+03
     11.593  0.1324E+02  0.5525E+03
     11.687  0.1309E+02  0.5538E+03
     11.782  0.1297E+02  0.5550E+03
     11.877  0.1287E+02  0.5562E+03
     11.972  0.1279E+02  0.5574E+03
     12.067  0.1274E+02  0.5586E+03
     12.162  0.1271E+02  0.5598E+03
     12.256  0.1271E+02  0.5610E+03
     12.351  0.1274E+02  0.5622E+03
     12.446  0.1279E+02  0.5634E+03
     12.541  0.1286E+02  0.5646E+03
     12.636  0.1295E+02  0.5658E+03
     12.731  0.1307E+02  0.5670E+03
     12.826  0.1320E+02  0.5683E+03
     12.920  0.1334E+02  0.5695E+03
     13.015  0.1349E+02  0.5708E+03
     13.110  0.1365E+02  0.5721E+03
     13.205  0.1381E+02  0.5733E+03
     13.300  0.1397E+02  0.5747E+03
     13.395  0.1412E+02  0.5760E+03
     13.490  0.1427E+02  0.5773E+03
     13.584  0.1440E+02  0.5787E+03
     13.679  0.1452E+02  0.5800E+03
     13.774  0.1463E+02  0.5814E+03
     13.869  0.1472E+02  0.5828E+03
     13.964  0.1481E+02  0.5842E+03
     14.059  0.1488E+02  0.5856E+03
     14.153  0.1495E+02  0.5870E+03
     14.248  0.1502E+02  0.5884E+03
     14.343  0.1509E+02  0.5898E+03
     14.438  0.1517E+02  0.5912E+03
     14.533  0.1525E+02  0.5927E+03
     14.628  0.1534E+02  0.5941E+03
     14.723  0.1544E+02  0.5955E+03
     14.817  0.1554E+02  0.5970E+03
     14.912  0.1565E+02  0.5985E+03
     15.007  0.1574E+02  0.5999E+03
     15.102  0.1584E+02  0.6014E+03
     15.197  0.1592E+02  0.6029E+03
     15.292  0.1600E+02  0.6044E+03
     15.387  0.1607E+02  0.6059E+03
     15.481  0.1612E+02  0.6075E+03
     15.576  0.1617E+02  0.6090E+03
     15.671  0.1621E+02  0.6105E+03
     15.766  0.1625E+02  0.6120E+03
     15.861  0.1629E+02  0.6135E+03
     15.956  0.1633E+02  0.6151E+03
     16.050  0.1638E+02  0.6166E+03
     16.145  0.1644E+02  0.6182E+03
     16.240  0.1650E+02  0.6197E+03
     16.335  0.1658E+02  0.6213E+03
     16.430  0.1667E+02  0.6228E+03
     16.525  0.1677E+02  0.6244E+03
     16.620  0.1688E+02  0.6260E+03
     16.714  0.1700E+02  0.6276E+03
     16.809  0.1713E+02  0.6292E+03
     16.904  0.1726E+02  0.6308E+03
     16.999  0.1739E+02  0.6324E+03
     17.094  0.1752E+02  0.6341E+03
     17.189  0.1764E+02  0.6357E+03
     17.284  0.1775E+02  0.6374E+03
     17.378  0.1786E+02  0.6391E+03
     17.473  0.1796E+02  0.6408E+03
     17.568  0.1804E+02  0.6425E+03
     17.663  0.1812E+02  0.6442E+03
     17.758  0.1819E+02  0.6459E+03
     17.853  0.1826E+02  0.6476E+03
     17.947  0.1832E+02  0.6493E+03
     18.042  0.1838E+02  0.6510E+03
     18.137  0.1845E+02  0.6528E+03
     18.232  0.1852E+02  0.6545E+03
     18.327  0.1860E+02  0.6562E+03
     18.422  0.1868E+02  0.6580E+03
     18.517  0.1877E+02  0.6598E+03
     18.611  0.1886E+02  0.6615E+03
     18.706  0.1895E+02  0.6633E+03
     18.801  0.1903E+02  0.6651E+03
     18.896  0.1910E+02  0.6669E+03
     18.991  0.1916E+02  0.6687E+03
     19.086  0.1920E+02  0.6705E+03
     19.181  0.1921E+02  0.6723E+03
     19.275  0.1919E+02  0.6741E+03
     19.370  0.1913E+02  0.6759E+03
     19.465  0.1903E+02  0.6777E+03
     19.560  0.1887E+02  0.6794E+03
     19.655  0.1866E+02  0.6812E+03
     19.750  0.1837E+02  0.6829E+03
     19.844  0.1801E+02  0.6846E+03
     19.939  0.1755E+02  0.6862E+03
     20.034  0.1698E+02  0.6878E+03
     20.129  0.1629E+02  0.6894E+03
     20.224  0.1547E+02  0.6908E+03
     20.319  0.1450E+02  0.6922E+03
     20.414  0.1339E+02  0.6934E+03
     20.508  0.1215E+02  0.6946E+03
     20.603  0.1080E+02  0.6956E+03
     20.698  0.9401E+01  0.6965E+03
     20.793  0.7997E+01  0.6972E+03
     20.888  0.6646E+01  0.6979E+03
     20.983  0.5397E+01  0.6984E+03
     21.078  0.4288E+01  0.6988E+03
     21.172  0.3338E+01  0.6991E+03
     21.267  0.2553E+01  0.6993E+03
     21.362  0.1923E+01  0.6995E+03
     21.457  0.1429E+01  0.6996E+03
     21.552  0.1052E+01  0.6997E+03
     21.647  0.7669E+00  0.6998E+03
     21.741  0.5554E+00  0.6999E+03
     21.836  0.3998E+00  0.6999E+03
     21.931  0.2862E+00  0.6999E+03
     22.026  0.2038E+00  0.7000E+03
     22.121  0.1443E+00  0.7000E+03
     22.216  0.1014E+00  0.7000E+03
     22.311  0.7057E-01  0.7000E+03
     22.405  0.4846E-01  0.7000E+03
     22.500  0.3265E-01  0.7000E+03
     22.595  0.2137E-01  0.7000E+03
     22.690  0.1339E-01  0.7000E+03
     22.785  0.7846E-02  0.7000E+03
     22.880  0.4147E-02  0.7000E+03
     22.975  0.1893E-02  0.7000E+03
     23.069  0.7128E-03  0.7000E+03
     23.164  0.1900E-03  0.7000E+03
     23.259  0.1919E-04  0.7000E+03
     23.354  0.0000E+00  0.7000E+03
     23.449  0.0000E+00  0.7000E+03
     23.544  0.0000E+00  0.7000E+03
     23.638  0.0000E+00  0.7000E+03
     23.733  0.0000E+00  0.7000E+03
     23.828  0.0000E+00  0.7000E+03
