  48  48   0   0
  0.1747917E+02  0.7335170E-09  0.1078388E-08  0.1234636E-08  0.1500000E-14
   3000.00000000000     
  CAR 
 Ir_Ru                                   
     22.94011468     -4.89454603  301      7.26399175      1.00000000
     -4.895  0.0000E+00  0.0000E+00
     -4.802  0.0000E+00  0.0000E+00
     -4.709  0.0000E+00  0.0000E+00
     -4.616  0.0000E+00  0.0000E+00
     -4.523  0.0000E+00  0.0000E+00
     -4.431  0.1495E-05  0.1398E-06
     -4.338  0.2545E-03  0.2380E-04
     -4.245  0.5124E-03  0.7143E-04
     -4.152  0.9870E-03  0.1632E-03
     -4.060  0.1572E-02  0.3093E-03
     -3.967  0.2153E-02  0.5094E-03
     -3.874  0.2951E-02  0.7837E-03
     -3.781  0.4122E-02  0.1167E-02
     -3.688  0.5945E-02  0.1719E-02
     -3.596  0.8465E-02  0.2506E-02
     -3.503  0.1175E-01  0.3599E-02
     -3.410  0.1638E-01  0.5121E-02
     -3.317  0.2304E-01  0.7263E-02
     -3.224  0.3237E-01  0.1027E-01
     -3.132  0.4460E-01  0.1442E-01
     -3.039  0.6189E-01  0.2017E-01
     -2.946  0.8576E-01  0.2814E-01
     -2.853  0.1183E+00  0.3914E-01
     -2.761  0.1627E+00  0.5426E-01
     -2.668  0.2221E+00  0.7491E-01
     -2.575  0.3014E+00  0.1029E+00
     -2.482  0.4051E+00  0.1406E+00
     -2.389  0.5378E+00  0.1906E+00
     -2.297  0.7037E+00  0.2560E+00
     -2.204  0.9051E+00  0.3401E+00
     -2.111  0.1142E+01  0.4463E+00
     -2.018  0.1410E+01  0.5773E+00
     -1.926  0.1703E+01  0.7357E+00
     -1.833  0.2015E+01  0.9230E+00
     -1.740  0.2338E+01  0.1140E+01
     -1.647  0.2668E+01  0.1388E+01
     -1.554  0.3003E+01  0.1667E+01
     -1.462  0.3344E+01  0.1978E+01
     -1.369  0.3694E+01  0.2322E+01
     -1.276  0.4058E+01  0.2699E+01
     -1.183  0.4436E+01  0.3111E+01
     -1.090  0.4836E+01  0.3561E+01
     -0.998  0.5263E+01  0.4050E+01
     -0.905  0.5723E+01  0.4582E+01
     -0.812  0.6228E+01  0.5161E+01
     -0.719  0.6790E+01  0.5792E+01
     -0.627  0.7426E+01  0.6483E+01
     -0.534  0.8153E+01  0.7240E+01
     -0.441  0.8990E+01  0.8076E+01
     -0.348  0.9956E+01  0.9002E+01
     -0.255  0.1107E+02  0.1003E+02
     -0.163  0.1236E+02  0.1118E+02
     -0.070  0.1384E+02  0.1247E+02
      0.023  0.1552E+02  0.1391E+02
      0.116  0.1741E+02  0.1553E+02
      0.208  0.1953E+02  0.1734E+02
      0.301  0.2185E+02  0.1937E+02
      0.394  0.2434E+02  0.2164E+02
      0.487  0.2698E+02  0.2414E+02
      0.580  0.2972E+02  0.2691E+02
      0.672  0.3249E+02  0.2993E+02
      0.765  0.3526E+02  0.3321E+02
      0.858  0.3797E+02  0.3673E+02
      0.951  0.4059E+02  0.4051E+02
      1.044  0.4310E+02  0.4451E+02
      1.136  0.4547E+02  0.4874E+02
      1.229  0.4770E+02  0.5317E+02
      1.322  0.4978E+02  0.5780E+02
      1.415  0.5172E+02  0.6261E+02
      1.507  0.5352E+02  0.6758E+02
      1.600  0.5518E+02  0.7271E+02
      1.693  0.5671E+02  0.7798E+02
      1.786  0.5811E+02  0.8339E+02
      1.879  0.5938E+02  0.8891E+02
      1.971  0.6055E+02  0.9453E+02
      2.064  0.6160E+02  0.1003E+03
      2.157  0.6255E+02  0.1061E+03
      2.250  0.6340E+02  0.1120E+03
      2.342  0.6416E+02  0.1179E+03
      2.435  0.6483E+02  0.1240E+03
      2.528  0.6541E+02  0.1300E+03
      2.621  0.6591E+02  0.1362E+03
      2.714  0.6633E+02  0.1423E+03
      2.806  0.6666E+02  0.1485E+03
      2.899  0.6690E+02  0.1547E+03
      2.992  0.6706E+02  0.1610E+03
      3.085  0.6714E+02  0.1672E+03
      3.178  0.6714E+02  0.1735E+03
      3.270  0.6706E+02  0.1797E+03
      3.363  0.6692E+02  0.1859E+03
      3.456  0.6671E+02  0.1921E+03
      3.549  0.6646E+02  0.1983E+03
      3.641  0.6616E+02  0.2045E+03
      3.734  0.6582E+02  0.2106E+03
      3.827  0.6545E+02  0.2167E+03
      3.920  0.6505E+02  0.2227E+03
      4.013  0.6464E+02  0.2287E+03
      4.105  0.6421E+02  0.2347E+03
      4.198  0.6378E+02  0.2406E+03
      4.291  0.6335E+02  0.2465E+03
      4.384  0.6293E+02  0.2524E+03
      4.476  0.6252E+02  0.2582E+03
      4.569  0.6213E+02  0.2640E+03
      4.662  0.6175E+02  0.2697E+03
      4.755  0.6139E+02  0.2754E+03
      4.848  0.6107E+02  0.2811E+03
      4.940  0.6079E+02  0.2867E+03
      5.033  0.6054E+02  0.2924E+03
      5.126  0.6035E+02  0.2980E+03
      5.219  0.6021E+02  0.3036E+03
      5.311  0.6013E+02  0.3092E+03
      5.404  0.6011E+02  0.3148E+03
      5.497  0.6015E+02  0.3204E+03
      5.590  0.6025E+02  0.3260E+03
      5.683  0.6043E+02  0.3316E+03
      5.775  0.6067E+02  0.3372E+03
      5.868  0.6098E+02  0.3429E+03
      5.961  0.6136E+02  0.3486E+03
      6.054  0.6180E+02  0.3543E+03
      6.147  0.6229E+02  0.3601E+03
      6.239  0.6282E+02  0.3660E+03
      6.332  0.6339E+02  0.3719E+03
      6.425  0.6398E+02  0.3778E+03
      6.518  0.6458E+02  0.3838E+03
      6.610  0.6518E+02  0.3899E+03
      6.703  0.6574E+02  0.3960E+03
      6.796  0.6626E+02  0.4022E+03
      6.889  0.6669E+02  0.4084E+03
      6.982  0.6701E+02  0.4146E+03
      7.074  0.6719E+02  0.4208E+03
      7.167  0.6720E+02  0.4271E+03
      7.260  0.6700E+02  0.4333E+03
      7.353  0.6657E+02  0.4395E+03
      7.445  0.6589E+02  0.4456E+03
      7.538  0.6495E+02  0.4517E+03
      7.631  0.6376E+02  0.4576E+03
      7.724  0.6230E+02  0.4634E+03
      7.817  0.6058E+02  0.4690E+03
      7.909  0.5861E+02  0.4745E+03
      8.002  0.5639E+02  0.4797E+03
      8.095  0.5394E+02  0.4847E+03
      8.188  0.5128E+02  0.4895E+03
      8.281  0.4846E+02  0.4940E+03
      8.373  0.4551E+02  0.4982E+03
      8.466  0.4250E+02  0.5022E+03
      8.559  0.3949E+02  0.5059E+03
      8.652  0.3654E+02  0.5093E+03
      8.744  0.3371E+02  0.5124E+03
      8.837  0.3107E+02  0.5153E+03
      8.930  0.2865E+02  0.5180E+03
      9.023  0.2647E+02  0.5204E+03
      9.116  0.2455E+02  0.5227E+03
      9.208  0.2289E+02  0.5248E+03
      9.301  0.2147E+02  0.5268E+03
      9.394  0.2027E+02  0.5287E+03
      9.487  0.1926E+02  0.5305E+03
      9.579  0.1842E+02  0.5322E+03
      9.672  0.1772E+02  0.5339E+03
      9.765  0.1713E+02  0.5355E+03
      9.858  0.1664E+02  0.5370E+03
      9.951  0.1621E+02  0.5385E+03
     10.043  0.1585E+02  0.5400E+03
     10.136  0.1552E+02  0.5415E+03
     10.229  0.1524E+02  0.5429E+03
     10.322  0.1498E+02  0.5443E+03
     10.415  0.1474E+02  0.5456E+03
     10.507  0.1452E+02  0.5470E+03
     10.600  0.1432E+02  0.5483E+03
     10.693  0.1413E+02  0.5496E+03
     10.786  0.1396E+02  0.5509E+03
     10.878  0.1381E+02  0.5522E+03
     10.971  0.1369E+02  0.5535E+03
     11.064  0.1359E+02  0.5548E+03
     11.157  0.1352E+02  0.5560E+03
     11.250  0.1348E+02  0.5573E+03
     11.342  0.1347E+02  0.5585E+03
     11.435  0.1348E+02  0.5598E+03
     11.528  0.1352E+02  0.5610E+03
     11.621  0.1357E+02  0.5623E+03
     11.713  0.1363E+02  0.5636E+03
     11.806  0.1369E+02  0.5648E+03
     11.899  0.1375E+02  0.5661E+03
     11.992  0.1380E+02  0.5674E+03
     12.085  0.1385E+02  0.5687E+03
     12.177  0.1389E+02  0.5700E+03
     12.270  0.1392E+02  0.5713E+03
     12.363  0.1395E+02  0.5726E+03
     12.456  0.1397E+02  0.5739E+03
     12.549  0.1399E+02  0.5752E+03
     12.641  0.1401E+02  0.5765E+03
     12.734  0.1403E+02  0.5778E+03
     12.827  0.1405E+02  0.5791E+03
     12.920  0.1408E+02  0.5804E+03
     13.012  0.1411E+02  0.5817E+03
     13.105  0.1416E+02  0.5830E+03
     13.198  0.1422E+02  0.5843E+03
     13.291  0.1429E+02  0.5857E+03
     13.384  0.1438E+02  0.5870E+03
     13.476  0.1449E+02  0.5884E+03
     13.569  0.1461E+02  0.5897E+03
     13.662  0.1475E+02  0.5911E+03
     13.755  0.1490E+02  0.5925E+03
     13.847  0.1506E+02  0.5939E+03
     13.940  0.1523E+02  0.5953E+03
     14.033  0.1540E+02  0.5967E+03
     14.126  0.1556E+02  0.5982E+03
     14.219  0.1571E+02  0.5996E+03
     14.311  0.1585E+02  0.6011E+03
     14.404  0.1597E+02  0.6026E+03
     14.497  0.1608E+02  0.6041E+03
     14.590  0.1617E+02  0.6056E+03
     14.682  0.1625E+02  0.6071E+03
     14.775  0.1633E+02  0.6086E+03
     14.868  0.1639E+02  0.6101E+03
     14.961  0.1645E+02  0.6117E+03
     15.054  0.1651E+02  0.6132E+03
     15.146  0.1657E+02  0.6147E+03
     15.239  0.1663E+02  0.6163E+03
     15.332  0.1671E+02  0.6178E+03
     15.425  0.1679E+02  0.6194E+03
     15.518  0.1687E+02  0.6210E+03
     15.610  0.1697E+02  0.6226E+03
     15.703  0.1707E+02  0.6241E+03
     15.796  0.1717E+02  0.6257E+03
     15.889  0.1728E+02  0.6273E+03
     15.981  0.1738E+02  0.6290E+03
     16.074  0.1749E+02  0.6306E+03
     16.167  0.1759E+02  0.6322E+03
     16.260  0.1770E+02  0.6339E+03
     16.353  0.1780E+02  0.6355E+03
     16.445  0.1789E+02  0.6372E+03
     16.538  0.1797E+02  0.6389E+03
     16.631  0.1805E+02  0.6405E+03
     16.724  0.1811E+02  0.6422E+03
     16.816  0.1817E+02  0.6439E+03
     16.909  0.1822E+02  0.6456E+03
     17.002  0.1826E+02  0.6473E+03
     17.095  0.1830E+02  0.6490E+03
     17.188  0.1834E+02  0.6507E+03
     17.280  0.1839E+02  0.6524E+03
     17.373  0.1844E+02  0.6541E+03
     17.466  0.1850E+02  0.6559E+03
     17.559  0.1856E+02  0.6576E+03
     17.652  0.1863E+02  0.6593E+03
     17.744  0.1870E+02  0.6610E+03
     17.837  0.1877E+02  0.6628E+03
     17.930  0.1884E+02  0.6645E+03
     18.023  0.1892E+02  0.6663E+03
     18.115  0.1898E+02  0.6681E+03
     18.208  0.1903E+02  0.6698E+03
     18.301  0.1907E+02  0.6716E+03
     18.394  0.1907E+02  0.6734E+03
     18.487  0.1905E+02  0.6752E+03
     18.579  0.1898E+02  0.6769E+03
     18.672  0.1886E+02  0.6787E+03
     18.765  0.1869E+02  0.6804E+03
     18.858  0.1845E+02  0.6821E+03
     18.950  0.1813E+02  0.6838E+03
     19.043  0.1774E+02  0.6855E+03
     19.136  0.1724E+02  0.6871E+03
     19.229  0.1664E+02  0.6886E+03
     19.322  0.1591E+02  0.6901E+03
     19.414  0.1504E+02  0.6915E+03
     19.507  0.1402E+02  0.6928E+03
     19.600  0.1286E+02  0.6940E+03
     19.693  0.1158E+02  0.6951E+03
     19.786  0.1020E+02  0.6960E+03
     19.878  0.8798E+01  0.6968E+03
     19.971  0.7412E+01  0.6975E+03
     20.064  0.6102E+01  0.6981E+03
     20.157  0.4913E+01  0.6986E+03
     20.249  0.3874E+01  0.6989E+03
     20.342  0.2998E+01  0.6992E+03
     20.435  0.2282E+01  0.6994E+03
     20.528  0.1714E+01  0.6996E+03
     20.621  0.1272E+01  0.6997E+03
     20.713  0.9352E+00  0.6998E+03
     20.806  0.6823E+00  0.6998E+03
     20.899  0.4947E+00  0.6999E+03
     20.992  0.3566E+00  0.6999E+03
     21.084  0.2557E+00  0.6999E+03
     21.177  0.1824E+00  0.7000E+03
     21.270  0.1294E+00  0.7000E+03
     21.363  0.9106E-01  0.7000E+03
     21.456  0.6341E-01  0.7000E+03
     21.548  0.4350E-01  0.7000E+03
     21.641  0.2923E-01  0.7000E+03
     21.734  0.1902E-01  0.7000E+03
     21.827  0.1176E-01  0.7000E+03
     21.920  0.6762E-02  0.7000E+03
     22.012  0.3468E-02  0.7000E+03
     22.105  0.1539E-02  0.7000E+03
     22.198  0.5480E-03  0.7000E+03
     22.291  0.1535E-03  0.7000E+03
     22.383  0.1654E-05  0.7000E+03
     22.476  0.0000E+00  0.7000E+03
     22.569  0.0000E+00  0.7000E+03
     22.662  0.0000E+00  0.7000E+03
     22.755  0.0000E+00  0.7000E+03
     22.847  0.0000E+00  0.7000E+03
     22.940  0.0000E+00  0.7000E+03
     23.01968017     -4.98262792  301      7.27579130      1.00000000
     -4.983  0.0000E+00  0.0000E+00
     -4.889  0.0000E+00  0.0000E+00
     -4.796  0.0000E+00  0.0000E+00
     -4.703  0.0000E+00  0.0000E+00
     -4.609  0.0000E+00  0.0000E+00
     -4.516  0.2215E-05  0.2069E-06
     -4.423  0.2576E-03  0.2417E-04
     -4.329  0.5027E-03  0.7094E-04
     -4.236  0.9987E-03  0.1639E-03
     -4.143  0.1557E-02  0.3087E-03
     -4.049  0.2158E-02  0.5095E-03
     -3.956  0.2987E-02  0.7874E-03
     -3.863  0.4232E-02  0.1181E-02
     -3.769  0.6005E-02  0.1740E-02
     -3.676  0.8586E-02  0.2539E-02
     -3.583  0.1183E-01  0.3640E-02
     -3.489  0.1661E-01  0.5185E-02
     -3.396  0.2339E-01  0.7362E-02
     -3.302  0.3274E-01  0.1041E-01
     -3.209  0.4516E-01  0.1461E-01
     -3.116  0.6271E-01  0.2044E-01
     -3.022  0.8704E-01  0.2854E-01
     -2.929  0.1200E+00  0.3970E-01
     -2.836  0.1649E+00  0.5505E-01
     -2.742  0.2255E+00  0.7603E-01
     -2.649  0.3059E+00  0.1045E+00
     -2.556  0.4113E+00  0.1428E+00
     -2.462  0.5463E+00  0.1936E+00
     -2.369  0.7152E+00  0.2601E+00
     -2.276  0.9203E+00  0.3458E+00
     -2.182  0.1161E+01  0.4538E+00
     -2.089  0.1435E+01  0.5874E+00
     -1.996  0.1735E+01  0.7488E+00
     -1.902  0.2054E+01  0.9399E+00
     -1.809  0.2384E+01  0.1162E+01
     -1.716  0.2721E+01  0.1415E+01
     -1.622  0.3062E+01  0.1700E+01
     -1.529  0.3408E+01  0.2017E+01
     -1.436  0.3762E+01  0.2367E+01
     -1.342  0.4128E+01  0.2751E+01
     -1.249  0.4509E+01  0.3170E+01
     -1.156  0.4911E+01  0.3627E+01
     -1.062  0.5340E+01  0.4124E+01
     -0.969  0.5805E+01  0.4664E+01
     -0.876  0.6317E+01  0.5252E+01
     -0.782  0.6890E+01  0.5893E+01
     -0.689  0.7541E+01  0.6595E+01
     -0.596  0.8287E+01  0.7366E+01
     -0.502  0.9147E+01  0.8217E+01
     -0.409  0.1014E+02  0.9160E+01
     -0.316  0.1128E+02  0.1021E+02
     -0.222  0.1260E+02  0.1138E+02
     -0.129  0.1409E+02  0.1269E+02
     -0.036  0.1578E+02  0.1416E+02
      0.058  0.1766E+02  0.1580E+02
      0.151  0.1974E+02  0.1764E+02
      0.244  0.2200E+02  0.1969E+02
      0.338  0.2441E+02  0.2196E+02
      0.431  0.2696E+02  0.2447E+02
      0.524  0.2961E+02  0.2722E+02
      0.618  0.3232E+02  0.3023E+02
      0.711  0.3506E+02  0.3349E+02
      0.805  0.3779E+02  0.3701E+02
      0.898  0.4048E+02  0.4078E+02
      0.991  0.4308E+02  0.4478E+02
      1.085  0.4558E+02  0.4902E+02
      1.178  0.4794E+02  0.5348E+02
      1.271  0.5015E+02  0.5815E+02
      1.365  0.5219E+02  0.6301E+02
      1.458  0.5406E+02  0.6804E+02
      1.551  0.5576E+02  0.7322E+02
      1.645  0.5729E+02  0.7855E+02
      1.738  0.5866E+02  0.8401E+02
      1.831  0.5989E+02  0.8958E+02
      1.925  0.6098E+02  0.9526E+02
      2.018  0.6194E+02  0.1010E+03
      2.111  0.6280E+02  0.1069E+03
      2.205  0.6356E+02  0.1128E+03
      2.298  0.6422E+02  0.1188E+03
      2.391  0.6479E+02  0.1248E+03
      2.485  0.6527E+02  0.1309E+03
      2.578  0.6565E+02  0.1370E+03
      2.671  0.6595E+02  0.1431E+03
      2.765  0.6617E+02  0.1493E+03
      2.858  0.6631E+02  0.1554E+03
      2.951  0.6639E+02  0.1616E+03
      3.045  0.6641E+02  0.1678E+03
      3.138  0.6638E+02  0.1740E+03
      3.231  0.6631E+02  0.1801E+03
      3.325  0.6620E+02  0.1863E+03
      3.418  0.6605E+02  0.1924E+03
      3.511  0.6586E+02  0.1986E+03
      3.605  0.6564E+02  0.2047E+03
      3.698  0.6537E+02  0.2108E+03
      3.791  0.6508E+02  0.2168E+03
      3.885  0.6475E+02  0.2228E+03
      3.978  0.6440E+02  0.2288E+03
      4.071  0.6403E+02  0.2348E+03
      4.165  0.6364E+02  0.2407E+03
      4.258  0.6323E+02  0.2466E+03
      4.351  0.6281E+02  0.2525E+03
      4.445  0.6239E+02  0.2583E+03
      4.538  0.6198E+02  0.2640E+03
      4.631  0.6158E+02  0.2698E+03
      4.725  0.6120E+02  0.2755E+03
      4.818  0.6085E+02  0.2811E+03
      4.912  0.6054E+02  0.2868E+03
      5.005  0.6027E+02  0.2924E+03
      5.098  0.6006E+02  0.2980E+03
      5.192  0.5991E+02  0.3035E+03
      5.285  0.5981E+02  0.3091E+03
      5.378  0.5978E+02  0.3147E+03
      5.472  0.5980E+02  0.3202E+03
      5.565  0.5988E+02  0.3258E+03
      5.658  0.6003E+02  0.3314E+03
      5.752  0.6024E+02  0.3370E+03
      5.845  0.6051E+02  0.3426E+03
      5.938  0.6084E+02  0.3483E+03
      6.032  0.6124E+02  0.3540E+03
      6.125  0.6170E+02  0.3597E+03
      6.218  0.6222E+02  0.3655E+03
      6.312  0.6278E+02  0.3714E+03
      6.405  0.6337E+02  0.3773E+03
      6.498  0.6399E+02  0.3832E+03
      6.592  0.6462E+02  0.3892E+03
      6.685  0.6522E+02  0.3953E+03
      6.778  0.6579E+02  0.4014E+03
      6.872  0.6629E+02  0.4076E+03
      6.965  0.6670E+02  0.4138E+03
      7.058  0.6697E+02  0.4200E+03
      7.152  0.6709E+02  0.4263E+03
      7.245  0.6702E+02  0.4325E+03
      7.338  0.6673E+02  0.4387E+03
      7.432  0.6620E+02  0.4449E+03
      7.525  0.6540E+02  0.4510E+03
      7.618  0.6431E+02  0.4570E+03
      7.712  0.6292E+02  0.4628E+03
      7.805  0.6123E+02  0.4685E+03
      7.898  0.5924E+02  0.4740E+03
      7.992  0.5696E+02  0.4793E+03
      8.085  0.5442E+02  0.4844E+03
      8.178  0.5165E+02  0.4892E+03
      8.272  0.4871E+02  0.4937E+03
      8.365  0.4566E+02  0.4980E+03
      8.458  0.4255E+02  0.5019E+03
      8.552  0.3946E+02  0.5056E+03
      8.645  0.3645E+02  0.5090E+03
      8.739  0.3360E+02  0.5121E+03
      8.832  0.3094E+02  0.5150E+03
      8.925  0.2853E+02  0.5177E+03
      9.019  0.2637E+02  0.5201E+03
      9.112  0.2447E+02  0.5224E+03
      9.205  0.2284E+02  0.5245E+03
      9.299  0.2145E+02  0.5265E+03
      9.392  0.2027E+02  0.5284E+03
      9.485  0.1929E+02  0.5302E+03
      9.579  0.1846E+02  0.5319E+03
      9.672  0.1778E+02  0.5336E+03
      9.765  0.1721E+02  0.5352E+03
      9.859  0.1673E+02  0.5368E+03
      9.952  0.1633E+02  0.5383E+03
     10.045  0.1598E+02  0.5398E+03
     10.139  0.1568E+02  0.5412E+03
     10.232  0.1542E+02  0.5427E+03
     10.325  0.1518E+02  0.5441E+03
     10.419  0.1496E+02  0.5455E+03
     10.512  0.1475E+02  0.5469E+03
     10.605  0.1455E+02  0.5482E+03
     10.699  0.1436E+02  0.5496E+03
     10.792  0.1418E+02  0.5509E+03
     10.885  0.1400E+02  0.5522E+03
     10.979  0.1384E+02  0.5535E+03
     11.072  0.1370E+02  0.5547E+03
     11.165  0.1358E+02  0.5560E+03
     11.259  0.1348E+02  0.5573E+03
     11.352  0.1341E+02  0.5585E+03
     11.445  0.1337E+02  0.5598E+03
     11.539  0.1336E+02  0.5610E+03
     11.632  0.1337E+02  0.5622E+03
     11.725  0.1340E+02  0.5635E+03
     11.819  0.1345E+02  0.5647E+03
     11.912  0.1351E+02  0.5660E+03
     12.005  0.1357E+02  0.5673E+03
     12.099  0.1364E+02  0.5685E+03
     12.192  0.1371E+02  0.5698E+03
     12.285  0.1378E+02  0.5711E+03
     12.379  0.1385E+02  0.5724E+03
     12.472  0.1392E+02  0.5737E+03
     12.565  0.1398E+02  0.5750E+03
     12.659  0.1404E+02  0.5763E+03
     12.752  0.1410E+02  0.5776E+03
     12.846  0.1415E+02  0.5789E+03
     12.939  0.1419E+02  0.5802E+03
     13.032  0.1422E+02  0.5816E+03
     13.126  0.1424E+02  0.5829E+03
     13.219  0.1426E+02  0.5842E+03
     13.312  0.1428E+02  0.5855E+03
     13.406  0.1431E+02  0.5869E+03
     13.499  0.1435E+02  0.5882E+03
     13.592  0.1441E+02  0.5896E+03
     13.686  0.1448E+02  0.5909E+03
     13.779  0.1457E+02  0.5923E+03
     13.872  0.1468E+02  0.5936E+03
     13.966  0.1480E+02  0.5950E+03
     14.059  0.1493E+02  0.5964E+03
     14.152  0.1506E+02  0.5978E+03
     14.246  0.1520E+02  0.5992E+03
     14.339  0.1534E+02  0.6006E+03
     14.432  0.1549E+02  0.6021E+03
     14.526  0.1563E+02  0.6035E+03
     14.619  0.1577E+02  0.6050E+03
     14.712  0.1590E+02  0.6065E+03
     14.806  0.1603E+02  0.6080E+03
     14.899  0.1616E+02  0.6095E+03
     14.992  0.1627E+02  0.6110E+03
     15.086  0.1638E+02  0.6125E+03
     15.179  0.1649E+02  0.6140E+03
     15.272  0.1659E+02  0.6156E+03
     15.366  0.1669E+02  0.6171E+03
     15.459  0.1679E+02  0.6187E+03
     15.552  0.1689E+02  0.6203E+03
     15.646  0.1699E+02  0.6219E+03
     15.739  0.1709E+02  0.6234E+03
     15.832  0.1719E+02  0.6250E+03
     15.926  0.1729E+02  0.6267E+03
     16.019  0.1738E+02  0.6283E+03
     16.112  0.1747E+02  0.6299E+03
     16.206  0.1755E+02  0.6315E+03
     16.299  0.1762E+02  0.6332E+03
     16.392  0.1768E+02  0.6348E+03
     16.486  0.1775E+02  0.6365E+03
     16.579  0.1781E+02  0.6381E+03
     16.672  0.1787E+02  0.6398E+03
     16.766  0.1794E+02  0.6415E+03
     16.859  0.1802E+02  0.6431E+03
     16.953  0.1811E+02  0.6448E+03
     17.046  0.1820E+02  0.6465E+03
     17.139  0.1830E+02  0.6482E+03
     17.233  0.1841E+02  0.6499E+03
     17.326  0.1851E+02  0.6517E+03
     17.419  0.1861E+02  0.6534E+03
     17.513  0.1871E+02  0.6551E+03
     17.606  0.1880E+02  0.6569E+03
     17.699  0.1889E+02  0.6586E+03
     17.793  0.1897E+02  0.6604E+03
     17.886  0.1905E+02  0.6622E+03
     17.979  0.1913E+02  0.6640E+03
     18.073  0.1920E+02  0.6657E+03
     18.166  0.1927E+02  0.6675E+03
     18.259  0.1932E+02  0.6693E+03
     18.353  0.1935E+02  0.6711E+03
     18.446  0.1936E+02  0.6729E+03
     18.539  0.1933E+02  0.6747E+03
     18.633  0.1926E+02  0.6765E+03
     18.726  0.1913E+02  0.6783E+03
     18.819  0.1895E+02  0.6801E+03
     18.913  0.1869E+02  0.6818E+03
     19.006  0.1837E+02  0.6835E+03
     19.099  0.1796E+02  0.6852E+03
     19.193  0.1745E+02  0.6868E+03
     19.286  0.1684E+02  0.6884E+03
     19.379  0.1611E+02  0.6899E+03
     19.473  0.1524E+02  0.6913E+03
     19.566  0.1422E+02  0.6926E+03
     19.659  0.1306E+02  0.6938E+03
     19.753  0.1177E+02  0.6949E+03
     19.846  0.1040E+02  0.6959E+03
     19.939  0.8984E+01  0.6967E+03
     20.033  0.7583E+01  0.6975E+03
     20.126  0.6254E+01  0.6980E+03
     20.219  0.5043E+01  0.6985E+03
     20.313  0.3982E+01  0.6989E+03
     20.406  0.3085E+01  0.6992E+03
     20.499  0.2350E+01  0.6994E+03
     20.593  0.1766E+01  0.6995E+03
     20.686  0.1311E+01  0.6997E+03
     20.779  0.9644E+00  0.6998E+03
     20.873  0.7037E+00  0.6998E+03
     20.966  0.5101E+00  0.6999E+03
     21.060  0.3677E+00  0.6999E+03
     21.153  0.2637E+00  0.6999E+03
     21.246  0.1881E+00  0.7000E+03
     21.340  0.1334E+00  0.7000E+03
     21.433  0.9391E-01  0.7000E+03
     21.526  0.6548E-01  0.7000E+03
     21.620  0.4497E-01  0.7000E+03
     21.713  0.3025E-01  0.7000E+03
     21.806  0.1971E-01  0.7000E+03
     21.900  0.1225E-01  0.7000E+03
     21.993  0.7075E-02  0.7000E+03
     22.086  0.3642E-02  0.7000E+03
     22.180  0.1615E-02  0.7000E+03
     22.273  0.5833E-03  0.7000E+03
     22.366  0.1614E-03  0.7000E+03
     22.460  0.2391E-05  0.7000E+03
     22.553  0.0000E+00  0.7000E+03
     22.646  0.0000E+00  0.7000E+03
     22.740  0.0000E+00  0.7000E+03
     22.833  0.0000E+00  0.7000E+03
     22.926  0.0000E+00  0.7000E+03
     23.020  0.0000E+00  0.7000E+03
     22.99925068     -4.95458925  301      7.27678350      1.00000000
     -4.955  0.0000E+00  0.0000E+00
     -4.861  0.0000E+00  0.0000E+00
     -4.768  0.0000E+00  0.0000E+00
     -4.675  0.0000E+00  0.0000E+00
     -4.582  0.0000E+00  0.0000E+00
     -4.489  0.6908E-05  0.6458E-06
     -4.396  0.2543E-03  0.2435E-04
     -4.302  0.5358E-03  0.7429E-04
     -4.209  0.1079E-02  0.1749E-03
     -4.116  0.1619E-02  0.3258E-03
     -4.023  0.2238E-02  0.5344E-03
     -3.930  0.3062E-02  0.8198E-03
     -3.836  0.4166E-02  0.1208E-02
     -3.743  0.6138E-02  0.1780E-02
     -3.650  0.8740E-02  0.2595E-02
     -3.557  0.1208E-01  0.3721E-02
     -3.464  0.1697E-01  0.5302E-02
     -3.371  0.2379E-01  0.7520E-02
     -3.277  0.3348E-01  0.1064E-01
     -3.184  0.4625E-01  0.1495E-01
     -3.091  0.6411E-01  0.2093E-01
     -2.998  0.8880E-01  0.2920E-01
     -2.905  0.1225E+00  0.4062E-01
     -2.811  0.1686E+00  0.5633E-01
     -2.718  0.2304E+00  0.7781E-01
     -2.625  0.3125E+00  0.1069E+00
     -2.532  0.4199E+00  0.1461E+00
     -2.439  0.5571E+00  0.1980E+00
     -2.346  0.7280E+00  0.2659E+00
     -2.252  0.9347E+00  0.3530E+00
     -2.159  0.1176E+01  0.4626E+00
     -2.066  0.1448E+01  0.5976E+00
     -1.973  0.1744E+01  0.7601E+00
     -1.880  0.2055E+01  0.9517E+00
     -1.786  0.2377E+01  0.1173E+01
     -1.693  0.2704E+01  0.1425E+01
     -1.600  0.3037E+01  0.1708E+01
     -1.507  0.3378E+01  0.2023E+01
     -1.414  0.3731E+01  0.2371E+01
     -1.321  0.4098E+01  0.2753E+01
     -1.227  0.4484E+01  0.3171E+01
     -1.134  0.4894E+01  0.3627E+01
     -1.041  0.5333E+01  0.4124E+01
     -0.948  0.5810E+01  0.4665E+01
     -0.855  0.6338E+01  0.5256E+01
     -0.762  0.6933E+01  0.5902E+01
     -0.668  0.7614E+01  0.6612E+01
     -0.575  0.8400E+01  0.7395E+01
     -0.482  0.9310E+01  0.8262E+01
     -0.389  0.1036E+02  0.9228E+01
     -0.296  0.1157E+02  0.1031E+02
     -0.202  0.1294E+02  0.1151E+02
     -0.109  0.1449E+02  0.1286E+02
     -0.016  0.1622E+02  0.1437E+02
      0.077  0.1812E+02  0.1606E+02
      0.170  0.2019E+02  0.1795E+02
      0.263  0.2241E+02  0.2003E+02
      0.357  0.2476E+02  0.2234E+02
      0.450  0.2720E+02  0.2488E+02
      0.543  0.2972E+02  0.2765E+02
      0.636  0.3227E+02  0.3065E+02
      0.729  0.3482E+02  0.3390E+02
      0.823  0.3734E+02  0.3738E+02
      0.916  0.3981E+02  0.4109E+02
      1.009  0.4220E+02  0.4502E+02
      1.102  0.4449E+02  0.4917E+02
      1.195  0.4668E+02  0.5352E+02
      1.288  0.4876E+02  0.5807E+02
      1.382  0.5074E+02  0.6280E+02
      1.475  0.5260E+02  0.6770E+02
      1.568  0.5435E+02  0.7276E+02
      1.661  0.5598E+02  0.7798E+02
      1.754  0.5749E+02  0.8334E+02
      1.848  0.5887E+02  0.8883E+02
      1.941  0.6012E+02  0.9443E+02
      2.034  0.6124E+02  0.1001E+03
      2.127  0.6223E+02  0.1059E+03
      2.220  0.6309E+02  0.1118E+03
      2.313  0.6384E+02  0.1178E+03
      2.407  0.6447E+02  0.1238E+03
      2.500  0.6501E+02  0.1298E+03
      2.593  0.6546E+02  0.1359E+03
      2.686  0.6582E+02  0.1421E+03
      2.779  0.6610E+02  0.1482E+03
      2.872  0.6631E+02  0.1544E+03
      2.966  0.6645E+02  0.1606E+03
      3.059  0.6652E+02  0.1668E+03
      3.152  0.6651E+02  0.1730E+03
      3.245  0.6645E+02  0.1792E+03
      3.338  0.6633E+02  0.1854E+03
      3.432  0.6614E+02  0.1916E+03
      3.525  0.6591E+02  0.1977E+03
      3.618  0.6562E+02  0.2038E+03
      3.711  0.6529E+02  0.2099E+03
      3.804  0.6492E+02  0.2160E+03
      3.897  0.6452E+02  0.2220E+03
      3.991  0.6409E+02  0.2279E+03
      4.084  0.6363E+02  0.2339E+03
      4.177  0.6316E+02  0.2398E+03
      4.270  0.6268E+02  0.2456E+03
      4.363  0.6220E+02  0.2514E+03
      4.457  0.6173E+02  0.2572E+03
      4.550  0.6128E+02  0.2629E+03
      4.643  0.6086E+02  0.2686E+03
      4.736  0.6047E+02  0.2742E+03
      4.829  0.6013E+02  0.2798E+03
      4.922  0.5984E+02  0.2854E+03
      5.016  0.5961E+02  0.2909E+03
      5.109  0.5944E+02  0.2965E+03
      5.202  0.5934E+02  0.3020E+03
      5.295  0.5931E+02  0.3075E+03
      5.388  0.5934E+02  0.3131E+03
      5.482  0.5944E+02  0.3186E+03
      5.575  0.5959E+02  0.3242E+03
      5.668  0.5982E+02  0.3298E+03
      5.761  0.6010E+02  0.3354E+03
      5.854  0.6045E+02  0.3410E+03
      5.947  0.6085E+02  0.3467E+03
      6.041  0.6132E+02  0.3524E+03
      6.134  0.6184E+02  0.3581E+03
      6.227  0.6240E+02  0.3640E+03
      6.320  0.6299E+02  0.3698E+03
      6.413  0.6360E+02  0.3758E+03
      6.506  0.6421E+02  0.3818E+03
      6.600  0.6481E+02  0.3878E+03
      6.693  0.6537E+02  0.3939E+03
      6.786  0.6588E+02  0.4000E+03
      6.879  0.6629E+02  0.4062E+03
      6.972  0.6659E+02  0.4124E+03
      7.066  0.6677E+02  0.4186E+03
      7.159  0.6678E+02  0.4249E+03
      7.252  0.6663E+02  0.4311E+03
      7.345  0.6627E+02  0.4373E+03
      7.438  0.6569E+02  0.4434E+03
      7.531  0.6487E+02  0.4494E+03
      7.625  0.6380E+02  0.4554E+03
      7.718  0.6246E+02  0.4612E+03
      7.811  0.6086E+02  0.4669E+03
      7.904  0.5899E+02  0.4724E+03
      7.997  0.5686E+02  0.4777E+03
      8.091  0.5450E+02  0.4828E+03
      8.184  0.5192E+02  0.4876E+03
      8.277  0.4917E+02  0.4922E+03
      8.370  0.4629E+02  0.4965E+03
      8.463  0.4332E+02  0.5005E+03
      8.556  0.4034E+02  0.5043E+03
      8.650  0.3741E+02  0.5078E+03
      8.743  0.3457E+02  0.5110E+03
      8.836  0.3190E+02  0.5140E+03
      8.929  0.2943E+02  0.5167E+03
      9.022  0.2719E+02  0.5193E+03
      9.116  0.2521E+02  0.5216E+03
      9.209  0.2347E+02  0.5238E+03
      9.302  0.2199E+02  0.5259E+03
      9.395  0.2072E+02  0.5278E+03
      9.488  0.1966E+02  0.5296E+03
      9.581  0.1878E+02  0.5314E+03
      9.675  0.1804E+02  0.5331E+03
      9.768  0.1743E+02  0.5347E+03
      9.861  0.1691E+02  0.5363E+03
      9.954  0.1648E+02  0.5378E+03
     10.047  0.1611E+02  0.5393E+03
     10.140  0.1579E+02  0.5408E+03
     10.234  0.1550E+02  0.5422E+03
     10.327  0.1523E+02  0.5437E+03
     10.420  0.1498E+02  0.5451E+03
     10.513  0.1474E+02  0.5464E+03
     10.606  0.1451E+02  0.5478E+03
     10.700  0.1428E+02  0.5491E+03
     10.793  0.1407E+02  0.5504E+03
     10.886  0.1388E+02  0.5517E+03
     10.979  0.1370E+02  0.5530E+03
     11.072  0.1354E+02  0.5543E+03
     11.165  0.1341E+02  0.5555E+03
     11.259  0.1330E+02  0.5568E+03
     11.352  0.1322E+02  0.5580E+03
     11.445  0.1318E+02  0.5592E+03
     11.538  0.1316E+02  0.5605E+03
     11.631  0.1318E+02  0.5617E+03
     11.725  0.1322E+02  0.5629E+03
     11.818  0.1328E+02  0.5642E+03
     11.911  0.1335E+02  0.5654E+03
     12.004  0.1343E+02  0.5667E+03
     12.097  0.1351E+02  0.5679E+03
     12.190  0.1359E+02  0.5692E+03
     12.284  0.1367E+02  0.5705E+03
     12.377  0.1375E+02  0.5717E+03
     12.470  0.1382E+02  0.5730E+03
     12.563  0.1389E+02  0.5743E+03
     12.656  0.1395E+02  0.5756E+03
     12.750  0.1401E+02  0.5769E+03
     12.843  0.1407E+02  0.5782E+03
     12.936  0.1412E+02  0.5796E+03
     13.029  0.1418E+02  0.5809E+03
     13.122  0.1423E+02  0.5822E+03
     13.215  0.1429E+02  0.5835E+03
     13.309  0.1435E+02  0.5849E+03
     13.402  0.1442E+02  0.5862E+03
     13.495  0.1450E+02  0.5876E+03
     13.588  0.1458E+02  0.5889E+03
     13.681  0.1467E+02  0.5903E+03
     13.774  0.1477E+02  0.5917E+03
     13.868  0.1487E+02  0.5931E+03
     13.961  0.1497E+02  0.5945E+03
     14.054  0.1507E+02  0.5959E+03
     14.147  0.1517E+02  0.5973E+03
     14.240  0.1527E+02  0.5987E+03
     14.334  0.1538E+02  0.6001E+03
     14.427  0.1548E+02  0.6016E+03
     14.520  0.1559E+02  0.6030E+03
     14.613  0.1571E+02  0.6045E+03
     14.706  0.1582E+02  0.6060E+03
     14.799  0.1593E+02  0.6075E+03
     14.893  0.1604E+02  0.6090E+03
     14.986  0.1614E+02  0.6105E+03
     15.079  0.1624E+02  0.6120E+03
     15.172  0.1634E+02  0.6135E+03
     15.265  0.1644E+02  0.6150E+03
     15.359  0.1654E+02  0.6166E+03
     15.452  0.1664E+02  0.6181E+03