  48  48   0   0
  0.1728187E+02  0.8946086E-09  0.8015611E-09  0.1275295E-08  0.3000000E-14
   3000.00000000000     
  CAR 
 Ir-Ru                                   
     23.15260739     -4.91630423  301      7.39507110      1.00000000
     -4.916  0.0000E+00  0.0000E+00
     -4.823  0.0000E+00  0.0000E+00
     -4.729  0.0000E+00  0.0000E+00
     -4.636  0.0000E+00  0.0000E+00
     -4.542  0.0000E+00  0.0000E+00
     -4.448  0.6203E-04  0.5823E-05
     -4.355  0.2355E-03  0.2760E-04
     -4.261  0.6416E-03  0.8711E-04
     -4.168  0.5681E-03  0.1398E-03
     -4.074  0.1273E-02  0.2579E-03
     -3.981  0.2317E-02  0.4729E-03
     -3.887  0.3270E-02  0.7762E-03
     -3.794  0.4441E-02  0.1188E-02
     -3.700  0.5825E-02  0.1728E-02
     -3.606  0.8253E-02  0.2494E-02
     -3.513  0.1126E-01  0.3539E-02
     -3.419  0.1588E-01  0.5012E-02
     -3.326  0.2254E-01  0.7103E-02
     -3.232  0.3145E-01  0.1002E-01
     -3.139  0.4361E-01  0.1407E-01
     -3.045  0.6082E-01  0.1971E-01
     -2.951  0.8418E-01  0.2752E-01
     -2.858  0.1155E+00  0.3824E-01
     -2.764  0.1587E+00  0.5297E-01
     -2.671  0.2165E+00  0.7306E-01
     -2.577  0.2936E+00  0.1003E+00
     -2.484  0.3940E+00  0.1369E+00
     -2.390  0.5233E+00  0.1854E+00
     -2.297  0.6854E+00  0.2490E+00
     -2.203  0.8837E+00  0.3310E+00
     -2.109  0.1118E+01  0.4348E+00
     -2.016  0.1388E+01  0.5636E+00
     -1.922  0.1686E+01  0.7199E+00
     -1.829  0.2004E+01  0.9059E+00
     -1.735  0.2333E+01  0.1122E+01
     -1.642  0.2663E+01  0.1369E+01
     -1.548  0.2987E+01  0.1646E+01
     -1.454  0.3307E+01  0.1953E+01
     -1.361  0.3628E+01  0.2290E+01
     -1.267  0.3960E+01  0.2657E+01
     -1.174  0.4315E+01  0.3057E+01
     -1.080  0.4704E+01  0.3493E+01
     -0.987  0.5131E+01  0.3969E+01
     -0.893  0.5600E+01  0.4489E+01
     -0.800  0.6114E+01  0.5056E+01
     -0.706  0.6677E+01  0.5675E+01
     -0.612  0.7300E+01  0.6352E+01
     -0.519  0.7997E+01  0.7094E+01
     -0.425  0.8792E+01  0.7910E+01
     -0.332  0.9708E+01  0.8810E+01
     -0.238  0.1077E+02  0.9809E+01
     -0.145  0.1200E+02  0.1092E+02
     -0.051  0.1342E+02  0.1217E+02
      0.043  0.1503E+02  0.1356E+02
      0.136  0.1683E+02  0.1512E+02
      0.230  0.1883E+02  0.1687E+02
      0.323  0.2100E+02  0.1882E+02
      0.417  0.2333E+02  0.2098E+02
      0.510  0.2580E+02  0.2338E+02
      0.604  0.2836E+02  0.2601E+02
      0.697  0.3099E+02  0.2888E+02
      0.791  0.3364E+02  0.3200E+02
      0.885  0.3628E+02  0.3537E+02
      0.978  0.3887E+02  0.3898E+02
      1.072  0.4138E+02  0.4281E+02
      1.165  0.4378E+02  0.4687E+02
      1.259  0.4606E+02  0.5115E+02
      1.352  0.4820E+02  0.5562E+02
      1.446  0.5021E+02  0.6027E+02
      1.540  0.5207E+02  0.6510E+02
      1.633  0.5380E+02  0.7009E+02
      1.727  0.5540E+02  0.7523E+02
      1.820  0.5687E+02  0.8050E+02
      1.914  0.5823E+02  0.8590E+02
      2.007  0.5948E+02  0.9142E+02
      2.101  0.6061E+02  0.9704E+02
      2.194  0.6165E+02  0.1028E+03
      2.288  0.6257E+02  0.1086E+03
      2.382  0.6340E+02  0.1144E+03
      2.475  0.6413E+02  0.1204E+03
      2.569  0.6476E+02  0.1264E+03
      2.662  0.6530E+02  0.1324E+03
      2.756  0.6575E+02  0.1385E+03
      2.849  0.6612E+02  0.1447E+03
      2.943  0.6641E+02  0.1508E+03
      3.037  0.6663E+02  0.1570E+03
      3.130  0.6677E+02  0.1632E+03
      3.224  0.6684E+02  0.1694E+03
      3.317  0.6685E+02  0.1756E+03
      3.411  0.6679E+02  0.1818E+03
      3.504  0.6667E+02  0.1880E+03
      3.598  0.6651E+02  0.1941E+03
      3.691  0.6630E+02  0.2003E+03
      3.785  0.6605E+02  0.2064E+03
      3.879  0.6576E+02  0.2125E+03
      3.972  0.6545E+02  0.2186E+03
      4.066  0.6510E+02  0.2246E+03
      4.159  0.6473E+02  0.2306E+03
      4.253  0.6434E+02  0.2366E+03
      4.346  0.6394E+02  0.2425E+03
      4.440  0.6353E+02  0.2484E+03
      4.534  0.6312E+02  0.2543E+03
      4.627  0.6272E+02  0.2601E+03
      4.721  0.6233E+02  0.2659E+03
      4.814  0.6196E+02  0.2716E+03
      4.908  0.6162E+02  0.2773E+03
      5.001  0.6129E+02  0.2830E+03
      5.095  0.6100E+02  0.2887E+03
      5.189  0.6075E+02  0.2943E+03
      5.282  0.6053E+02  0.2999E+03
      5.376  0.6035E+02  0.3055E+03
      5.469  0.6022E+02  0.3111E+03
      5.563  0.6014E+02  0.3167E+03
      5.656  0.6012E+02  0.3223E+03
      5.750  0.6017E+02  0.3278E+03
      5.843  0.6028E+02  0.3334E+03
      5.937  0.6046E+02  0.3390E+03
      6.031  0.6071E+02  0.3447E+03
      6.124  0.6104E+02  0.3503E+03
      6.218  0.6144E+02  0.3560E+03
      6.311  0.6191E+02  0.3618E+03
      6.405  0.6244E+02  0.3676E+03
      6.498  0.6301E+02  0.3734E+03
      6.592  0.6362E+02  0.3793E+03
      6.686  0.6424E+02  0.3853E+03
      6.779  0.6486E+02  0.3913E+03
      6.873  0.6546E+02  0.3974E+03
      6.966  0.6601E+02  0.4035E+03
      7.060  0.6648E+02  0.4096E+03
      7.153  0.6684E+02  0.4158E+03
      7.247  0.6706E+02  0.4221E+03
      7.340  0.6710E+02  0.4283E+03
      7.434  0.6695E+02  0.4345E+03
      7.528  0.6656E+02  0.4407E+03
      7.621  0.6591E+02  0.4468E+03
      7.715  0.6500E+02  0.4528E+03
      7.808  0.6380E+02  0.4587E+03
      7.902  0.6231E+02  0.4645E+03
      7.995  0.6053E+02  0.4701E+03
      8.089  0.5847E+02  0.4755E+03
      8.183  0.5614E+02  0.4807E+03
      8.276  0.5358E+02  0.4857E+03
      8.370  0.5081E+02  0.4904E+03
      8.463  0.4789E+02  0.4949E+03
      8.557  0.4486E+02  0.4990E+03
      8.650  0.4179E+02  0.5029E+03
      8.744  0.3875E+02  0.5065E+03
      8.837  0.3578E+02  0.5098E+03
      8.931  0.3296E+02  0.5129E+03
      9.025  0.3034E+02  0.5157E+03
      9.118  0.2794E+02  0.5183E+03
      9.212  0.2580E+02  0.5207E+03
      9.305  0.2391E+02  0.5229E+03
      9.399  0.2229E+02  0.5250E+03
      9.492  0.2091E+02  0.5269E+03
      9.586  0.1974E+02  0.5288E+03
      9.680  0.1877E+02  0.5305E+03
      9.773  0.1796E+02  0.5322E+03
      9.867  0.1727E+02  0.5338E+03
      9.960  0.1669E+02  0.5353E+03
     10.054  0.1620E+02  0.5368E+03
     10.147  0.1578E+02  0.5383E+03
     10.241  0.1542E+02  0.5397E+03
     10.334  0.1512E+02  0.5411E+03
     10.428  0.1487E+02  0.5425E+03
     10.522  0.1467E+02  0.5439E+03
     10.615  0.1449E+02  0.5452E+03
     10.709  0.1435E+02  0.5466E+03
     10.802  0.1424E+02  0.5479E+03
     10.896  0.1414E+02  0.5492E+03
     10.989  0.1405E+02  0.5505E+03
     11.083  0.1398E+02  0.5518E+03
     11.177  0.1392E+02  0.5531E+03
     11.270  0.1386E+02  0.5544E+03
     11.364  0.1382E+02  0.5557E+03
     11.457  0.1378E+02  0.5569E+03
     11.551  0.1376E+02  0.5582E+03
     11.644  0.1376E+02  0.5595E+03
     11.738  0.1376E+02  0.5608E+03
     11.831  0.1377E+02  0.5620E+03
     11.925  0.1379E+02  0.5633E+03
     12.019  0.1381E+02  0.5646E+03
     12.112  0.1382E+02  0.5659E+03
     12.206  0.1383E+02  0.5672E+03
     12.299  0.1384E+02  0.5685E+03
     12.393  0.1384E+02  0.5697E+03
     12.486  0.1383E+02  0.5710E+03
     12.580  0.1384E+02  0.5723E+03
     12.674  0.1384E+02  0.5736E+03
     12.767  0.1385E+02  0.5749E+03
     12.861  0.1387E+02  0.5762E+03
     12.954  0.1389E+02  0.5774E+03
     13.048  0.1392E+02  0.5787E+03
     13.141  0.1396E+02  0.5800E+03
     13.235  0.1401E+02  0.5813E+03
     13.328  0.1406E+02  0.5826E+03
     13.422  0.1413E+02  0.5839E+03
     13.516  0.1420E+02  0.5853E+03
     13.609  0.1429E+02  0.5866E+03
     13.703  0.1438E+02  0.5879E+03
     13.796  0.1447E+02  0.5893E+03
     13.890  0.1455E+02  0.5906E+03
     13.983  0.1464E+02  0.5920E+03
     14.077  0.1472E+02  0.5933E+03
     14.171  0.1480E+02  0.5947E+03
     14.264  0.1487E+02  0.5961E+03
     14.358  0.1495E+02  0.5975E+03
     14.451  0.1503E+02  0.5989E+03
     14.545  0.1512E+02  0.6003E+03
     14.638  0.1522E+02  0.6017E+03
     14.732  0.1533E+02  0.6031E+03
     14.825  0.1545E+02  0.6045E+03
     14.919  0.1557E+02  0.6060E+03
     15.013  0.1570E+02  0.6074E+03
     15.106  0.1582E+02  0.6089E+03
     15.200  0.1595E+02  0.6104E+03
     15.293  0.1607E+02  0.6119E+03
     15.387  0.1618E+02  0.6134E+03
     15.480  0.1630E+02  0.6149E+03
     15.574  0.1641E+02  0.6164E+03
     15.668  0.1653E+02  0.6179E+03
     15.761  0.1665E+02  0.6195E+03
     15.855  0.1677E+02  0.6210E+03
     15.948  0.1688E+02  0.6226E+03
     16.042  0.1699E+02  0.6242E+03
     16.135  0.1710E+02  0.6258E+03
     16.229  0.1720E+02  0.6274E+03
     16.323  0.1730E+02  0.6290E+03
     16.416  0.1740E+02  0.6306E+03
     16.510  0.1749E+02  0.6322E+03
     16.603  0.1759E+02  0.6338E+03
     16.697  0.1769E+02  0.6355E+03
     16.790  0.1779E+02  0.6371E+03
     16.884  0.1788E+02  0.6388E+03
     16.977  0.1798E+02  0.6405E+03
     17.071  0.1808E+02  0.6421E+03
     17.165  0.1817E+02  0.6438E+03
     17.258  0.1827E+02  0.6455E+03
     17.352  0.1837E+02  0.6472E+03
     17.445  0.1848E+02  0.6489E+03
     17.539  0.1859E+02  0.6507E+03
     17.632  0.1870E+02  0.6524E+03
     17.726  0.1882E+02  0.6541E+03
     17.820  0.1894E+02  0.6559E+03
     17.913  0.1906E+02  0.6577E+03
     18.007  0.1918E+02  0.6594E+03
     18.100  0.1929E+02  0.6612E+03
     18.194  0.1939E+02  0.6630E+03
     18.287  0.1948E+02  0.6648E+03
     18.381  0.1955E+02  0.6667E+03
     18.474  0.1959E+02  0.6685E+03
     18.568  0.1961E+02  0.6703E+03
     18.662  0.1960E+02  0.6721E+03
     18.755  0.1955E+02  0.6739E+03
     18.849  0.1945E+02  0.6757E+03
     18.942  0.1931E+02  0.6775E+03
     19.036  0.1911E+02  0.6793E+03
     19.129  0.1887E+02  0.6810E+03
     19.223  0.1857E+02  0.6828E+03
     19.317  0.1820E+02  0.6844E+03
     19.410  0.1776E+02  0.6861E+03
     19.504  0.1722E+02  0.6877E+03
     19.597  0.1656E+02  0.6892E+03
     19.691  0.1576E+02  0.6907E+03
     19.784  0.1482E+02  0.6921E+03
     19.878  0.1371E+02  0.6933E+03
     19.971  0.1246E+02  0.6945E+03
     20.065  0.1110E+02  0.6955E+03
     20.159  0.9664E+01  0.6964E+03
     20.252  0.8222E+01  0.6972E+03
     20.346  0.6830E+01  0.6978E+03
     20.439  0.5544E+01  0.6983E+03
     20.533  0.4402E+01  0.6987E+03
     20.626  0.3426E+01  0.6991E+03
     20.720  0.2621E+01  0.6993E+03
     20.814  0.1975E+01  0.6995E+03
     20.907  0.1470E+01  0.6996E+03
     21.001  0.1084E+01  0.6997E+03
     21.094  0.7924E+00  0.6998E+03
     21.188  0.5755E+00  0.6999E+03
     21.281  0.4157E+00  0.6999E+03
     21.375  0.2988E+00  0.6999E+03
     21.468  0.2137E+00  0.6999E+03
     21.562  0.1520E+00  0.7000E+03
     21.656  0.1074E+00  0.7000E+03
     21.749  0.7527E-01  0.7000E+03
     21.843  0.5203E-01  0.7000E+03
     21.936  0.3524E-01  0.7000E+03
     22.030  0.2326E-01  0.7000E+03
     22.123  0.1470E-01  0.7000E+03
     22.217  0.8648E-02  0.7000E+03
     22.311  0.4646E-02  0.7000E+03
     22.404  0.2107E-02  0.7000E+03
     22.498  0.7591E-03  0.7000E+03
     22.591  0.7049E-04  0.7000E+03
     22.685  0.0000E+00  0.7000E+03
     22.778  0.0000E+00  0.7000E+03
     22.872  0.0000E+00  0.7000E+03
     22.965  0.0000E+00  0.7000E+03
     23.059  0.0000E+00  0.7000E+03
     23.153  0.0000E+00  0.7000E+03
     23.22513014     -4.84773750  301      7.48269845      1.00000000
     -4.848  0.0000E+00  0.0000E+00
     -4.754  0.0000E+00  0.0000E+00
     -4.661  0.0000E+00  0.0000E+00
     -4.567  0.0000E+00  0.0000E+00
     -4.473  0.0000E+00  0.0000E+00
     -4.380  0.8573E-04  0.8048E-05
     -4.286  0.2133E-03  0.2787E-04
     -4.193  0.6936E-03  0.9254E-04
     -4.099  0.6626E-03  0.1544E-03
     -4.006  0.1189E-02  0.2652E-03
     -3.912  0.2200E-02  0.4702E-03
     -3.818  0.2972E-02  0.7473E-03
     -3.725  0.4570E-02  0.1173E-02
     -3.631  0.6288E-02  0.1760E-02
     -3.538  0.8356E-02  0.2538E-02
     -3.444  0.1154E-01  0.3614E-02
     -3.351  0.1608E-01  0.5112E-02
     -3.257  0.2281E-01  0.7239E-02
     -3.163  0.3159E-01  0.1018E-01
     -3.070  0.4428E-01  0.1431E-01
     -2.976  0.6157E-01  0.2005E-01
     -2.883  0.8502E-01  0.2798E-01
     -2.789  0.1177E+00  0.3895E-01
     -2.695  0.1615E+00  0.5400E-01
     -2.602  0.2205E+00  0.7456E-01
     -2.508  0.2984E+00  0.1024E+00
     -2.415  0.4001E+00  0.1397E+00
     -2.321  0.5303E+00  0.1891E+00
     -2.228  0.6927E+00  0.2537E+00
     -2.134  0.8896E+00  0.3366E+00
     -2.040  0.1122E+01  0.4412E+00
     -1.947  0.1387E+01  0.5706E+00
     -1.853  0.1681E+01  0.7272E+00
     -1.760  0.1994E+01  0.9131E+00
     -1.666  0.2318E+01  0.1129E+01
     -1.573  0.2643E+01  0.1375E+01
     -1.479  0.2962E+01  0.1652E+01
     -1.385  0.3271E+01  0.1956E+01
     -1.292  0.3575E+01  0.2290E+01
     -1.198  0.3881E+01  0.2651E+01
     -1.105  0.4203E+01  0.3043E+01
     -1.011  0.4555E+01  0.3468E+01
     -0.918  0.4951E+01  0.3929E+01
     -0.824  0.5397E+01  0.4432E+01
     -0.730  0.5900E+01  0.4982E+01
     -0.637  0.6465E+01  0.5584E+01
     -0.543  0.7096E+01  0.6246E+01
     -0.450  0.7803E+01  0.6973E+01
     -0.356  0.8600E+01  0.7774E+01
     -0.263  0.9505E+01  0.8660E+01
     -0.169  0.1054E+02  0.9643E+01
     -0.075  0.1174E+02  0.1074E+02
      0.018  0.1313E+02  0.1196E+02
      0.112  0.1472E+02  0.1333E+02
      0.205  0.1654E+02  0.1488E+02
      0.299  0.1857E+02  0.1661E+02
      0.393  0.2081E+02  0.1855E+02
      0.486  0.2323E+02  0.2071E+02
      0.580  0.2578E+02  0.2311E+02
      0.673  0.2842E+02  0.2576E+02
      0.767  0.3111E+02  0.2866E+02
      0.860  0.3380E+02  0.3181E+02
      0.954  0.3644E+02  0.3521E+02
      1.048  0.3901E+02  0.3885E+02
      1.141  0.4148E+02  0.4271E+02
      1.235  0.4383E+02  0.4680E+02
      1.328  0.4606E+02  0.5109E+02
      1.422  0.4816E+02  0.5558E+02
      1.515  0.5012E+02  0.6025E+02
      1.609  0.5195E+02  0.6509E+02
      1.703  0.5364E+02  0.7009E+02
      1.796  0.5520E+02  0.7524E+02
      1.890  0.5664E+02  0.8052E+02
      1.983  0.5796E+02  0.8592E+02
      2.077  0.5916E+02  0.9143E+02
      2.170  0.6026E+02  0.9705E+02
      2.264  0.6125E+02  0.1028E+03
      2.358  0.6214E+02  0.1085E+03
      2.451  0.6293E+02  0.1144E+03
      2.545  0.6364E+02  0.1203E+03
      2.638  0.6426E+02  0.1263E+03
      2.732  0.6479E+02  0.1324E+03
      2.826  0.6524E+02  0.1385E+03
      2.919  0.6562E+02  0.1446E+03
      3.013  0.6591E+02  0.1507E+03
      3.106  0.6614E+02  0.1569E+03
      3.200  0.6629E+02  0.1631E+03
      3.293  0.6638E+02  0.1692E+03
      3.387  0.6641E+02  0.1754E+03
      3.481  0.6638E+02  0.1816E+03
      3.574  0.6630E+02  0.1878E+03
      3.668  0.6616E+02  0.1940E+03
      3.761  0.6597E+02  0.2001E+03
      3.855  0.6573E+02  0.2063E+03
      3.948  0.6545E+02  0.2124E+03
      4.042  0.6514E+02  0.2184E+03
      4.136  0.6478E+02  0.2245E+03
      4.229  0.6440E+02  0.2305E+03
      4.323  0.6399E+02  0.2364E+03
      4.416  0.6357E+02  0.2424E+03
      4.510  0.6314E+02  0.2483E+03
      4.603  0.6272E+02  0.2541E+03
      4.697  0.6231E+02  0.2599E+03
      4.791  0.6190E+02  0.2657E+03
      4.884  0.6151E+02  0.2714E+03
      4.978  0.6115E+02  0.2771E+03
      5.071  0.6080E+02  0.2828E+03
      5.165  0.6048E+02  0.2884E+03
      5.258  0.6020E+02  0.2940E+03
      5.352  0.5996E+02  0.2996E+03
      5.446  0.5976E+02  0.3052E+03
      5.539  0.5962E+02  0.3108E+03
      5.633  0.5954E+02  0.3163E+03
      5.726  0.5952E+02  0.3219E+03
      5.820  0.5958E+02  0.3274E+03
      5.914  0.5970E+02  0.3330E+03
      6.007  0.5989E+02  0.3386E+03
      6.101  0.6016E+02  0.3442E+03
      6.194  0.6049E+02  0.3498E+03
      6.288  0.6090E+02  0.3555E+03
      6.381  0.6137E+02  0.3612E+03
      6.475  0.6191E+02  0.3670E+03
      6.569  0.6250E+02  0.3728E+03
      6.662  0.6313E+02  0.3787E+03
      6.756  0.6379E+02  0.3846E+03
      6.849  0.6444E+02  0.3907E+03
      6.943  0.6508E+02  0.3967E+03
      7.036  0.6566E+02  0.4028E+03
      7.130  0.6617E+02  0.4090E+03
      7.224  0.6656E+02  0.4152E+03
      7.317  0.6682E+02  0.4214E+03
      7.411  0.6691E+02  0.4277E+03
      7.504  0.6680E+02  0.4339E+03
      7.598  0.6648E+02  0.4401E+03
      7.691  0.6590E+02  0.4463E+03
      7.785  0.6506E+02  0.4523E+03
      7.879  0.6393E+02  0.4583E+03
      7.972  0.6249E+02  0.4641E+03
      8.066  0.6073E+02  0.4698E+03
      8.159  0.5866E+02  0.4752E+03
      8.253  0.5630E+02  0.4805E+03
      8.347  0.5367E+02  0.4855E+03
      8.440  0.5082E+02  0.4902E+03
      8.534  0.4780E+02  0.4947E+03
      8.627  0.4468E+02  0.4989E+03
      8.721  0.4154E+02  0.5027E+03
      8.814  0.3844E+02  0.5063E+03
      8.908  0.3547E+02  0.5096E+03
      9.002  0.3267E+02  0.5127E+03
      9.095  0.3011E+02  0.5155E+03
      9.189  0.2779E+02  0.5181E+03
      9.282  0.2574E+02  0.5205E+03
      9.376  0.2395E+02  0.5227E+03
      9.469  0.2240E+02  0.5248E+03
      9.563  0.2108E+02  0.5268E+03
      9.657  0.1995E+02  0.5286E+03
      9.750  0.1899E+02  0.5304E+03
      9.844  0.1819E+02  0.5321E+03
      9.937  0.1750E+02  0.5337E+03
     10.031  0.1692E+02  0.5353E+03
     10.124  0.1642E+02  0.5368E+03
     10.218  0.1599E+02  0.5383E+03
     10.312  0.1560E+02  0.5398E+03
     10.405  0.1526E+02  0.5412E+03
     10.499  0.1495E+02  0.5426E+03
     10.592  0.1466E+02  0.5440E+03
     10.686  0.1440E+02  0.5453E+03
     10.779  0.1417E+02  0.5466E+03
     10.873  0.1396E+02  0.5480E+03
     10.967  0.1378E+02  0.5492E+03
     11.060  0.1363E+02  0.5505E+03
     11.154  0.1350E+02  0.5518E+03
     11.247  0.1339E+02  0.5530E+03
     11.341  0.1329E+02  0.5543E+03
     11.435  0.1320E+02  0.5555E+03
     11.528  0.1312E+02  0.5567E+03
     11.622  0.1304E+02  0.5579E+03
     11.715  0.1298E+02  0.5591E+03
     11.809  0.1292E+02  0.5603E+03
     11.902  0.1288E+02  0.5615E+03
     11.996  0.1286E+02  0.5627E+03
     12.090  0.1287E+02  0.5639E+03
     12.183  0.1290E+02  0.5651E+03
     12.277  0.1295E+02  0.5664E+03
     12.370  0.1303E+02  0.5676E+03
     12.464  0.1313E+02  0.5688E+03
     12.557  0.1325E+02  0.5700E+03
     12.651  0.1338E+02  0.5713E+03
     12.745  0.1350E+02  0.5725E+03
     12.838  0.1363E+02  0.5738E+03
     12.932  0.1376E+02  0.5751E+03
     13.025  0.1389E+02  0.5764E+03
     13.119  0.1401E+02  0.5777E+03
     13.212  0.1412E+02  0.5790E+03
     13.306  0.1423E+02  0.5803E+03
     13.400  0.1434E+02  0.5817E+03
     13.493  0.1444E+02  0.5830E+03
     13.587  0.1455E+02  0.5844E+03
     13.680  0.1465E+02  0.5857E+03
     13.774  0.1475E+02  0.5871E+03
     13.868  0.1485E+02  0.5885E+03
     13.961  0.1495E+02  0.5899E+03
     14.055  0.1506E+02  0.5913E+03
     14.148  0.1517E+02  0.5927E+03
     14.242  0.1529E+02  0.5941E+03
     14.335  0.1541E+02  0.5956E+03
     14.429  0.1554E+02  0.5970E+03
     14.523  0.1567E+02  0.5985E+03
     14.616  0.1580E+02  0.6000E+03
     14.710  0.1592E+02  0.6014E+03
     14.803  0.1604E+02  0.6029E+03
     14.897  0.1616E+02  0.6044E+03
     14.990  0.1627E+02  0.6060E+03
     15.084  0.1638E+02  0.6075E+03
     15.178  0.1647E+02  0.6090E+03
     15.271  0.1656E+02  0.6106E+03
     15.365  0.1664E+02  0.6121E+03
     15.458  0.1671E+02  0.6137E+03
     15.552  0.1676E+02  0.6152E+03
     15.645  0.1681E+02  0.6168E+03
     15.739  0.1686E+02  0.6184E+03
     15.833  0.1690E+02  0.6200E+03
     15.926  0.1694E+02  0.6215E+03
     16.020  0.1697E+02  0.6231E+03
     16.113  0.1700E+02  0.6247E+03
     16.207  0.1704E+02  0.6263E+03
     16.300  0.1709E+02  0.6279E+03
     16.394  0.1715E+02  0.6295E+03
     16.488  0.1721E+02  0.6311E+03
     16.581  0.1729E+02  0.6327E+03
     16.675  0.1738E+02  0.6343E+03
     16.768  0.1747E+02  0.6359E+03
     16.862  0.1757E+02  0.6376E+03
     16.956  0.1767E+02  0.6392E+03
     17.049  0.1778E+02  0.6409E+03
     17.143  0.1789E+02  0.6426E+03
     17.236  0.1801E+02  0.6442E+03
     17.330  0.1812E+02  0.6459E+03
     17.423  0.1822E+02  0.6476E+03
     17.517  0.1832E+02  0.6493E+03
     17.611  0.1841E+02  0.6511E+03
     17.704  0.1851E+02  0.6528E+03
     17.798  0.1860E+02  0.6545E+03
     17.891  0.1869E+02  0.6563E+03
     17.985  0.1878E+02  0.6580E+03
     18.078  0.1887E+02  0.6598E+03
     18.172  0.1897E+02  0.6615E+03
     18.266  0.1906E+02  0.6633E+03
     18.359  0.1914E+02  0.6651E+03
     18.453  0.1920E+02  0.6669E+03
     18.546  0.1925E+02  0.6687E+03
     18.640  0.1927E+02  0.6705E+03
     18.733  0.1926E+02  0.6723E+03
     18.827  0.1922E+02  0.6741E+03
     18.921  0.1913E+02  0.6758E+03
     19.014  0.1901E+02  0.6776E+03
     19.108  0.1883E+02  0.6794E+03
     19.201  0.1861E+02  0.6811E+03
     19.295  0.1832E+02  0.6828E+03
     19.389  0.1797E+02  0.6845E+03
     19.482  0.1754E+02  0.6861E+03
     19.576  0.1701E+02  0.6877E+03
     19.669  0.1637E+02  0.6892E+03
     19.763  0.1559E+02  0.6907E+03
     19.856  0.1466E+02  0.6921E+03
     19.950  0.1358E+02  0.6933E+03
     20.044  0.1236E+02  0.6945E+03
     20.137  0.1102E+02  0.6955E+03
     20.231  0.9614E+01  0.6964E+03
     20.324  0.8194E+01  0.6972E+03
     20.418  0.6820E+01  0.6978E+03
     20.511  0.5545E+01  0.6983E+03
     20.605  0.4410E+01  0.6987E+03
     20.699  0.3437E+01  0.6991E+03
     20.792  0.2631E+01  0.6993E+03
     20.886  0.1984E+01  0.6995E+03
     20.979  0.1477E+01  0.6996E+03
     21.073  0.1089E+01  0.6997E+03
     21.166  0.7955E+00  0.6998E+03
     21.260  0.5774E+00  0.6999E+03
     21.354  0.4167E+00  0.6999E+03
     21.447  0.2992E+00  0.6999E+03
     21.541  0.2137E+00  0.6999E+03
     21.634  0.1518E+00  0.7000E+03
     21.728  0.1072E+00  0.7000E+03
     21.821  0.7493E-01  0.7000E+03
     21.915  0.5176E-01  0.7000E+03
     22.009  0.3510E-01  0.7000E+03
     22.102  0.2310E-01  0.7000E+03
     22.196  0.1458E-01  0.7000E+03
     22.289  0.8606E-02  0.7000E+03
     22.383  0.4648E-02  0.7000E+03
     22.477  0.2170E-02  0.7000E+03
     22.570  0.8237E-03  0.7000E+03
     22.664  0.9782E-04  0.7000E+03
     22.757  0.0000E+00  0.7000E+03
     22.851  0.0000E+00  0.7000E+03
     22.944  0.0000E+00  0.7000E+03
     23.038  0.0000E+00  0.7000E+03
     23.132  0.0000E+00  0.7000E+03
     23.225  0.0000E+00  0.7000E+03
     22.85240457     -4.92370748  301      7.31194660      1.00000000
     -4.924  0.0000E+00  0.0000E+00
     -4.831  0.0000E+00  0.0000E+00
     -4.739  0.0000E+00  0.0000E+00
     -4.646  0.0000E+00  0.0000E+00
     -4.553  0.0000E+00  0.0000E+00
     -4.461  0.1190E-03  0.1119E-04
     -4.368  0.1808E-03  0.2802E-04
     -4.276  0.7280E-03  0.9605E-04
     -4.183  0.1044E-02  0.1936E-03
     -4.090  0.9560E-03  0.2830E-03
     -3.998  0.2073E-02  0.4766E-03
     -3.905  0.3220E-02  0.7777E-03
     -3.813  0.4516E-02  0.1200E-02
     -3.720  0.6322E-02  0.1791E-02
     -3.627  0.8533E-02  0.2588E-02
     -3.535  0.1168E-01  0.3680E-02
     -3.442  0.1662E-01  0.5233E-02
     -3.350  0.2357E-01  0.7437E-02
     -3.257  0.3285E-01  0.1051E-01
     -3.165  0.4599E-01  0.1481E-01
     -3.072  0.6345E-01  0.2074E-01
     -2.979  0.8759E-01  0.2893E-01
     -2.887  0.1210E+00  0.4023E-01
     -2.794  0.1664E+00  0.5579E-01
     -2.702  0.2271E+00  0.7702E-01
     -2.609  0.3083E+00  0.1058E+00
     -2.516  0.4130E+00  0.1445E+00
     -2.424  0.5466E+00  0.1955E+00
     -2.331  0.7127E+00  0.2622E+00
     -2.239  0.9137E+00  0.3476E+00
     -2.146  0.1149E+01  0.4550E+00
     -2.054  0.1418E+01  0.5876E+00
     -1.961  0.1714E+01  0.7478E+00
     -1.868  0.2031E+01  0.9376E+00
     -1.776  0.2361E+01  0.1158E+01
     -1.683  0.2698E+01  0.1411E+01
     -1.591  0.3035E+01  0.1694E+01
     -1.498  0.3369E+01  0.2009E+01
     -1.405  0.3703E+01  0.2355E+01
     -1.313  0.4042E+01  0.2733E+01
     -1.220  0.4396E+01  0.3144E+01
     -1.128  0.4776E+01  0.3590E+01
     -1.035  0.5190E+01  0.4075E+01
     -0.942  0.5648E+01  0.4603E+01
     -0.850  0.6163E+01  0.5179E+01
     -0.757  0.6750E+01  0.5810E+01
     -0.665  0.7425E+01  0.6504E+01
     -0.572  0.8209E+01  0.7271E+01
     -0.480  0.9117E+01  0.8124E+01
     -0.387  0.1017E+02  0.9074E+01
     -0.294  0.1137E+02  0.1014E+02
     -0.202  0.1274E+02  0.1133E+02
     -0.109  0.1428E+02  0.1266E+02
     -0.017  0.1601E+02  0.1416E+02
      0.076  0.1794E+02  0.1584E+02
      0.169  0.2005E+02  0.1771E+02
      0.261  0.2233E+02  0.1980E+02
      0.354  0.2475E+02  0.2211E+02
      0.446  0.2728E+02  0.2466E+02
      0.539  0.2988E+02  0.2746E+02
      0.632  0.3249E+02  0.3049E+02
      0.724  0.3508E+02  0.3377E+02
      0.817  0.3762E+02  0.3729E+02
      0.909  0.4007E+02  0.4103E+02
      1.002  0.4242E+02  0.4500E+02
      1.094  0.4465E+02  0.4917E+02
      1.187  0.4674E+02  0.5354E+02
      1.280  0.4871E+02  0.5809E+02
      1.372  0.5054E+02  0.6282E+02
      1.465  0.5224E+02  0.6770E+02
      1.557  0.5381E+02  0.7273E+02
      1.650  0.5526E+02  0.7789E+02
      1.743  0.5659E+02  0.8318E+02
      1.835  0.5780E+02  0.8858E+02
      1.928  0.5890E+02  0.9408E+02
      2.020  0.5990E+02  0.9968E+02
      2.113  0.6079E+02  0.1054E+03
      2.205  0.6158E+02  0.1111E+03
      2.298  0.6229E+02  0.1169E+03
      2.391  0.6290E+02  0.1228E+03
      2.483  0.6344E+02  0.1287E+03
      2.576  0.6391E+02  0.1347E+03
      2.668  0.6432E+02  0.1407E+03
      2.761  0.6466E+02  0.1468E+03
      2.854  0.6493E+02  0.1528E+03
      2.946  0.6515E+02  0.1589E+03
      3.039  0.6531E+02  0.1650E+03
      3.131  0.6541E+02  0.1711E+03
      3.224  0.6545E+02  0.1773E+03
      3.317  0.6543E+02  0.1834E+03
      3.409  0.6534E+02  0.1895E+03
      3.502  0.6520E+02  0.1956E+03
      3.594  0.6500E+02  0.2017E+03
      3.687  0.6475E+02  0.2077E+03
      3.779  0.6446E+02  0.2137E+03
      3.872  0.6414E+02  0.2197E+03
      3.965  0.6378E+02  0.2257E+03
      4.057  0.6340E+02  0.2316E+03
      4.150  0.6301E+02  0.2375E+03
      4.242  0.6260E+02  0.2434E+03
      4.335  0.6219E+02  0.2492E+03
      4.428  0.6178E+02  0.2550E+03
      4.520  0.6138E+02  0.2607E+03
      4.613  0.6099E+02  0.2664E+03
      4.705  0.6062E+02  0.2721E+03
      4.798  0.6027E+02  0.2777E+03
      4.891  0.5996E+02  0.2833E+03
      4.983  0.5969E+02  0.2889E+03
      5.076  0.5945E+02  0.2944E+03
      5.168  0.5927E+02  0.3000E+03
      5.261  0.5914E+02  0.3055E+03
      5.353  0.5905E+02  0.3110E+03
      5.446  0.5902E+02  0.3165E+03
      5.539  0.5905E+02  0.3221E+03
      5.631  0.5913E+02  0.3276E+03
      5.724  0.5926E+02  0.3331E+03
      5.816  0.5946E+02  0.3387E+03
      5.909  0.5973E+02  0.3443E+03
      6.002  0.6006E+02  0.3499E+03
      6.094  0.6046E+02  0.3555E+03
      6.187  0.6092E+02  0.3612E+03
      6.279  0.6143E+02  0.3670E+03
      6.372  0.6199E+02  0.3728E+03
      6.464  0.6258E+02  0.3786E+03
      6.557  0.6319E+02  0.3845E+03
      6.650  0.6381E+02  0.3905E+03
      6.742  0.6442E+02  0.3965E+03
      6.835  0.6498E+02  0.4026E+03
      6.927  0.6548E+02  0.4087E+03
      7.020  0.6587E+02  0.4149E+03
      7.113  0.6614E+02  0.4210E+03
      7.205  0.6625E+02  0.4272E+03
      7.298  0.6616E+02  0.4334E+03
      7.390  0.6585E+02  0.4396E+03
      7.483  0.6528E+02  0.4457E+03
      7.576  0.6445E+02  0.4517E+03
      7.668  0.6333E+02  0.4576E+03
      7.761  0.6192E+02  0.4634E+03
      7.853  0.6022E+02  0.4690E+03
      7.946  0.5824E+02  0.4745E+03
      8.038  0.5598E+02  0.4797E+03
      8.131  0.5349E+02  0.4847E+03
      8.224  0.5078E+02  0.4895E+03
      8.316  0.4791E+02  0.4940E+03
      8.409  0.4493E+02  0.4982E+03
      8.501  0.4190E+02  0.5021E+03
      8.594  0.3889E+02  0.5057E+03
      8.687  0.3595E+02  0.5091E+03
      8.779  0.3316E+02  0.5122E+03
      8.872  0.3056E+02  0.5150E+03
      8.964  0.2819E+02  0.5177E+03
      9.057  0.2607E+02  0.5201E+03
      9.150  0.2421E+02  0.5224E+03
      9.242  0.2259E+02  0.5245E+03
      9.335  0.2121E+02  0.5265E+03
      9.427  0.2003E+02  0.5283E+03
      9.520  0.1904E+02  0.5301E+03
      9.612  0.1820E+02  0.5318E+03
      9.705  0.1748E+02  0.5335E+03
      9.798  0.1688E+02  0.5350E+03
      9.890  0.1637E+02  0.5366E+03
      9.983  0.1593E+02  0.5381E+03
     10.075  0.1556E+02  0.5395E+03
     10.168  0.1524E+02  0.5410E+03
     10.261  0.1496E+02  0.5424E+03
     10.353  0.1472E+02  0.5437E+03
     10.446  0.1450E+02  0.5451E+03
     10.538  0.1431E+02  0.5464E+03
     10.631  0.1415E+02  0.5478E+03
     10.724  0.1400E+02  0.5491E+03
     10.816  0.1387E+02  0.5504E+03
     10.909  0.1376E+02  0.5516E+03
     11.001  0.1367E+02  0.5529E+03
     11.094  0.1359E+02  0.5542E+03
     11.186  0.1352E+02  0.5555E+03
     11.279  0.1346E+02  0.5567E+03
     11.372  0.1341E+02  0.5580E+03
     11.464  0.1337E+02  0.5592E+03
     11.557  0.1333E+02  0.5605E+03
     11.649  0.1330E+02  0.5617E+03
     11.742  0.1327E+02  0.5630E+03
     11.835  0.1324E+02  0.5642E+03
     11.927  0.1322E+02  0.5654E+03
     12.020  0.1320E+02  0.5667E+03
     12.112  0.1320E+02  0.5679E+03
     12.205  0.1320E+02  0.5691E+03
     12.297  0.1322E+02  0.5704E+03
     12.390  0.1325E+02  0.5716E+03
     12.483  0.1328E+02  0.5728E+03
     12.575  0.1333E+02  0.5741E+03
     12.668  0.1338E+02  0.5753E+03
     12.760  0.1344E+02  0.5766E+03
     12.853  0.1352E+02  0.5779E+03
     12.946  0.1361E+02  0.5791E+03
     13.038  0.1371E+02  0.5804E+03
     13.131  0.1383E+02  0.5817E+03
     13.223  0.1396E+02  0.5830E+03
     13.316  0.1411E+02  0.5843E+03
     13.409  0.1426E+02  0.5857E+03
     13.501  0.1442E+02  0.5870E+03
     13.594  0.1459E+02  0.5884E+03
     13.686  0.1475E+02  0.5898E+03
     13.779  0.1490E+02  0.5911E+03
     13.871  0.1505E+02  0.5926E+03
     13.964  0.1519E+02  0.5940E+03
     14.057  0.1533E+02  0.5954E+03
     14.149  0.1545E+02  0.5968E+03
     14.242  0.1558E+02  0.5983E+03
     14.334  0.1570E+02  0.5998E+03
     14.427  0.1582E+02  0.6013E+03
     14.520  0.1594E+02  0.6027E+03
     14.612  0.1606E+02  0.6042E+03
     14.705  0.1618E+02  0.6058E+03
     14.797  0.1630E+02  0.6073E+03
     14.890  0.1640E+02  0.6088E+03
     14.983  0.1650E+02  0.6104E+03
     15.075  0.1659E+02  0.6119E+03
     15.168  0.1666E+02  0.6135E+03
     15.260  0.1673E+02  0.6150E+03
     15.353  0.1679E+02  0.6166E+03