   48   48  500    1
  0.1747917E+02  0.7335170E-09  0.1078388E-08  0.1234636E-08  0.1500000E-14
   3000.00000000000     
  CAR 
 Ir_Ru                                   
    432    101    350
 
  0.0000000E+00  0.0000000E+00  0.0000000E+00  0.5000000E-02
    1       -2.175187   1.000000
    2       -0.746952   1.000000
    3       -0.680169   1.000000
    4       -0.473920   1.000000
    5       -0.369634   1.000000
    6       -0.155795   1.000000
    7        0.003142   1.000000
    8        0.268328   1.000000
    9        0.312307   1.000000
   10        0.412256   1.000000
   11        0.551291   1.000000
   12        0.563067   1.000000
   13        0.667654   1.000000
   14        0.700420   1.000000
   15        0.717224   1.000000
   16        0.747965   1.000000
   17        0.830550   1.000000
   18        0.861254   1.000000
   19        0.926208   1.000000
   20        0.974823   1.000000
   21        1.067687   1.000000
   22        1.099339   1.000000
   23        1.151296   1.000000
   24        1.175592   1.000000
   25        1.203349   1.000000
   26        1.234840   1.000000
   27        1.252505   1.000000
   28        1.277221   1.000000
   29        1.345340   1.000000
   30        1.418602   1.000000
   31        1.428400   1.000000
   32        1.450818   1.000000
   33        1.491481   1.000000
   34        1.500615   1.000000
   35        1.560003   1.000000
   36        1.615739   1.000000
   37        1.632989   1.000000
   38        1.649424   1.000000
   39        1.698758   1.000000
   40        1.730232   1.000000
   41        1.781837   1.000000
   42        1.798555   1.000000
   43        1.849360   1.000000
   44        1.879068   1.000000
   45        1.900363   1.000000
   46        1.937640   1.000000
   47        1.955645   1.000000
   48        2.006398   1.000000
   49        2.034254   1.000000
   50        2.078403   1.000000
   51        2.102436   1.000000
   52        2.131646   1.000000
   53        2.160249   1.000000
   54        2.198717   1.000000
   55        2.234501   1.000000
   56        2.288074   1.000000
   57        2.294043   1.000000
   58        2.319278   1.000000
   59        2.349198   1.000000
   60        2.389187   1.000000
   61        2.421910   1.000000
   62        2.438011   1.000000
   63        2.454215   1.000000
   64        2.467894   1.000000
   65        2.498578   1.000000
   66        2.532573   1.000000
   67        2.566026   1.000000
   68        2.595826   1.000000
   69        2.630623   1.000000
   70        2.672354   1.000000
   71        2.682075   1.000000
   72        2.717563   1.000000
   73        2.744361   1.000000
   74        2.777633   1.000000
   75        2.798973   1.000000
   76        2.844358   1.000000
   77        2.863734   1.000000
   78        2.900864   1.000000
   79        2.924321   1.000000
   80        2.943306   1.000000
   81        2.957102   1.000000
   82        2.985463   1.000000
   83        2.990685   1.000000
   84        3.048073   1.000000
   85        3.053565   1.000000
   86        3.112105   1.000000
   87        3.155127   1.000000
   88        3.186217   0.999999
   89        3.237617   0.999999
   90        3.240376   0.999999
   91        3.296624   0.999999
   92        3.314269   0.999999
   93        3.357080   0.999999
   94        3.386569   0.999999
   95        3.400144   0.999999
   96        3.422434   0.999999
   97        3.475552   0.999999
   98        3.486770   0.999999
   99        3.564801   0.999998
  100        3.596600   0.999998
  101        3.622540   0.999998
  102        3.677538   0.999997
  103        3.687449   0.999997
  104        3.690767   0.999997
  105        3.740558   0.999996
  106        3.779596   0.999996
  107        3.791363   0.999996
  108        3.799877   0.999996
  109        3.864960   0.999994
  110        3.885559   0.999994
  111        3.905973   0.999993
  112        3.944239   0.999992
  113        3.974084   0.999992
  114        4.003070   0.999991
  115        4.008223   0.999991
  116        4.049648   0.999989
  117        4.090165   0.999987
  118        4.093542   0.999987
  119        4.127479   0.999986
  120        4.164895   0.999983
  121        4.169282   0.999983
  122        4.246007   0.999978
  123        4.262206   0.999977
  124        4.306771   0.999973
  125        4.335961   0.999970
  126        4.360367   0.999967
  127        4.368720   0.999966
  128        4.406438   0.999961
  129        4.465465   0.999952
  130        4.493796   0.999946
  131        4.559686   0.999932
  132        4.571718   0.999929
  133        4.649838   0.999907
  134        4.656555   0.999904
  135        4.703163   0.999887
  136        4.722116   0.999879
  137        4.748164   0.999867
  138        4.807093   0.999836
  139        4.849599   0.999809
  140        4.858284   0.999803
  141        4.868621   0.999796
  142        4.917833   0.999757
  143        4.961651   0.999715
  144        5.008316   0.999664
  145        5.029037   0.999638
  146        5.058615   0.999598
  147        5.087839   0.999554
  148        5.139526   0.999463
  149        5.156875   0.999429
  150        5.166549   0.999409
  151        5.217277   0.999291
  152        5.263386   0.999165
  153        5.270581   0.999143
  154        5.313163   0.999002
  155        5.347667   0.998872
  156        5.389115   0.998692
  157        5.412709   0.998577
  158        5.432328   0.998474
  159        5.464124   0.998291
  160        5.487803   0.998140
  161        5.512121   0.997972
  162        5.538375   0.997773
  163        5.560258   0.997592
  164        5.618173   0.997040
  165        5.685758   0.996235
  166        5.717192   0.995790
  167        5.772143   0.994882
  168        5.786793   0.994609
  169        5.834937   0.993603
  170        5.869626   0.992766
  171        5.896449   0.992044
  172        5.969745   0.989688
  173        5.994964   0.988728
  174        6.025232   0.987457
  175        6.041243   0.986729
  176        6.059140   0.985865
  177        6.071845   0.985219
  178        6.132948   0.981680
  179        6.175155   0.978763
  180        6.197060   0.977074
  181        6.244615   0.972945
  182        6.264946   0.970966
  183        6.292386   0.968073
  184        6.314909   0.965490
  185        6.357158   0.960094
  186        6.378322   0.957095
  187        6.418238   0.950845
  188        6.453683   0.944579
  189        6.472615   0.940931
  190        6.534199   0.927454
  191        6.549493   0.923692
  192        6.573565   0.917407
  193        6.591676   0.912372
  194        6.613302   0.905997
  195        6.652166   0.893491
  196        6.671331   0.886800
  197        6.684265   0.882080
  198        6.728475   0.864640
  199        6.779754   0.841741
  200        6.790273   0.836672
  201        6.836644   0.812762
  202        6.849291   0.805792
  203        6.875204   0.790898
  204        6.901225   0.775114
  205        6.950384   0.743043
  206        6.951731   0.742124
  207        6.962351   0.734799
  208        7.010471   0.699990
  209        7.051045   0.668707
  210        7.076966   0.647888
  211        7.102613   0.626720
  212        7.119614   0.612410
  213        7.131277   0.602477
  214        7.176672   0.563081
  215        7.191648   0.549881
  216        7.216334   0.527977
  217        7.247298   0.500360
  218        7.266819   0.482937
  219        7.335466   0.422274
  220        7.342054   0.416544
  221        7.387218   0.377946
  222        7.412260   0.357160
  223        7.427055   0.345123
  224        7.452313   0.325029
  225        7.470988   0.310570
  226        7.529493   0.267685
  227        7.540771   0.259864
  228        7.561111   0.246137
  229        7.617117   0.210928
  230        7.635773   0.200052
  231        7.648793   0.192714
  232        7.688440   0.171637
  233        7.710529   0.160710
  234        7.750555   0.142350
  235        7.767496   0.135122
  236        7.784535   0.128167
  237        7.830352   0.110967
  238        7.899191   0.088932
  239        7.927211   0.081150
  240        7.937989   0.078326
  241        7.944731   0.076605
  242        7.978240   0.068557
  243        8.019953   0.059634
  244        8.101274   0.045283
  245        8.143380   0.039209
  246        8.159356   0.037115
  247        8.190888   0.033294
  248        8.260176   0.026186
  249        8.273652   0.024987
  250        8.318909   0.021337
  251        8.390471   0.016605
  252        8.401061   0.015998
  253        8.458554   0.013067
  254        8.501322   0.011237
  255        8.579040   0.008537
  256        8.627756   0.007183
  257        8.653098   0.006566
  258        8.777081   0.004227
  259        8.790293   0.004033
  260        8.867837   0.003060
  261        8.945552   0.002320
  262        9.029768   0.001719
  263        9.060510   0.001540
  264        9.103705   0.001320
  265        9.190113   0.000970
  266        9.290629   0.000678
  267        9.323845   0.000602
  268        9.434593   0.000405
  269        9.617907   0.000211
  270        9.753537   0.000130
  271        9.845089   0.000094
  272       10.230277   0.000024
  273       10.396233   0.000013
  274       10.448885   0.000011
  275       10.608720   0.000006
  276       10.719041   0.000004
  277       10.862524   0.000002
  278       11.047731   0.000001
  279       11.161473   0.000001
  280       11.343123   0.000000
  281       11.395992   0.000000
  282       11.616844   0.000000
  283       11.701078   0.000000
  284       11.813828   0.000000
  285       11.945256   0.000000
  286       12.210775   0.000000
  287       12.471123   0.000000
  288       12.580584   0.000000
  289       12.648874   0.000000
  290       12.744694   0.000000
  291       12.967232   0.000000
  292       13.108233   0.000000
  293       13.288141   0.000000
  294       13.379096   0.000000
  295       13.759096   0.000000
  296       13.920330   0.000000
  297       14.023349   0.000000
  298       14.180497   0.000000
  299       14.505749   0.000000
  300       14.639720   0.000000
  301       14.756088   0.000000
  302       14.889869   0.000000
  303       15.045585   0.000000
  304       15.166623   0.000000
  305       15.312838   0.000000
  306       15.503686   0.000000
  307       15.518864   0.000000
  308       15.623405   0.000000
  309       15.720797   0.000000
  310       15.810473   0.000000
  311       15.902195   0.000000
  312       15.979321   0.000000
  313       16.186558   0.000000
  314       16.224163   0.000000
  315       16.297839   0.000000
  316       16.455846   0.000000
  317       16.670174   0.000000
  318       16.694947   0.000000
  319       16.745030   0.000000
  320       16.834117   0.000000
  321       16.924396   0.000000
  322       17.054057   0.000000
  323       17.086130   0.000000
  324       17.135255   0.000000
  325       17.254653   0.000000
  326       17.349323   0.000000
  327       17.373980   0.000000
  328       17.471662   0.000000
  329       17.546225   0.000000
  330       17.640107   0.000000
  331       17.770295   0.000000
  332       17.826840   0.000000
  333       17.927731   0.000000
  334       18.055514   0.000000
  335       18.136714   0.000000
  336       18.287647   0.000000
  337       18.339338   0.000000
  338       18.448603   0.000000
  339       18.544106   0.000000
  340       18.667918   0.000000
  341       18.694303   0.000000
  342       18.824975   0.000000
  343       18.931618   0.000000
  344       19.105372   0.000000
  345       19.141174   0.000000
  346       19.226851   0.000000
  347       19.286871   0.000000
  348       19.394868   0.000000
  349       19.586017   0.000000
  350       19.758450   0.000000
 
  0.1250000E+00 -0.1387779E-16  0.0000000E+00  0.1000000E-01
    1       -2.120471   1.000000
    2       -0.709540   1.000000
    3       -0.670148   1.000000
    4       -0.457817   1.000000
    5       -0.348545   1.000000
    6       -0.129925   1.000000
    7        0.003272   1.000000
    8        0.172470   1.000000
    9        0.308490   1.000000
   10        0.434579   1.000000
   11        0.528836   1.000000
   12        0.553560   1.000000
   13        0.636736   1.000000
   14        0.672843   1.000000
   15        0.707560   1.000000
   16        0.748071   1.000000
   17        0.830437   1.000000
   18        0.873682   1.000000
   19        0.923024   1.000000
   20        0.968717   1.000000
   21        1.056629   1.000000
   22        1.092881   1.000000
   23        1.136904   1.000000
   24        1.161538   1.000000
   25        1.185517   1.000000
   26        1.222575   1.000000
   27        1.256280   1.000000
   28        1.291318   1.000000
   29        1.353813   1.000000
   30        1.397706   1.000000
   31        1.424898   1.000000
   32        1.447504   1.000000
   33        1.475263   1.000000
   34        1.522326   1.000000
   35        1.559554   1.000000
   36        1.597737   1.000000
   37        1.644588   1.000000
   38        1.668274   1.000000
   39        1.694373   1.000000
   40        1.728562   1.000000
   41        1.780901   1.000000
   42        1.806102   1.000000
   43        1.843902   1.000000
   44        1.877672   1.000000
   45        1.905427   1.000000
   46        1.932487   1.000000
   47        1.964784   1.000000
   48        2.003716   1.000000
   49        2.041028   1.000000
   50        2.069834   1.000000
   51        2.109754   1.000000
   52        2.120884   1.000000
   53        2.146580   1.000000
   54        2.197770   1.000000
   55        2.229269   1.000000
   56        2.265702   1.000000
   57        2.282469   1.000000
   58        2.308764   1.000000
   59        2.342760   1.000000
   60        2.365847   1.000000
   61        2.407316   1.000000
   62        2.430789   1.000000
   63        2.452923   1.000000
   64        2.464176   1.000000
   65        2.495489   1.000000
   66        2.513948   1.000000
   67        2.564273   1.000000
   68        2.617376   1.000000
   69        2.634661   1.000000
   70        2.652099   1.000000
   71        2.682133   1.000000
   72        2.722510   1.000000
   73        2.759280   1.000000
   74        2.786358   1.000000
   75        2.811054   1.000000
   76        2.848254   1.000000
   77        2.863753   1.000000
   78        2.894318   1.000000
   79        2.917856   1.000000
   80        2.936677   1.000000
   81        2.977606   1.000000
   82        2.990109   1.000000
   83        3.005294   1.000000
   84        3.043693   1.000000
   85        3.071526   1.000000
   86        3.094017   1.000000
   87        3.156119   1.000000
   88        3.173713   1.000000
   89        3.202205   0.999999
   90        3.250770   0.999999
   91        3.279702   0.999999
   92        3.317866   0.999999
   93        3.346141   0.999999
   94        3.373296   0.999999
   95        3.399612   0.999999
   96        3.444689   0.999999
   97        3.458145   0.999999
   98        3.509788   0.999998
   99        3.559466   0.999998
  100        3.579214   0.999998
  101        3.601181   0.999998
  102        3.644116   0.999997
  103        3.690988   0.999997
  104        3.709071   0.999997
  105        3.738102   0.999996
  106        3.781047   0.999996
  107        3.814881   0.999995
  108        3.830962   0.999995
  109        3.848653   0.999995
  110        3.892087   0.999994
  111        3.912339   0.999993
  112        3.934244   0.999993
  113        3.962578   0.999992
  114        3.986745   0.999991
  115        4.031925   0.999990
  116        4.058856   0.999989
  117        4.095268   0.999987
  118        4.111282   0.999986
  119        4.125384   0.999986
  120        4.151418   0.999984
  121        4.208880   0.999981
  122        4.234957   0.999979
  123        4.283284   0.999975
  124        4.305135   0.999973
  125        4.336842   0.999969
  126        4.362218   0.999967
  127        4.386283   0.999964
  128        4.423431   0.999958
  129        4.454849   0.999953
  130        4.493811   0.999946
  131        4.549534   0.999935
  132        4.582406   0.999927
  133        4.600344   0.999922
  134        4.627193   0.999914
  135        4.691537   0.999892
  136        4.739820   0.999871
  137        4.782055   0.999850
  138        4.809580   0.999835
  139        4.837069   0.999818
  140        4.858264   0.999803
  141        4.885694   0.999783
  142        4.945308   0.999732
  143        4.951528   0.999726
  144        5.000782   0.999673
  145        5.025950   0.999642
  146        5.074276   0.999575
  147        5.088242   0.999553
  148        5.119866   0.999500
  149        5.163455   0.999415
  150        5.195895   0.999343
  151        5.236718   0.999240
  152        5.258222   0.999180
  153        5.286354   0.999093
  154        5.310260   0.999013
  155        5.352000   0.998854
  156        5.401638   0.998632
  157        5.426829   0.998503
  158        5.434355   0.998463
  159        5.453841   0.998352
  160        5.482640   0.998174
  161        5.531464   0.997827
  162        5.539966   0.997760
  163        5.604865   0.997177
  164        5.622545   0.996994
  165        5.668233   0.996463
  166        5.723222   0.995699
  167        5.753804   0.995205
  168        5.785610   0.994631
  169        5.822653   0.993876
  170        5.876546   0.992586
  171        5.930095   0.991038
  172        5.939389   0.990738
  173        5.978604   0.989361
  174        6.009707   0.988125
  175        6.048186   0.986400
  176        6.070263   0.985301
  177        6.094638   0.983985
  178        6.130865   0.981813
  179        6.155650   0.980163
  180        6.203907   0.976520
  181        6.229166   0.974360
  182        6.269031   0.970552
  183        6.281599   0.969242
  184        6.306774   0.966445
  185        6.343084   0.961976
  186        6.362773   0.959319
  187        6.424841   0.949731
  188        6.445330   0.946120
  189        6.471594   0.941133
  190        6.518600   0.931114
  191        6.548960   0.923826
  192        6.578689   0.916010
  193        6.607369   0.907786
  194        6.630188   0.900734
  195        6.639308   0.897783
  196        6.667150   0.888290
  197        6.718843   0.868616
  198        6.746072   0.857115
  199        6.774426   0.844259
  200        6.802435   0.830649
  201        6.834132   0.814124
  202        6.848965   0.805973
  203        6.867987   0.795129
  204        6.879113   0.788580
  205        6.937591   0.751670
  206        6.962239   0.734877
  207        6.981791   0.721051
  208        7.013755   0.697521
  209        7.046383   0.672385
  210        7.067562   0.655511
  211        7.090467   0.636811
  212        7.125064   0.607780
  213        7.141720   0.593512
  214        7.164392   0.573839
  215        7.181478   0.558854
  216        7.230026   0.515776
  217        7.256059   0.492538
  218        7.288139   0.463958
  219        7.334169   0.423404
  220        7.347152   0.412126
  221        7.368089   0.394136
  222        7.389071   0.376392
  223        7.433461   0.339970
  224        7.452208   0.325111
  225        7.487621   0.297997
  226        7.507450   0.283397
  227        7.550769   0.253055
  228        7.563423   0.244608
  229        7.585087   0.230596
  230        7.624394   0.206634
  231        7.642436   0.196271
  232        7.680115   0.175906
  233        7.712468   0.159778
  234        7.749485   0.142817
  235        7.761834   0.137502
  236        7.817471   0.115588
  237        7.847752   0.104984
  238        7.873285   0.096719
  239        7.899361   0.088883
  240        7.919363   0.083265
  241        7.960604   0.072690
  242        7.999094   0.063951
  243        8.014843   0.060666
  244        8.068230   0.050668
  245        8.105750   0.044597
  246        8.128412   0.041273
  247        8.182904   0.034224
  248        8.218849   0.030225
  249        8.276237   0.024763
  250        8.303960   0.022481
  251        8.368637   0.017927
  252        8.413066   0.015337
  253        8.464340   0.012804
  254        8.513762   0.010754
  255        8.547453   0.009547
  256        8.641106   0.006851
  257        8.681744   0.005931
  258        8.736865   0.004876
  259        8.828034   0.003526
  260        8.941956   0.002350
  261        9.020470   0.001777
  262        9.083931   0.001417
  263        9.160312   0.001079
  264        9.228380   0.000846
  265        9.320821   0.000608
  266        9.389938   0.000475
  267        9.508509   0.000311
  268        9.600413   0.000224
  269        9.635618   0.000198
  270        9.729776   0.000141
  271        9.836901   0.000096
  272       10.065347   0.000043
  273       10.176608   0.000029
  274       10.405931   0.000013
  275       10.592180   0.000006
  276       10.743795   0.000004
  277       10.844880   0.000003
  278       11.063339   0.000001
  279       11.117120   0.000001
  280       11.263566   0.000001
  281       11.336150   0.000000
  282       11.514003   0.000000
  283       11.799969   0.000000
  284       11.871799   0.000000
  285       12.069686   0.000000
  286       12.199582   0.000000
  287       12.506836   0.000000
  288       12.595373   0.000000
  289       12.832429   0.000000
  290       12.945649   0.000000
  291       13.073762   0.000000
  292       13.253320   0.000000
  293       13.376324   0.000000
  294       13.543638   0.000000
  295       13.666552   0.000000
  296       13.843479   0.000000
  297       13.996216   0.000000
  298       14.164773   0.000000
  299       14.399669   0.000000
  300       14.554389   0.000000
  301       14.713849   0.000000
  302       14.843392   0.000000
  303       14.959921   0.000000
  304       15.075956   0.000000
  305       15.152285   0.000000
  306       15.287889   0.000000
  307       15.364764   0.000000
  308       15.499738   0.000000
  309       15.522007   0.000000
  310       15.720466   0.000000
  311       15.784131   0.000000
  312       15.878073   0.000000
  313       16.043381   0.000000
  314       16.113586   0.000000
  315       16.169400   0.000000
  316       16.381634   0.000000
  317       16.464535   0.000000
  318       16.558062   0.000000
  319       16.723739   0.000000
  320       16.806854   0.000000
  321       16.867000   0.000000
  322       16.982298   0.000000
  323       17.097489   0.000000
  324       17.158326   0.000000
  325       17.245680   0.000000
  326       17.337628   0.000000
  327       17.434988   0.000000
  328       17.506638   0.000000
  329       17.594674   0.000000
  330       17.684539   0.000000
  331       17.807639   0.000000
  332       17.858263   0.000000
  333       17.932841   0.000000
  334       18.054623   0.000000
  335       18.160341   0.000000
  336       18.266684   0.000000
  337       18.403293   0.000000
  338       18.500691   0.000000
  339       18.610509   0.000000
  340       18.663686   0.000000
  341       18.806606   0.000000
  342       18.838767   0.000000
  343       19.046215   0.000000
  344       19.087336   0.000000
  345       19.189489   0.000000
  346       19.247993   0.000000
  347       19.333909   0.000000
  348       19.418738   0.000000
  349       19.543352   0.000000
  350       19.608075   0.000000
 
  0.2500000E+00 -0.2775558E-16  0.0000000E+00  0.1000000E-01
    1       -1.960404   1.000000
    2       -0.728239   1.000000
    3       -0.597463   1.000000
    4       -0.409193   1.000000
    5       -0.289209   1.000000
    6       -0.095099   1.000000
    7       -0.023242   1.000000
    8        0.117272   1.000000
    9        0.278345   1.000000
   10        0.407725   1.000000
   11        0.463145   1.000000
   12        0.538326   1.000000
   13        0.584799   1.000000
   14        0.660412   1.000000
   15        0.679229   1.000000
   16        0.747339   1.000000
   17        0.807467   1.000000
   18        0.872919   1.000000
   19        0.919146   1.000000
   20        0.947897   1.000000
   21        1.018435   1.000000
   22        1.076049   1.000000
   23        1.104860   1.000000
   24        1.138100   1.000000
   25        1.163808   1.000000
   26        1.195572   1.000000
   27        1.244446   1.000000
   28        1.308256   1.000000
   29        1.326021   1.000000
   30        1.399371   1.000000
   31        1.410838   1.000000
   32        1.453314   1.000000
   33        1.489258   1.000000
   34        1.522427   1.000000
   35        1.570260   1.000000
   36        1.593176   1.000000
   37        1.619328   1.000000
   38        1.660575   1.000000
   39        1.713753   1.000000
   40        1.751427   1.000000
   41        1.785115   1.000000
   42        1.798075   1.000000
   43        1.820408   1.000000
   44        1.851837   1.000000
   45        1.895375   1.000000
   46        1.932299   1.000000
   47        1.979814   1.000000
   48        2.007287   1.000000
   49        2.028736   1.000000
   50        2.054388   1.000000
   51        2.084691   1.000000
   52        2.128303   1.000000
   53        2.146176   1.000000
   54        2.174374   1.000000
   55        2.206634   1.000000
   56        2.243545   1.000000
   57        2.258743   1.000000
   58        2.301517   1.000000
   59        2.325423   1.000000
   60        2.360468   1.000000
   61        2.386658   1.000000
   62        2.427200   1.000000
   63        2.435459   1.000000
   64        2.479108   1.000000
   65        2.494719   1.000000
   66        2.507645   1.000000
   67        2.551126   1.000000
   68        2.593981   1.000000
   69        2.634331   1.000000
   70        2.661317   1.000000
   71        2.693243   1.000000
   72        2.734286   1.000000
   73        2.743266   1.000000
   74        2.769647   1.000000
   75        2.796570   1.000000
   76        2.846527   1.000000
   77        2.870408   1.000000
   78        2.884097   1.000000
   79        2.913853   1.000000
   80        2.942026   1.000000
   81        2.983067   1.000000
   82        2.997993   1.000000
   83        3.018094   1.000000
   84        3.051652   1.000000
   85        3.077792   1.000000
   86        3.115626   1.000000
   87        3.141507   1.000000
   88        3.170051   1.000000
   89        3.202064   0.999999
   90        3.226764   0.999999
   91        3.241461   0.999999
   92        3.323779   0.999999
   93        3.354644   0.999999
   94        3.376169   0.999999
   95        3.412517   0.999999
   96        3.436009   0.999999
   97        3.473166   0.999999
   98        3.496718   0.999998
   99        3.528217   0.999998
  100        3.580785   0.999998
  101        3.594825   0.999998
  102        3.623791   0.999998
  103        3.665189   0.999997
  104        3.713167   0.999997
  105        3.750430   0.999996
  106        3.757556   0.999996
  107        3.808969   0.999995
  108        3.832394   0.999995
  109        3.848606   0.999995
  110        3.884838   0.999994
  111        3.916914   0.999993
  112        3.962511   0.999992
  113        3.981667   0.999991
  114        4.003501   0.999991
  115        4.020306   0.999990
  116        4.058332   0.999989
  117        4.070062   0.999988
  118        4.121840   0.999986
  119        4.158811   0.999984
  120        4.199671   0.999981
  121        4.223202   0.999980
  122        4.252496   0.999977
  123        4.282779   0.999975
  124        4.310477   0.999972
  125        4.355505   0.999967
  126        4.362912   0.999966
  127        4.395683   0.999962
  128        4.437408   0.999956
  129        4.460587   0.999952
  130        4.508106   0.999944
  131        4.542004   0.999936
  132        4.585725   0.999926
  133        4.610296   0.999919
  134        4.662056   0.999902
  135        4.709259   0.999884
  136        4.745185   0.999869
  137        4.773331   0.999855
  138        4.792701   0.999844
  139        4.824398   0.999826
  140        4.864688   0.999799
  141        4.883493   0.999785
  142        4.928725   0.999747
  143        4.958957   0.999718
  144        4.998567   0.999675
  145        5.030548   0.999636
  146        5.053564   0.999605
  147        5.108518   0.999519
  148        5.139666   0.999463
  149        5.182650   0.999374
  150        5.192641   0.999351
  151        5.224940   0.999272
  152        5.248202   0.999209
  153        5.307309   0.999023
  154        5.322348   0.998969
  155        5.343197   0.998889
  156        5.391189   0.998682
  157        5.426947   0.998503
  158        5.452941   0.998357
  159        5.486449   0.998149
  160        5.532659   0.997818
  161        5.547339   0.997700
  162        5.578899   0.997427
  163        5.613155   0.997093
  164        5.668395   0.996461
  165        5.692256   0.996147
  166        5.708196   0.995923
  167        5.747206   0.995316
  168        5.782183   0.994696
  169        5.848078   0.993298
  170        5.859429   0.993023
  171        5.875155   0.992623
  172        5.935080   0.990878
  173        5.971813   0.989613
  174        5.992187   0.988838
  175        6.037809   0.986888
  176        6.092851   0.984085
  177        6.107186   0.983263
  178        6.117976   0.982617
  179        6.165702   0.979453
  180        6.203900   0.976520
  181        6.216963   0.975427
  182        6.240735   0.973307
  183        6.274520   0.969987
  184        6.296557   0.967609
  185        6.340085   0.962366
  186        6.397042   0.954265
  187        6.403464   0.953253
  188        6.434640   0.948033
  189        6.472544   0.940945
  190        6.524619   0.929723
  191        6.560807   0.920795
  192        6.574316   0.917204
  193        6.587112   0.913666
  194        6.630075   0.900770
  195        6.649221   0.894488
  196        6.683794   0.882255
  197        6.715901   0.869811