   48   48  500    1
  0.1728187E+02  0.8946086E-09  0.8015611E-09  0.1275295E-08  0.3000000E-14
   3000.00000000000     
  CAR 
 Ir-Ru                                   
    432     14    350
