   48   48  500    1
  0.1705593E+02  0.7375077E-09  0.1089151E-08  0.1197421E-08  0.1500000E-14
   3000.00000000000     
  CAR 
 Ir_Ru                                   
    432    101    350
