Ir_Ru                                   
           1
     4.856056    1.591686   -5.318739
     5.802940    7.448929    5.432501
     9.601995   -3.200665    6.401330
   Ir
  48
Direct configuration=     1
   0.79821605  0.12061093  0.02654672
   0.37490896  0.48930239  0.05724350
   0.10939647  0.67454929  0.09447384
   0.04915562  0.93973243  0.17481712
   0.92401994  0.13964630  0.21815644
   0.17173067  0.36475657  0.24921424
   0.10225539  0.55752414  0.34183428
   0.91040638  0.75370743  0.42747051
   0.12067632  0.09531810  0.41148458
   0.12544206  0.24902063  0.50410006
   0.27715689  0.34685369  0.69672433
   0.11154712  0.58529193  0.69738538
   0.28488682  0.81636970  0.67934156
   0.93326202  0.20569833  0.77101949
   0.00121643  0.32663444  0.91842842
   0.88427893  0.61554357  0.84982892
   0.84561481  0.97091859  0.86197570
   0.44877390  0.89746940  0.95654703
   0.40550335  0.98530005  0.15344077
   0.38536881  0.12264514  0.29089465
   0.55165177  0.42013755  0.26649131
   0.39488942  0.71747063  0.20087914
   0.25576280  0.87472754  0.36358030
   0.39911444  0.06182714  0.53889958
   0.43814807  0.39186341  0.49682511
   0.32691072  0.62918828  0.51400307
   0.58476091  0.74193266  0.59510804
   0.15257430  0.97232513  0.76793164
   0.60203508  0.26345871  0.80567960
   0.42244478  0.53963185  0.82296265
   0.14500651  0.72609124  0.87540150
   0.16610437  0.09984795  0.95356518
   0.35899806  0.28703774  0.01219844
   0.00429497  0.44166418  0.06480663
   0.68463176  0.66305650  0.10761035
   0.77007845  0.83756213  0.16223984
   0.65984266  0.94828999  0.28960563
   0.69461890  0.05977525  0.42525252
   0.86600477  0.29779360  0.31960977
   0.68200797  0.60246892  0.46359479
   0.92344352  0.84993545  0.57820153
   0.87550758  0.09238194  0.59979696
   0.98686214  0.48905967  0.57105750
   0.74217508  0.48763495  0.75460912
   0.65183712  0.90000028  0.69084255
   0.47810074  0.09407848  0.73888140
   0.70116444  0.35613036  0.05272350
   0.53412299  0.70457217  0.89227910
Ir_Ru                                   
           1
     4.855603    1.595459   -5.319247
     5.803063    7.451688    5.433049
     9.603310   -3.201103    6.402207
   Ir
  48
Direct configuration=     2
   0.79782757  0.12133084  0.02605938
   0.37549487  0.48884775  0.05738929
   0.10974484  0.67431500  0.09454330
   0.04844472  0.94020103  0.17449689
   0.92451918  0.13978555  0.21794559
   0.17118963  0.36528036  0.24938200
   0.10138573  0.55722734  0.34209755
   0.91104827  0.75335758  0.42771610
   0.12170221  0.09474562  0.41122357
   0.12429927  0.25018793  0.50416014
   0.27720628  0.34603052  0.69714121
   0.11203267  0.58483005  0.69758891
   0.28513472  0.81675560  0.67943819
   0.93252869  0.20573219  0.77107613
   0.00106811  0.32668397  0.91845894
   0.88440162  0.61520483  0.85024686
   0.84504911  0.97168361  0.86229198
   0.44957827  0.89679645  0.95635846
   0.40499414  0.98527988  0.15320881
   0.38603223  0.12303517  0.29109846
   0.55140287  0.41982661  0.26645003
   0.39435373  0.71838712  0.20059426
   0.25616451  0.87364519  0.36321078
   0.39842691  0.06135892  0.53927440
   0.43796320  0.39171124  0.49807312
   0.32628102  0.62923351  0.51374197
   0.58492606  0.74215757  0.59540466
   0.15233675  0.97275125  0.76784245
   0.60219821  0.26340232  0.80614592
   0.42325384  0.54000600  0.82295044
   0.14447079  0.72588031  0.87535382
   0.16712325  0.09942181  0.95421045
   0.35818900  0.28755168  0.01199871
   0.00349285  0.44232923  0.06498313
   0.68489795  0.66242726  0.10833857
   0.76966372  0.83773451  0.16196191
   0.65915316  0.94866686  0.28938606
   0.69399377  0.06022919  0.42540359
   0.86637306  0.29787671  0.31965607
   0.68273788  0.60301904  0.46338798
   0.92248762  0.85063332  0.57848662
   0.87490461  0.09191196  0.60098568
   0.98588905  0.48981360  0.57090436
   0.74230183  0.48671992  0.75453203
   0.65244857  0.90047722  0.68972515
   0.47736961  0.09448016  0.73876569
   0.70165831  0.35642960  0.05228870
   0.53305740  0.70611485  0.89149650
Ir_Ru                                   
           1
     4.855138    1.599267   -5.319849
     5.803158    7.454529    5.433591
     9.604675   -3.201558    6.403117
   Ir
  48
Direct configuration=     3
   0.79740651  0.12205484  0.02556364
   0.37607833  0.48839405  0.05753786
   0.11008219  0.67408179  0.09463361
   0.04776269  0.94064182  0.17419487
   0.92500383  0.13992943  0.21772591
   0.17071504  0.36580867  0.24958356
   0.10053473  0.55692401  0.34236443
   0.91173353  0.75304149  0.42793817
   0.12266324  0.09412520  0.41099188
   0.12316308  0.25139709  0.50422497
   0.27724478  0.34518877  0.69758131
   0.11252289  0.58436360  0.69780688
   0.28540390  0.81715238  0.67947532
   0.93182425  0.20580508  0.77110420
   0.00093154  0.32675669  0.91848270
   0.88448997  0.61488912  0.85066154
   0.84442702  0.97241130  0.86263390
   0.45038193  0.89611856  0.95618062
   0.40449060  0.98527534  0.15293612
   0.38675487  0.12344398  0.29126188
   0.55114237  0.41951884  0.26641342
   0.39379180  0.71929139  0.20032862
   0.25654732  0.87257130  0.36285672
   0.39773463  0.06091224  0.53965098
   0.43779027  0.39156865  0.49929534
   0.32567429  0.62925701  0.51347905
   0.58509773  0.74237961  0.59568609
   0.15212479  0.97323779  0.76773501
   0.60233361  0.26334522  0.80662283
   0.42405190  0.54037960  0.82292762
   0.14389459  0.72560465  0.87536523
   0.16817702  0.09898662  0.95484796
   0.35737654  0.28804218  0.01180109
   0.00267936  0.44299402  0.06515548
   0.68518036  0.66178621  0.10905503
   0.76925773  0.83789186  0.16167003
   0.65846773  0.94904703  0.28918469
   0.69337773  0.06070119  0.42554841
   0.86669227  0.29797007  0.31971060
   0.68341714  0.60355326  0.46317903
   0.92157348  0.85132218  0.57877339
   0.87428883  0.09144219  0.60217909
   0.98491774  0.49053681  0.57076064
   0.74244047  0.48580032  0.75444195
   0.65305948  0.90094854  0.68862197
   0.47664335  0.09490093  0.73863588
   0.70213750  0.35673116  0.05184816
   0.53200730  0.70765557  0.89072615
Ir_Ru                                   
           1
     4.854662    1.603112   -5.320545
     5.803225    7.457451    5.434127
     9.606090   -3.202030    6.404060
   Ir
  48
Direct configuration=     4
   0.79695310  0.12278220  0.02506005
   0.37665978  0.48794230  0.05768904
   0.11040883  0.67384975  0.09474460
   0.04710947  0.94105408  0.17391141
   0.92547319  0.14007800  0.21749786
   0.17030783  0.36634157  0.24981830
   0.09970252  0.55661441  0.34263446
   0.91246164  0.75276211  0.42813581
   0.12355629  0.09345951  0.41079027
   0.12203348  0.25264477  0.50429381
   0.27726996  0.34432921  0.69804500
   0.11301698  0.58389354  0.69803934
   0.28569359  0.81755836  0.67945476
   0.93115071  0.20591765  0.77110382
   0.00080788  0.32685186  0.91850005
   0.88454306  0.61459645  0.85107132
   0.84374893  0.97310080  0.86300185
   0.45118500  0.89543682  0.95601363
   0.40399342  0.98528697  0.15262297
   0.38753623  0.12387157  0.29138473
   0.55087073  0.41921384  0.26638199
   0.39320398  0.72018297  0.20008180
   0.25691072  0.87150847  0.36251712
   0.39703697  0.06048910  0.54002877
   0.43763035  0.39143584  0.50049042
   0.32509116  0.62925728  0.51321564
   0.58527624  0.74259762  0.59595244
   0.15193787  0.97378230  0.76761044
   0.60243984  0.26328710  0.80711022
   0.42483844  0.54075261  0.82289449
   0.14327887  0.72526676  0.87543389
   0.16926392  0.09854438  0.95547577
   0.35656083  0.28850897  0.01160546
   0.00185553  0.44365760  0.06532453
   0.68547801  0.66113317  0.10975999
   0.76886026  0.83803492  0.16136450
   0.65778819  0.94942973  0.28900187
   0.69277184  0.06119149  0.42568599
   0.86696209  0.29807255  0.31977383
   0.68404300  0.60407167  0.46296758
   0.92070521  0.85199998  0.57906061
   0.87366291  0.09097429  0.60337555
   0.98395062  0.49122687  0.57062799
   0.74259116  0.48487780  0.75433895
   0.65366596  0.90141403  0.68753568
   0.47592217  0.09533992  0.73849237
   0.70260162  0.35703502  0.05140201
   0.53097277  0.70919287  0.88996839
Ir_Ru                                   
           1
     4.854175    1.606995   -5.321332
     5.803265    7.460454    5.434656
     9.607553   -3.202518    6.405035
   Ir
  48
Direct configuration=     5
   0.79646751  0.12351208  0.02454925
   0.37723930  0.48749354  0.05784258
   0.11072480  0.67361892  0.09487618
   0.04648430  0.94143740  0.17364666
   0.92592648  0.14023152  0.21726175
   0.16996874  0.36687890  0.25008580
   0.09888921  0.55629885  0.34290726
   0.91323209  0.75252202  0.42830841
   0.12437929  0.09275091  0.41061936
   0.12091076  0.25392788  0.50436593
   0.27727938  0.34345301  0.69853250
   0.11351422  0.58342066  0.69828679
   0.28600270  0.81797205  0.67937861
   0.93050999  0.20607028  0.77107530
   0.00069804  0.32696878  0.91851122
   0.88455980  0.61432710  0.85147458
   0.84301558  0.97375126  0.86339616
   0.45198779  0.89475211  0.95585786
   0.40350280  0.98531542  0.15226978
   0.38837540  0.12431819  0.29146686
   0.55058815  0.41891134  0.26635616
   0.39259093  0.72106133  0.19985350
   0.25725466  0.87045889  0.36219100
   0.39633361  0.06009109  0.54040730
   0.43748442  0.39131283  0.50165688
   0.32453247  0.62923311  0.51295307
   0.58546180  0.74281050  0.59620371
   0.15177510  0.97438203  0.76747000
   0.60251524  0.26322752  0.80760785
   0.42561288  0.54112514  0.82285106
   0.14262494  0.72486927  0.87555793
   0.17038250  0.09809703  0.95609171
   0.35574175  0.28895195  0.01141164
   0.00102255  0.44431904  0.06549137
   0.68579022  0.66046809  0.11045335
   0.76847128  0.83816454  0.16104551
   0.65711665  0.94981379  0.28883801
   0.69217680  0.06170017  0.42581519
   0.86718278  0.29818292  0.31984613
   0.68461298  0.60457462  0.46275328
   0.91988665  0.85266526  0.57934706
   0.87302878  0.09051011  0.60457368
   0.98299070  0.49188120  0.57050783
   0.74275383  0.48395390  0.75422312
   0.65426383  0.90187327  0.68646893
   0.47520628  0.09579634  0.73833562
   0.70305037  0.35734094  0.05095049
   0.52995420  0.71072526  0.88922319
Ir_Ru                                   
           1
     4.853676    1.610917   -5.322210
     5.803276    7.463536    5.435178
     9.609063   -3.203021    6.406042
   Ir
  48
Direct configuration=     6
   0.79595042  0.12424353  0.02403226
   0.37781688  0.48704872  0.05799833
   0.11103057  0.67338915  0.09502830
   0.04588674  0.94179129  0.17340097
   0.92636339  0.14039039  0.21701784
   0.16969844  0.36742043  0.25038532
   0.09809502  0.55597757  0.34318248
   0.91404406  0.75232345  0.42845548
   0.12513035  0.09200208  0.41047938
   0.11979431  0.25524396  0.50444094
   0.27727098  0.34256080  0.69904436
   0.11401413  0.58294558  0.69854949
   0.28632954  0.81839162  0.67924940
   0.92990416  0.20626345  0.77101881
   0.00060304  0.32710682  0.91851650
   0.88453913  0.61408088  0.85187001
   0.84222757  0.97436207  0.86381716
   0.45279002  0.89406556  0.95571357
   0.40301909  0.98536121  0.15187706
   0.38927087  0.12478400  0.29150809
   0.55029536  0.41861110  0.26633626
   0.39195321  0.72192581  0.19964352
   0.25757958  0.86942444  0.36187723
   0.39562413  0.05971990  0.54078595
   0.43735352  0.39119958  0.50279323
   0.32399892  0.62918303  0.51269256
   0.58565430  0.74301708  0.59643971
   0.15163570  0.97503385  0.76731515
   0.60255815  0.26316599  0.80811567
   0.42637478  0.54149710  0.82279730
   0.14193397  0.72441517  0.87573470
   0.17153118  0.09764621  0.95669433
   0.35491913  0.28937103  0.01121951
   0.00018099  0.44497777  0.06565712
   0.68611599  0.65979109  0.11113501
   0.76809055  0.83828155  0.16071342
   0.65645486  0.95019841  0.28869305
   0.69159386  0.06222758  0.42593493
   0.86735465  0.29830017  0.31992767
   0.68512494  0.60506261  0.46253576
   0.91912175  0.85331663  0.57963118
   0.87238859  0.09005116  0.60577201
   0.98204047  0.49249783  0.57040134
   0.74292862  0.48303038  0.75409451
   0.65484943  0.90232593  0.68542482
   0.47449617  0.09626919  0.73816613
   0.70348356  0.35764887  0.05049368
   0.52895160  0.71225151  0.88849038
Ir_Ru                                   
           1
     4.853166    1.614879   -5.323174
     5.803259    7.466697    5.435692
     9.610618   -3.203539    6.407079
   Ir
  48
Direct configuration=     7
   0.79540265  0.12497537  0.02351023
   0.37839235  0.48660877  0.05815610
   0.11132639  0.67316046  0.09520081
   0.04531569  0.94211574  0.17317426
   0.92678359  0.14055489  0.21676638
   0.16949687  0.36796612  0.25071645
   0.09732042  0.55565065  0.34345994
   0.91489673  0.75216847  0.42857631
   0.12580764  0.09121579  0.41037046
   0.11868413  0.25658962  0.50451867
   0.27724252  0.34165345  0.69958122
   0.11451620  0.58246887  0.69882768
   0.28667203  0.81881502  0.67907003
   0.92933484  0.20649728  0.77093472
   0.00052394  0.32726512  0.91851619
   0.88448001  0.61385772  0.85225620
   0.84138588  0.97493294  0.86426495
   0.45359174  0.89337791  0.95558099
   0.40254279  0.98542478  0.15144545
   0.39022047  0.12526865  0.29150922
   0.54999306  0.41831281  0.26632267
   0.39129150  0.72277570  0.19945151
   0.25788604  0.86840702  0.36157480
   0.39490823  0.05937753  0.54116386
   0.43723882  0.39109609  0.50389827
   0.32349063  0.62910576  0.51243526
   0.58585380  0.74321629  0.59666038
   0.15151888  0.97573503  0.76714719
   0.60256699  0.26310235  0.80863355
   0.42712419  0.54186879  0.82273327
   0.14120740  0.72390812  0.87596106
   0.17270858  0.09719353  0.95728215
   0.35409281  0.28976643  0.01102866
   0.99933177  0.44563314  0.06582292
   0.68645426  0.65910219  0.11180505
   0.76771794  0.83838676  0.16036845
   0.65580486  0.95058271  0.28856690
   0.69102367  0.06277415  0.42604410
   0.86747834  0.29842338  0.32001853
   0.68557672  0.60553629  0.46231455
   0.91841435  0.85395260  0.57991169
   0.87174456  0.08959935  0.60696891
   0.98110270  0.49307480  0.57030975
   0.74311567  0.48210809  0.75395334
   0.65541856  0.90277181  0.68440586
   0.47379276  0.09675772  0.73798430
   0.70390071  0.35795880  0.05003170
   0.52796494  0.71376968  0.88776980
Ir_Ru                                   
           1
     4.852645    1.618880   -5.324224
     5.803212    7.469934    5.436198
     9.612217   -3.204072    6.408145
   Ir
  48
Direct configuration=     8
   0.79482499  0.12570643  0.02298433
   0.37896528  0.48617464  0.05831581
   0.11161255  0.67293286  0.09539361
   0.04477051  0.94241046  0.17296660
   0.92718691  0.14072546  0.21650754
   0.16936356  0.36851597  0.25107816
   0.09656551  0.55531852  0.34373912
   0.91578937  0.75205908  0.42867035
   0.12641050  0.09039435  0.41029252
   0.11757988  0.25796202  0.50459892
   0.27719172  0.34073203  0.70014330
   0.11502050  0.58199110  0.69912149
   0.28702801  0.81924055  0.67884338
   0.92880353  0.20677169  0.77082348
   0.00046164  0.32744283  0.91851062
   0.88438144  0.61365746  0.85263177
   0.84049153  0.97546375  0.86473956
   0.45439294  0.89269055  0.95546062
   0.40207459  0.98550640  0.15097610
   0.39122179  0.12577252  0.29147055
   0.54968180  0.41801621  0.26631560
   0.39060656  0.72361076  0.19927710
   0.25817454  0.86740884  0.36128270
   0.39418543  0.05906574  0.54154015
   0.43714140  0.39100207  0.50497080
   0.32300780  0.62899987  0.51218238
   0.58606017  0.74340694  0.59686562
   0.15142299  0.97648211  0.76696781
   0.60254041  0.26303625  0.80916116
   0.42786096  0.54224016  0.82265908
   0.14044743  0.72335164  0.87623383
   0.17391334  0.09674081  0.95785344
   0.35326278  0.29013814  0.01083891
   0.99847563  0.44628442  0.06599032
   0.68680437  0.65840111  0.11246386
   0.76735318  0.83848109  0.16001080
   0.65516847  0.95096586  0.28845923
   0.69046689  0.06334006  0.42614195
   0.86755482  0.29855151  0.32011888
   0.68596674  0.60599621  0.46208912
   0.91776889  0.85457170  0.58018740
   0.87109862  0.08915622  0.60816315
   0.98017963  0.49361039  0.57023419
   0.74331508  0.48118823  0.75379955
   0.65596714  0.90321059  0.68341484
   0.47309642  0.09726106  0.73779051
   0.70430107  0.35827058  0.04956481
   0.52699420  0.71527810  0.88706100
Ir_Ru                                   
           1
     4.852113    1.622921   -5.325355
     5.803136    7.473246    5.436695
     9.613860   -3.204620    6.409240
   Ir
  48
Direct configuration=     9
   0.79421811  0.12643558  0.02245553
   0.37953545  0.48574721  0.05847728
   0.11188936  0.67270645  0.09560658
   0.04424991  0.94267558  0.17277775
   0.92757306  0.14090259  0.21624157
   0.16929798  0.36907003  0.25146943
   0.09583057  0.55498174  0.34401964
   0.91672105  0.75199662  0.42873747
   0.12693905  0.08953954  0.41024520
   0.11648114  0.25935855  0.50468128
   0.27711676  0.33979724  0.70073106
   0.11552650  0.58151270  0.69943121
   0.28739483  0.81966661  0.67857267
   0.92831160  0.20708656  0.77068554
   0.00041691  0.32763891  0.91850022
   0.88424230  0.61347993  0.85299542
   0.83954586  0.97595448  0.86524081
   0.45519367  0.89200498  0.95535277
   0.40161524  0.98560610  0.15047029
   0.39227233  0.12629602  0.29139269
   0.54936185  0.41772094  0.26631541
   0.38989885  0.72443062  0.19912000
   0.25844537  0.86643175  0.36099955
   0.39345553  0.05878613  0.54191385
   0.43706227  0.39091761  0.50600959
   0.32255077  0.62886416  0.51193524
   0.58627357  0.74358788  0.59705542
   0.15134695  0.97727212  0.76677863
   0.60247702  0.26296716  0.80969833
   0.42858470  0.54261126  0.82257499
   0.13965665  0.72274992  0.87654926
   0.17514307  0.09629025  0.95840610
   0.35242942  0.29048599  0.01065015
   0.99761366  0.44693057  0.06616111
   0.68716541  0.65768779  0.11311175
   0.76699608  0.83856544  0.15964083
   0.65454746  0.95134661  0.28836980
   0.68992425  0.06392538  0.42622786
   0.86758522  0.29868385  0.32022879
   0.68629344  0.60644305  0.46185897
   0.91718931  0.85517252  0.58045695
   0.87045298  0.08872342  0.60935355
   0.97927343  0.49410287  0.57017574
   0.74352685  0.48027209  0.75363315
   0.65649111  0.90364187  0.68245443
   0.47240774  0.09777822  0.73758518
   0.70468421  0.35858417  0.04909308
   0.52603975  0.71677491  0.88636354
Ir_Ru                                   
           1
     4.851571    1.627002   -5.326562
     5.803031    7.476630    5.437183
     9.615544   -3.205181    6.410362
   Ir
  48
Direct configuration=    10
   0.79358295  0.12716174  0.02192450
   0.38010247  0.48532772  0.05864004
   0.11215689  0.67248127  0.09583952
   0.04375280  0.94291121  0.17260734
   0.92794192  0.14108670  0.21596856
   0.16929907  0.36962795  0.25188945
   0.09511536  0.55464074  0.34430112
   0.91769023  0.75198223  0.42877763
   0.12739396  0.08865388  0.41022757
   0.11538783  0.26077683  0.50476567
   0.27701590  0.33884979  0.70134485
   0.11603373  0.58103453  0.69975658
   0.28776986  0.82009126  0.67826116
   0.92786017  0.20744117  0.77052133
   0.00039061  0.32785240  0.91848535
   0.88406145  0.61332482  0.85334584
   0.83854997  0.97640517  0.86576864
   0.45599323  0.89132288  0.95525785
   0.40116560  0.98572390  0.14992970
   0.39336940  0.12683953  0.29127649
   0.54903350  0.41742666  0.26632242
   0.38916953  0.72523462  0.19897973
   0.25869908  0.86547743  0.36072419
   0.39271804  0.05854030  0.54228423
   0.43700216  0.39084261  0.50701422
   0.32211950  0.62869728  0.51169514
   0.58649445  0.74375799  0.59722957
   0.15129003  0.97810160  0.76658109
   0.60237562  0.26289452  0.81024499
   0.42929532  0.54298212  0.82248127
   0.13883735  0.72210702  0.87690379
   0.17639585  0.09584358  0.95893841
   0.35159296  0.29081008  0.01046222
   0.99674693  0.44757081  0.06633677
   0.68753666  0.65696211  0.11374905
   0.76664642  0.83864055  0.15925898
   0.65394355  0.95172419  0.28829805
   0.68939671  0.06453023  0.42630154
   0.86757096  0.29881957  0.32034820
   0.68655551  0.60687762  0.46162347
   0.91667970  0.85575396  0.58071885
   0.86980985  0.08830243  0.61053874
   0.97838616  0.49455096  0.57013524
   0.74375075  0.47936078  0.75345419
   0.65698628  0.90406556  0.68152741
   0.47172740  0.09830810  0.73736881
   0.70504963  0.35889937  0.04861675
   0.52510158  0.71825850  0.88567709
Ir_Ru                                   
           1
     4.851019    1.631122   -5.327843
     5.802897    7.480083    5.437662
     9.617267   -3.205756    6.411511
   Ir
  48
Direct configuration=    11
   0.79292053  0.12788372  0.02139244
   0.38066555  0.48491699  0.05880413
   0.11241515  0.67225729  0.09609239
   0.04327789  0.94311754  0.17245503
   0.92829322  0.14127806  0.21568888
   0.16936538  0.37018980  0.25233674
   0.09442009  0.55429619  0.34458308
   0.91869553  0.75201648  0.42879112
   0.12777612  0.08773957  0.41023874
   0.11430024  0.26221412  0.50485228
   0.27688721  0.33789069  0.70198487
   0.11654219  0.58055712  0.70009744
   0.28815034  0.82051257  0.67791244
   0.92745069  0.20783458  0.77033145
   0.00038338  0.32808245  0.91846630
   0.88383793  0.61319177  0.85368179
   0.83750504  0.97681635  0.86632272
   0.45679145  0.89064552  0.95517618
   0.40072699  0.98585961  0.14935600
   0.39450969  0.12740330  0.29112277
   0.54869726  0.41713343  0.26633675
   0.38841961  0.72602216  0.19885595
   0.25893637  0.86454779  0.36045532
   0.39197283  0.05832972  0.54265044
   0.43696227  0.39077690  0.50798388
   0.32171396  0.62849832  0.51146330
   0.58672274  0.74391631  0.59738789
   0.15125143  0.97896714  0.76637669
   0.60223484  0.26281780  0.81080109
   0.42999296  0.54335258  0.82237820
   0.13799256  0.72142732  0.87729347
   0.17766937  0.09540247  0.95944868
   0.35075325  0.29111062  0.01027493
   0.99587681  0.44820432  0.06651893
   0.68791712  0.65622406  0.11437620
   0.76630394  0.83870739  0.15886573
   0.65335811  0.95209763  0.28824372
   0.68888492  0.06515459  0.42636262
   0.86751350  0.29895803  0.32047690
   0.68675188  0.60730074  0.46138206
   0.91624392  0.85631474  0.58097161
   0.86917199  0.08789536  0.61171726
   0.97751990  0.49495311  0.57011362
   0.74398621  0.47845576  0.75326267
   0.65744794  0.90448148  0.68063644
   0.47105585  0.09884962  0.73714205
   0.70539660  0.35921607  0.04813596
   0.52417990  0.71972720  0.88500074
Ir_Ru                                   
           1
     4.850456    1.635279   -5.329191
     5.802735    7.483602    5.438131
     9.619027   -3.206342    6.412684
   Ir
  48
Direct configuration=    12
   0.79223184  0.12860044  0.02086016
   0.38122414  0.48451583  0.05896922
   0.11266416  0.67203463  0.09636489
   0.04282446  0.94329481  0.17232024
   0.92862700  0.14147702  0.21540264
   0.16949507  0.37075543  0.25281058
   0.09374452  0.55394857  0.34486511
   0.91973537  0.75209974  0.42877810
   0.12808645  0.08679889  0.41027747
   0.11321827  0.26366798  0.50494113
   0.27672858  0.33692091  0.70265135
   0.11705132  0.58008107  0.70045389
   0.28853346  0.82092866  0.67752988
   0.92708388  0.20826613  0.77011636
   0.00039572  0.32832775  0.91844355
   0.88357075  0.61308056  0.85400204
   0.83641286  0.97718870  0.86690253
   0.45758796  0.88997476  0.95510835
   0.40030019  0.98601310  0.14875109
   0.39568966  0.12798765  0.29093264
   0.54835335  0.41684102  0.26635891
   0.38764983  0.72679279  0.19874831
   0.25915800  0.86364433  0.36019148
   0.39121988  0.05815618  0.54301153
   0.43694327  0.39072025  0.50891786
   0.32133396  0.62826640  0.51124081
   0.58695891  0.74406188  0.59753021
   0.15123034  0.97986520  0.76616713
   0.60205366  0.26273642  0.81136642
   0.43067711  0.54372248  0.82226604
   0.13712548  0.72071489  0.87771466
   0.17896205  0.09496857  0.95993523
   0.34991076  0.29138785  0.01008799
   0.99500456  0.44883002  0.06670949
   0.68830623  0.65547357  0.11499365
   0.76596855  0.83876677  0.15846140
   0.65279221  0.95246590  0.28820648
   0.68838966  0.06579862  0.42641071
   0.86741480  0.29909852  0.32061464
   0.68688208  0.60771328  0.46113432
   0.91588588  0.85685359  0.58121384
   0.86854132  0.08750389  0.61288815
   0.97667626  0.49530825  0.57011153
   0.74423311  0.47755834  0.75305861
   0.65787163  0.90488939  0.67978427
   0.47039404  0.09940161  0.73690536
   0.70572460  0.35953440  0.04765071
   0.52327468  0.72117904  0.88433345
Ir_Ru                                   
           1
     4.849883    1.639473   -5.330602
     5.802545    7.487184    5.438591
     9.620822   -3.206941    6.413881
   Ir
  48
Direct configuration=    13
   0.79151817  0.12931106  0.02032866
   0.38177733  0.48412508  0.05913509
   0.11290408  0.67181333  0.09665685
   0.04239132  0.94344329  0.17220245
   0.92894302  0.14168410  0.21511007
   0.16968648  0.37132452  0.25331020
   0.09308865  0.55359861  0.34514687
   0.92080793  0.75223234  0.42873875
   0.12832676  0.08583384  0.41034250
   0.11214177  0.26513625  0.50503217
   0.27653804  0.33594148  0.70334428
   0.11756083  0.57960689  0.70082575
   0.28891651  0.82133779  0.67711706
   0.92676009  0.20873471  0.76987672
   0.00042823  0.32858723  0.91841746
   0.88325897  0.61299091  0.85430526
   0.83527499  0.97752291  0.86750761
   0.45838235  0.88931225  0.95505499
   0.39988585  0.98618437  0.14811670
   0.39690547  0.12859273  0.29070747
   0.54800236  0.41654914  0.26638910
   0.38686120  0.72754601  0.19865629
   0.25936445  0.86276892  0.35993138
   0.39045897  0.05802137  0.54336616
   0.43694572  0.39067256  0.50981581
   0.32097939  0.62800065  0.51102900
   0.58720285  0.74419376  0.59765659
   0.15122585  0.98079259  0.76595383
   0.60183143  0.26264980  0.81194061
   0.43134790  0.54409173  0.82214507
   0.13623936  0.71997399  0.87816335
   0.18027245  0.09454329  0.96039637
   0.34906563  0.29164205  0.00990112
   0.99413165  0.44944697  0.06690997
   0.68870328  0.65471062  0.11560175
   0.76563997  0.83881960  0.15804651
   0.65224750  0.95282754  0.28818617
   0.68791103  0.06646227  0.42644558
   0.86727675  0.29924053  0.32076100
   0.68694579  0.60811618  0.46087960
   0.91560938  0.85736925  0.58144425
   0.86791933  0.08712940  0.61405055
   0.97585702  0.49561549  0.57012943
   0.74449143  0.47666970  0.75284244
   0.65825311  0.90528933  0.67897301
   0.46974255  0.09996305  0.73665915
   0.70603334  0.35985444  0.04716114
   0.52238622  0.72261166  0.88367501
Ir_Ru                                   
           1
     4.849301    1.643702   -5.332072
     5.802328    7.490824    5.439041
     9.622650   -3.207550    6.415100
   Ir
  48
Direct configuration=    14
   0.79078143  0.13001410  0.01979968
   0.38232482  0.48374531  0.05930152
   0.11313502  0.67159347  0.09696799
   0.04197762  0.94356337  0.17210110
   0.92924127  0.14189956  0.21481134
   0.16993716  0.37189657  0.25383461
   0.09245252  0.55324705  0.34542785
   0.92191154  0.75241416  0.42867352
   0.12849905  0.08484666  0.41043227
   0.11107064  0.26661690  0.50512567
   0.27631404  0.33495364  0.70406371
   0.11807069  0.57913500  0.70121293
   0.28929694  0.82173827  0.67667742
   0.92647944  0.20923916  0.76961342
   0.00048152  0.32885984  0.91838819
   0.88290193  0.61292271  0.85459001
   0.83409283  0.97781992  0.86813720
   0.45917447  0.88865964  0.95501681
   0.39948519  0.98637290  0.14745462
   0.39815264  0.12921864  0.29044835
   0.54764472  0.41625775  0.26642763
   0.38605443  0.72828121  0.19857957
   0.25955612  0.86192323  0.35967387
   0.38969001  0.05792691  0.54371334
   0.43696987  0.39063348  0.51067768
   0.32064965  0.62770017  0.51082928
   0.58745471  0.74431097  0.59776697
   0.15123699  0.98174604  0.76573823
   0.60156731  0.26255745  0.81252335
   0.43200555  0.54446021  0.82201557
   0.13533740  0.71920846  0.87863609
   0.18159890  0.09412802  0.96083028
   0.34821772  0.29187368  0.00971394
   0.99325958  0.45005424  0.06712213
   0.68910758  0.65393512  0.11620093
   0.76531766  0.83886663  0.15762157
   0.65172552  0.95318139  0.28818242
   0.68744945  0.06714553  0.42646709
   0.86710139  0.29938348  0.32091568
   0.68694343  0.60851035  0.46061732
   0.91541760  0.85786096  0.58166133
   0.86730760  0.08677314  0.61520364
   0.97506331  0.49587460  0.57016743
   0.74476082  0.47579097  0.75261463
   0.65858846  0.90568147  0.67820436
   0.46910176  0.10053305  0.73640375
   0.70632230  0.36017641  0.04666731
   0.52151475  0.72402291  0.88302456
Ir_Ru                                   
           1
     4.848706    1.647964   -5.333594
     5.802084    7.494520    5.439481
     9.624509   -3.208170    6.416339
   Ir
  48
Direct configuration=    15
   0.79002328  0.13070833  0.01927453
   0.38286604  0.48337715  0.05946795
   0.11335731  0.67137508  0.09729800
   0.04158213  0.94365555  0.17201556
   0.92952173  0.14212371  0.21450676
   0.17024491  0.37247117  0.25438251
   0.09183564  0.55289462  0.34570780
   0.92304428  0.75264483  0.42858299
   0.12860567  0.08383879  0.41054544
   0.11000408  0.26810796  0.50522189
   0.27605538  0.33395825  0.70480940
   0.11858060  0.57866605  0.70161508
   0.28967210  0.82212809  0.67621450
   0.92624189  0.20977767  0.76932771
   0.00055618  0.32914469  0.91835613
   0.88249871  0.61287584  0.85485472
   0.83286837  0.97808073  0.86879082
   0.45996363  0.88801911  0.95499428
   0.39909965  0.98657824  0.14676702
   0.39942624  0.12986588  0.29015696
   0.54728070  0.41596672  0.26647465
   0.38523069  0.72899816  0.19851765
   0.25973368  0.86110880  0.35941757
   0.38891319  0.05787448  0.54405175
   0.43701641  0.39060267  0.51150309
   0.32034434  0.62736423  0.51064274
   0.58771477  0.74441280  0.59786139
   0.15126286  0.98272246  0.76552183
   0.60126032  0.26245913  0.81311388
   0.43265005  0.54482759  0.82187770
   0.13442267  0.71842170  0.87912941
   0.18293958  0.09372402  0.96123539
   0.34736748  0.29208327  0.00952613
   0.99238957  0.45065070  0.06734788
   0.68951853  0.65314723  0.11679139