Ir-Ru                                   
           1
     5.945408   -0.357231   -6.670235
     3.486510    6.264959    3.562195
    10.227329   -3.409110    6.818219
   Ir
  48
Direct configuration=     1
   0.50746719  0.00989495  0.91806491
   0.40608126  0.42359537  0.99700833
   0.47433970  0.65473779  0.07118975
   0.86261985  0.26321368  0.12209228
   0.45061856  0.23737110  0.44230502
   0.76476256  0.59160048  0.32516065
   0.23954915  0.03097026  0.28584185
   0.24433857  0.95912862  0.54453187
   0.98400010  0.15375568  0.80002148
   0.15631933  0.27876045  0.53864490
   0.06321386  0.73072599  0.69166888
   0.27587054  0.71179819  0.91311576
   0.38347696  0.11300825  0.69950138
   0.16619362  0.42287994  0.76101656
   0.13395243  0.42970000  0.06761972
   0.20518727  0.72524876  0.14408745
   0.16344682  0.99337021  0.92945781
   0.05597912  0.20159670  0.99189651
   0.30339568  0.08847222  0.06180452
   0.71812091  0.18269865  0.36277914
   0.55541917  0.44298026  0.54109244
   0.65621773  0.69713532  0.56024388
   0.49979292  0.91955917  0.45905739
   0.34010917  0.76978041  0.70743357
   0.49295216  0.46522591  0.72836942
   0.29675433  0.65107411  0.48531074
   0.94108914  0.01131234  0.64351547
   0.72394285  0.19680786  0.71515371
   0.62318751  0.15413179  0.04540021
   0.64914231  0.38093936  0.86715278
   0.64023795  0.77726836  0.82465580
   0.74597341  0.87428058  0.98578529
   0.54524865  0.24345889  0.21942760
   0.31507611  0.36627040  0.27832520
   0.10394126  0.69457869  0.32987062
   0.65719095  0.93346051  0.27670526
   0.01842896  0.98723856  0.20674302
   0.02504613  0.10278429  0.41268141
   0.50524114  0.66164556  0.31030579
   0.99402891  0.76233329  0.48402860
   0.63316871  0.01823992  0.59505472
   0.87593243  0.34934849  0.50911636
   0.89687901  0.46747977  0.68214910
   0.92102913  0.79663457  0.11305773
   0.92355251  0.79614476  0.85740004
   0.90462220  0.46110135  0.90190250
   0.75925060  0.54041513  0.11713838
   0.00503798  0.39517485  0.26663430
Ir-Ru                                   
           1
     5.939867   -0.360097   -6.670207
     3.483193    6.256959    3.558466
    10.229602   -3.409867    6.819735
   Ir
  48
Direct configuration=     2
   0.50720440  0.01050925  0.91698046
   0.40490665  0.42164166  0.99771360
   0.47239890  0.65415103  0.07180379
   0.86248219  0.26298805  0.12235075
   0.44889992  0.23587055  0.44384298
   0.76524204  0.59103672  0.32587264
   0.23909529  0.03067317  0.28661539
   0.24554056  0.95843323  0.54448020
   0.98654206  0.15348013  0.80054756
   0.15605114  0.27741496  0.53951448
   0.06188206  0.72994854  0.69264431
   0.27683251  0.71168881  0.91332532
   0.38566009  0.11153287  0.69862267
   0.16761791  0.42533184  0.76035747
   0.13518115  0.42949239  0.06832560
   0.20510794  0.72397252  0.14530742
   0.16361612  0.99332175  0.92860758
   0.05597224  0.20271463  0.99098802
   0.30349584  0.09092647  0.06114817
   0.72020239  0.18458324  0.36221956
   0.55512325  0.44533421  0.54085469
   0.65603125  0.69752022  0.55967676
   0.49951722  0.92034508  0.45801084
   0.33948039  0.77023596  0.70947213
   0.49309128  0.46553569  0.72818279
   0.29720952  0.65064451  0.48532958
   0.94194327  0.01323192  0.64170709
   0.72662093  0.19724124  0.71387845
   0.62224527  0.15279494  0.04606752
   0.65132162  0.38051922  0.86673026
   0.63962210  0.77786963  0.82398179
   0.74670230  0.87315388  0.98671120
   0.54545977  0.24258580  0.22023653
   0.31610522  0.36825967  0.27987694
   0.10393378  0.69445910  0.33119348
   0.65598051  0.93330228  0.27767968
   0.01917191  0.98844446  0.20514930
   0.02565409  0.10251111  0.41424979
   0.50603223  0.66218229  0.31088233
   0.99296478  0.76300940  0.48412831
   0.63402095  0.01979831  0.59460861
   0.87646151  0.35186369  0.50838073
   0.89568512  0.46876190  0.68181760
   0.92203884  0.79759963  0.11314838
   0.92204024  0.79875063  0.85741724
   0.90472867  0.46322323  0.90058153
   0.75832269  0.54026536  0.11822026
   0.00411482  0.39500497  0.26777817
Ir-Ru                                   
           1
     5.934355   -0.362877   -6.670222
     3.479990    6.249286    3.554873
    10.231939   -3.410646    6.821293
   Ir
  48
Direct configuration=     3
   0.50687413  0.01112068  0.91586182
   0.40385563  0.41963665  0.99837993
   0.47050834  0.65360943  0.07244662
   0.86220126  0.26265382  0.12271900
   0.44720318  0.23444487  0.44540402
   0.76580604  0.59043182  0.32658598
   0.23879064  0.03038775  0.28742012
   0.24669146  0.95793931  0.54428294
   0.98900619  0.15316795  0.80106043
   0.15585089  0.27612130  0.54036935
   0.06046003  0.72903196  0.69368918
   0.27781838  0.71165448  0.91352440
   0.38785708  0.11011217  0.69775055
   0.16915489  0.42783263  0.75967574
   0.13640211  0.42935993  0.06905615
   0.20510928  0.72265895  0.14642805
   0.16391271  0.99306454  0.92769738
   0.05593265  0.20393788  0.99002045
   0.30364826  0.09336674  0.06052820
   0.72243643  0.18656449  0.36166416
   0.55473492  0.44745509  0.54055233
   0.65609442  0.69815514  0.55908547
   0.49920235  0.92110298  0.45695773
   0.33899705  0.77055969  0.71156065
   0.49303244  0.46580535  0.72805912
   0.29763187  0.65016844  0.48534374
   0.94268427  0.01520866  0.63990324
   0.72915043  0.19752005  0.71268495
   0.62124630  0.15128364  0.04686006
   0.65356500  0.38021082  0.86622006
   0.63895640  0.77848126  0.82330236
   0.74726238  0.87212232  0.98762310
   0.54563787  0.24170791  0.22100206
   0.31703108  0.37036488  0.28139070
   0.10393078  0.69411172  0.33260296
   0.65492482  0.93323239  0.27857288
   0.01981667  0.98973654  0.20357756
   0.02624783  0.10226371  0.41585534
   0.50666325  0.66254334  0.31148585
   0.99180631  0.76364129  0.48434703
   0.63491560  0.02136746  0.59418653
   0.87699748  0.35441846  0.50758170
   0.89453246  0.47012761  0.68145209
   0.92317929  0.79859189  0.11326053
   0.92062284  0.80135089  0.85740035
   0.90487598  0.46536871  0.89924762
   0.75729435  0.54007782  0.11933421
   0.00314967  0.39496182  0.26889321
Ir-Ru                                   
           1
     5.928888   -0.365527   -6.670291
     3.476910    6.241977    3.551431
    10.234356   -3.411452    6.822904
   Ir
  48
Direct configuration=     4
   0.50648011  0.01172496  0.91471239
   0.40295130  0.41759674  0.99900043
   0.46867801  0.65311527  0.07311560
   0.86178305  0.26222387  0.12318592
   0.44554359  0.23310919  0.44698462
   0.76645607  0.58978942  0.32729666
   0.23863153  0.03011764  0.28825476
   0.24777283  0.95761858  0.54395889
   0.99138704  0.15284002  0.80154908
   0.15572744  0.27489139  0.54120607
   0.05896050  0.72800550  0.69479448
   0.27882719  0.71169286  0.91372276
   0.39006664  0.10875714  0.69688583
   0.17080374  0.43037484  0.75897177
   0.13759644  0.42929536  0.06981818
   0.20518570  0.72131397  0.14745253
   0.16434053  0.99259914  0.92673839
   0.05586154  0.20526835  0.98899458
   0.30384309  0.09576827  0.05994715
   0.72480468  0.18863431  0.36111869
   0.55424256  0.44932332  0.54018291
   0.65641573  0.69905892  0.55847071
   0.49885878  0.92183620  0.45590448
   0.33865253  0.77075762  0.71368286
   0.49278048  0.46603297  0.72800569
   0.29801973  0.64964610  0.48535741
   0.94330332  0.01721958  0.63811897
   0.73152483  0.19763605  0.71158280
   0.62019543  0.14960912  0.04776971
   0.65585352  0.38000038  0.86562757
   0.63823868  0.77910172  0.82261872
   0.74763661  0.87118952  0.98852198
   0.54577498  0.24082970  0.22172373
   0.31785330  0.37257851  0.28286404
   0.10393288  0.69354470  0.33408876
   0.65403647  0.93325796  0.27937667
   0.02037747  0.99111578  0.20203634
   0.02683099  0.10205321  0.41748416
   0.50713101  0.66271812  0.31211453
   0.99055309  0.76422655  0.48468605
   0.63585118  0.02293943  0.59378336
   0.87754496  0.35701427  0.50671921
   0.89342672  0.47157621  0.68105064
   0.92444184  0.79959329  0.11339375
   0.91930476  0.80393341  0.85733960
   0.90506913  0.46753232  0.89790883
   0.75616893  0.53985324  0.12048475
   0.00215193  0.39504645  0.26997709
Ir-Ru                                   
           1
     5.923475   -0.367997   -6.670428
     3.473966    6.235061    3.548152
    10.236865   -3.412288    6.824577
   Ir
  48
Direct configuration=     5
   0.50602844  0.01232334  0.91353610
   0.40221124  0.41554215  0.99956841
   0.46691651  0.65266658  0.07380815
   0.86123501  0.26170915  0.12374064
   0.44394171  0.23187184  0.44857988
   0.76719246  0.58911320  0.32800092
   0.23861393  0.02986703  0.28911620
   0.24876784  0.95744062  0.54352759
   0.99368298  0.15251895  0.80200139
   0.15569053  0.27373717  0.54202286
   0.05739753  0.72690568  0.69594840
   0.27985732  0.71180066  0.91392914
   0.39228471  0.10748002  0.69603131
   0.17256009  0.43295004  0.75824550
   0.13874828  0.42929322  0.07061602
   0.20533287  0.71993954  0.14838635
   0.16489940  0.99193192  0.92574398
   0.05576119  0.20670616  0.98790973
   0.30406937  0.09810090  0.05941008
   0.72728641  0.19078454  0.36058862
   0.55363960  0.45092987  0.53974525
   0.65699863  0.70024153  0.55783576
   0.49849514  0.92254847  0.45485964
   0.33844415  0.77083178  0.71582365
   0.49234208  0.46622040  0.72802579
   0.29837137  0.64907707  0.48537311
   0.94379352  0.01924639  0.63636788
   0.73374048  0.19758051  0.71057774
   0.61909668  0.14778236  0.04878563
   0.65816931  0.37987128  0.86496063
   0.63746711  0.77972983  0.82193169
   0.74780920  0.87035653  0.98941271
   0.54586132  0.23995674  0.22240306
   0.31857302  0.37489926  0.28429218
   0.10393901  0.69276465  0.33563788
   0.65332847  0.93338238  0.28008270
   0.02086794  0.99258123  0.20053177
   0.02740625  0.10188962  0.41912480
   0.50743176  0.66269261  0.31276760
   0.98920109  0.76476375  0.48514727
   0.63682585  0.02450609  0.59339260
   0.87810668  0.35965271  0.50579532
   0.89237041  0.47310483  0.68061308
   0.92581909  0.80059303  0.11354600
   0.91809205  0.80648700  0.85722649
   0.90531272  0.46970673  0.89657567
   0.75495208  0.53959470  0.12167486
   0.00112928  0.39525709  0.27102685
Ir-Ru                                   
           1
     5.918125   -0.370241   -6.670646
     3.471164    6.228564    3.545046
    10.239472   -3.413157    6.826315
   Ir
  48
Direct configuration=     6
   0.50552089  0.01291530  0.91233575
   0.40165042  0.41349359  0.00007689
   0.46523379  0.65226229  0.07452299
   0.86056599  0.26111934  0.12437102
   0.44241234  0.23074030  0.45018536
   0.76801080  0.58840748  0.32869579
   0.23873253  0.02963764  0.29000185
   0.24966123  0.95736967  0.54300726
   0.99589096  0.15222734  0.80240615
   0.15574937  0.27267338  0.54281808
   0.05578178  0.72577067  0.69713818
   0.28090828  0.71197374  0.91415445
   0.39450689  0.10629097  0.69518935
   0.17441840  0.43554441  0.75749862
   0.13984010  0.42934683  0.07145445
   0.20554269  0.71853705  0.14923731
   0.16559460  0.99106946  0.92472622
   0.05563054  0.20824998  0.98676655
   0.30431480  0.10034149  0.05892014
   0.72986487  0.19301029  0.36007690
   0.55292054  0.45226981  0.53924255
   0.65784354  0.70170533  0.55718405
   0.49811907  0.92324234  0.45383003
   0.33836583  0.77078877  0.71796412
   0.49172696  0.46637037  0.72811966
   0.29868398  0.64846054  0.48539415
   0.94415190  0.02125911  0.63466790
   0.73579763  0.19735021  0.70967748
   0.61795365  0.14581787  0.04989473
   0.66049473  0.37980018  0.86423291
   0.63664146  0.78036467  0.82124143
   0.74777267  0.86962452  0.99030080
   0.54588980  0.23909333  0.22304215
   0.31918977  0.37732131  0.28567159
   0.10394851  0.69178118  0.33724349
   0.65280968  0.93360596  0.28068357
   0.02130458  0.99413144  0.19907325
   0.02797438  0.10178516  0.42076403
   0.50756657  0.66245904  0.31344435
   0.98774835  0.76525406  0.48572892
   0.63784101  0.02606192  0.59300604
   0.87868454  0.36233950  0.50480818
   0.89136346  0.47471044  0.68013884
   0.92730278  0.80157286  0.11371494
   0.91698857  0.80900495  0.85705198
   0.90561062  0.47188910  0.89525477
   0.75365051  0.53930444  0.12290600
   0.00009459  0.39559454  0.27203734
Ir-Ru                                   
           1
     5.912844   -0.372218   -6.670958
     3.468513    6.222510    3.542122
    10.242184   -3.414061    6.828123
   Ir
  48
Direct configuration=     7
   0.50496190  0.01350129  0.91111469
   0.40128671  0.41147888  0.00051995
   0.46363971  0.65190136  0.07525503
   0.85978419  0.26046555  0.12506787
   0.44097621  0.22972912  0.45179318
   0.76890694  0.58767882  0.32937783
   0.23897917  0.02942796  0.29090853
   0.25043697  0.95736634  0.54241803
   0.99800701  0.15198555  0.80275257
   0.15591146  0.27171217  0.54359000
   0.05413713  0.72464507  0.69834569
   0.28197845  0.71220645  0.91440921
   0.39672850  0.10519828  0.69436271
   0.17637420  0.43814540  0.75673235
   0.14085981  0.42945323  0.07233734
   0.20580685  0.71711068  0.15001121
   0.16642866  0.99002080  0.92369867
   0.05547290  0.20988886  0.98557174
   0.30456503  0.10245824  0.05848151
   0.73251687  0.19530016  0.35958699
   0.55208387  0.45334799  0.53867692
   0.65894070  0.70344177  0.55651853
   0.49774011  0.92392141  0.45282021
   0.33841125  0.77063103  0.72008610
   0.49094700  0.46648741  0.72828511
   0.29895581  0.64779553  0.48542378
   0.94436968  0.02323016  0.63303630
   0.73769518  0.19694391  0.70888777
   0.61677483  0.14373275  0.05108219
   0.66280720  0.37976877  0.86345422
   0.63576147  0.78100396  0.82054966
   0.74751761  0.86898870  0.99119336
   0.54585409  0.23824709  0.22364243
   0.31970333  0.37984259  0.28700111
   0.10396256  0.69060019  0.33889514
   0.65248920  0.93392902  0.28117422
   0.02169952  0.99576546  0.19766915
   0.02853850  0.10175309  0.42238528
   0.50753820  0.66201345  0.31414298
   0.98619566  0.76569466  0.48642826
   0.63889489  0.02760090  0.59261709
   0.87928093  0.36507795  0.50375996
   0.89040479  0.47638237  0.67963023
   0.92888340  0.80252087  0.11389643
   0.91599208  0.81148318  0.85681108
   0.90596755  0.47407055  0.89395676
   0.75226869  0.53898923  0.12418089
   0.99906214  0.39606014  0.27300527
Ir-Ru                                   
           1
     5.907641   -0.373884   -6.671379
     3.466018    6.216912    3.539388
    10.245004   -3.415001    6.830003
   Ir
  48
Direct configuration=     8
   0.50435549  0.01408125  0.90987579
   0.40113706  0.40952741  0.00089058
   0.46213901  0.65157940  0.07600330
   0.85889667  0.25975937  0.12582077
   0.43965089  0.22885078  0.45339209
   0.76987619  0.58693594  0.33004198
   0.23934797  0.02923903  0.29183486
   0.25108060  0.95739493  0.54178043
   0.00003029  0.15181387  0.80303052
   0.15618466  0.27086686  0.54433867
   0.05247746  0.72356835  0.69955871
   0.28306691  0.71248893  0.91470742
   0.39894255  0.10421307  0.69355573
   0.17842495  0.44074044  0.75594548
   0.14179329  0.42960445  0.07326926
   0.20611835  0.71566309  0.15071509
   0.16739721  0.98880085  0.92267279
   0.05529128  0.21161308  0.98432952
   0.30480587  0.10441831  0.05809816
   0.73521729  0.19764125  0.35912355
   0.55113342  0.45417911  0.53805417
   0.66028288  0.70544104  0.55584221
   0.49736659  0.92459109  0.45183353
   0.33857581  0.77036159  0.72217088
   0.49001537  0.46657786  0.72851712
   0.29918579  0.64708242  0.48546493
   0.94443734  0.02513361  0.63149016
   0.73943506  0.19636628  0.70821216
   0.61556646  0.14153916  0.05233485
   0.66508253  0.37975800  0.86263494
   0.63482926  0.78164732  0.81985756
   0.74704006  0.86844441  0.99209819
   0.54575089  0.23742384  0.22420596
   0.32011408  0.38245667  0.28827715
   0.10398197  0.68923337  0.34058129
   0.65237439  0.93434750  0.28154887
   0.02206732  0.99748067  0.19632861
   0.02910151  0.10180100  0.42396943
   0.50735508  0.66135444  0.31486157
   0.98454811  0.76608600  0.48724037
   0.63998855  0.02911843  0.59221712
   0.87989749  0.36786263  0.50265905
   0.88949198  0.47811618  0.67908448
   0.93054803  0.80342205  0.11408483
   0.91509805  0.81391317  0.85650201
   0.90638703  0.47623983  0.89269173
   0.75081276  0.53865770  0.12550080
   0.99804355  0.39665526  0.27392948
Ir-Ru                                   
           1
     5.902522   -0.375201   -6.671924
     3.463686    6.211781    3.536848
    10.247934   -3.415978    6.831956
   Ir
  48
Direct configuration=     9
   0.50370632  0.01465359  0.90862428
   0.40121286  0.40766938  0.00118297
   0.46074125  0.65129357  0.07676493
   0.85791245  0.25901008  0.12661970
   0.43845149  0.22811887  0.45497388
   0.77090934  0.58618791  0.33068477
   0.23982935  0.02906929  0.29277928
   0.25157472  0.95742366  0.54111473
   0.00196250  0.15173437  0.80322931
   0.15657767  0.27015297  0.54506375
   0.05081442  0.72257425  0.70076441
   0.28417087  0.71280892  0.91506342
   0.40114603  0.10334656  0.69276904
   0.18056893  0.44332250  0.75513587
   0.14263207  0.42979428  0.07425254
   0.20646745  0.71419690  0.15135789
   0.16849944  0.98742439  0.92166045
   0.05508722  0.21341287  0.98304402
   0.30502188  0.10618883  0.05777429
   0.73794549  0.20002253  0.35868849
   0.55007688  0.45478270  0.53738114
   0.66185410  0.70767946  0.55515990
   0.49700703  0.92525687  0.45087411
   0.33885511  0.76998935  0.72419840
   0.48894665  0.46664737  0.72880819
   0.29937461  0.64632134  0.48552070
   0.94434683  0.02694450  0.63004967
   0.74102356  0.19562384  0.70765479
   0.61433407  0.13925147  0.05363748
   0.66729457  0.37974626  0.86178768
   0.63384743  0.78229254  0.81916527
   0.74634112  0.86798560  0.99301583
   0.54557527  0.23662721  0.22473647
   0.32042712  0.38515664  0.28949901
   0.10400486  0.68769430  0.34229356
   0.65246953  0.93485532  0.28180557
   0.02242381  0.99927600  0.19505937
   0.02966824  0.10193799  0.42549696
   0.50702635  0.66048434  0.31559767
   0.98280843  0.76643012  0.48815714
   0.64112033  0.03060573  0.59179825
   0.88053420  0.37068885  0.50151146
   0.88862057  0.47990235  0.67850154
   0.93228381  0.80426088  0.11427504
   0.91430085  0.81628496  0.85612363
   0.90686803  0.47839002  0.89147111
   0.74928863  0.53831920  0.12686555
   0.99705577  0.39737955  0.27480748
Ir-Ru                                   
           1
     5.897495   -0.376137   -6.672610
     3.461518    6.207133    3.534507
    10.250976   -3.416992    6.833984
   Ir
  48
Direct configuration=    10
   0.50301716  0.01522041  0.90736276
   0.40152560  0.40593963  0.00139136
   0.45945417  0.65104084  0.07753676
   0.85683938  0.25823000  0.12745303
   0.43739222  0.22754724  0.45652864
   0.77199468  0.58544745  0.33130036
   0.24041534  0.02891799  0.29373867
   0.25190388  0.95742172  0.54043826
   0.00380677  0.15176617  0.80334200
   0.15709437  0.26958002  0.54576559
   0.04916758  0.72169842  0.70194590
   0.28529034  0.71315276  0.91548980
   0.40333217  0.10261095  0.69200628
   0.18279953  0.44587452  0.75430510
   0.14336923  0.43001505  0.07528679
   0.20684524  0.71271764  0.15194683
   0.16972862  0.98591062  0.92067267
   0.05486640  0.21527895  0.98171798
   0.30519852  0.10772966  0.05751649
   0.74067583  0.20242664  0.35828746
   0.54892481  0.45518391  0.53666755
   0.66363725  0.71012846  0.55447705
   0.49666826  0.92591991  0.44994338
   0.33924169  0.76952318  0.72614717
   0.48775944  0.46670509  0.72914787
   0.29952183  0.64551435  0.48559438
   0.94409306  0.02863864  0.62873402
   0.74246492  0.19472624  0.70722000
   0.61308479  0.13688001  0.05497868
   0.66942628  0.37971230  0.86092318
   0.63281455  0.78293915  0.81847265
   0.74542494  0.86760497  0.99394960
   0.54532307  0.23586384  0.22523747
   0.32064425  0.38793257  0.29066776
   0.10403216  0.68599983  0.34402022
   0.65277804  0.93544261  0.28194414
   0.02278329  0.00115056  0.19386960
   0.03024215  0.10217520  0.42694455
   0.50656159  0.65940934  0.31635014
   0.98098180  0.76673120  0.48917313
   0.64228995  0.03205586  0.59135452
   0.88119181  0.37354857  0.50032887
   0.88778520  0.48172140  0.67788477
   0.93407503  0.80502459  0.11446008
   0.91359650  0.81859425  0.85567566
   0.90740880  0.48051244  0.89030583
   0.74770345  0.53797949  0.12827565
   0.99611490  0.39823858  0.27563373
Ir-Ru                                   
           1
     5.892567   -0.376659   -6.673452
     3.459516    6.202982    3.532370
    10.254131   -3.418044    6.836088
   Ir
  48
Direct configuration=    11
   0.50229181  0.01578393  0.90609575
   0.40208338  0.40437107  0.00151035
   0.45829094  0.65081911  0.07831344
   0.85568789  0.25742914  0.12831175
   0.43648376  0.22713558  0.45804764
   0.77312198  0.58472660  0.33188551
   0.24109462  0.02878267  0.29470939
   0.25205428  0.95735821  0.53976830
   0.00556417  0.15192905  0.80335739
   0.15773816  0.26915739  0.54644505
   0.04755577  0.72097260  0.70308944
   0.28642421  0.71350479  0.91599912
   0.40549494  0.10201206  0.69127160
   0.18510584  0.44838536  0.75345538
   0.14400325  0.43026274  0.07637148
   0.20724023  0.71123310  0.15249069
   0.17107616  0.98427790  0.91972089
   0.05463369  0.21719681  0.98035894
   0.30532287  0.10901276  0.05732841
   0.74338710  0.20483793  0.35792535
   0.54768749  0.45541277  0.53592157
   0.66561140  0.71275380  0.55379786
   0.49635688  0.92658328  0.44904184
   0.33973289  0.76897247  0.72799887
   0.48646853  0.46675869  0.72952706
   0.29962732  0.64466348  0.48568849
   0.94367221  0.03019472  0.62755987
   0.74376329  0.19368668  0.70690955
   0.61182670  0.13443832  0.05634339
   0.67145937  0.37964177  0.86005197
   0.63173397  0.78358666  0.81778155
   0.74429360  0.86729434  0.99490459
   0.54499119  0.23513857  0.22571309
   0.32076618  0.39077801  0.29178312
   0.10406142  0.68416275  0.34575561
   0.65330177  0.93609464  0.28196406
   0.02315977  0.00310646  0.19276337
   0.03083106  0.10252226  0.42829032
   0.50597436  0.65813973  0.31711629
   0.97907436  0.76699481  0.49027694
   0.64349509  0.03345870  0.59087620
   0.88187180  0.37643322  0.49912246
   0.88698086  0.48355876  0.67723501
   0.93590848  0.80570041  0.11463479
   0.91297494  0.82084155  0.85516064
   0.90800343  0.48258979  0.88921064
   0.74606352  0.53764543  0.12972976
   0.99524141  0.39923586  0.27640428
Ir-Ru                                   
           1
     5.887745   -0.376746   -6.674473
     3.457675    6.199340    3.530433
    10.257404   -3.419135    6.838269
   Ir
  48
Direct configuration=    12
   0.50153384  0.01634609  0.90482637
   0.40289358  0.40299023  0.00153485
   0.45726014  0.65062453  0.07909251
   0.85446731  0.25661857  0.12918579
   0.43573425  0.22688670  0.45952363
   0.77427639  0.58403835  0.33243689
   0.24185934  0.02865998  0.29569018
   0.25201979  0.95720785  0.53912019
   0.00723995  0.15223824  0.80326790
   0.15851186  0.26889268  0.54710365
   0.04599918  0.72043504  0.70417673
   0.28757235  0.71384690  0.91660557
   0.40762697  0.10155338  0.69056761
   0.18747832  0.45084445  0.75258736
   0.14453082  0.43052704  0.07750526
   0.20763958  0.70974841  0.15299842
   0.17253157  0.98255054  0.91881369
   0.05439272  0.21915809  0.97897379
   0.30538280  0.11000960  0.05721350
   0.74605380  0.20723681  0.35760653
   0.54637761  0.45550145  0.53515212
   0.66775731  0.71552525  0.55312518
   0.49607710  0.92725027  0.44817270
   0.34032856  0.76834286  0.72973560
   0.48509453  0.46681582  0.72993466
   0.29969274  0.64377376  0.48580593
   0.94308272  0.03159701  0.62654358
   0.74492522  0.19252408  0.70672374
   0.61056648  0.13193478  0.05772115
   0.67337403  0.37952003  0.85918472
   0.63060731  0.78423454  0.81709250
   0.74295622  0.86704531  0.99588243
   0.54457778  0.23445835  0.22616561
   0.32079559  0.39367956  0.29284578
   0.10409027  0.68219762  0.34749634
   0.65404026  0.93679712  0.28186626
   0.02356442  0.00514071  0.19174319
   0.03143674  0.10298798  0.42951245
   0.50527728  0.65668854  0.31789304
   0.97709513  0.76722543  0.49145524
   0.64473480  0.03480709  0.59035384
   0.88257485  0.37933155  0.49790609
   0.88620042  0.48539490  0.67655358
   0.93777177  0.80628022  0.11479518
   0.91242412  0.82302480  0.85458401
   0.90864589  0.48460438  0.88819818
   0.74437315  0.53732576  0.13122632
   0.99445434  0.40037557  0.27711558
Ir-Ru                                   
           1
     5.883038   -0.376384   -6.675688
     3.455990    6.196214    3.528695
    10.260795   -3.420265    6.840530
   Ir
  48
Direct configuration=    13
   0.50075028  0.01691026  0.90355779
   0.40396007  0.40182437  0.00146220
   0.45637583  0.65045389  0.07986918
   0.85318457  0.25580656  0.13006779
   0.43514664  0.22680039  0.46094641
   0.77544180  0.58339855  0.33294817
   0.24270139  0.02854932  0.29667886
   0.25179746  0.95695186  0.53850532
   0.00883969  0.15270470  0.80306852
   0.15941684  0.26878912  0.54774457
   0.04451691  0.72011585  0.70519182
   0.28873380  0.71416397  0.91731756
   0.40972090  0.10123678  0.68989988
   0.18990758  0.45324301  0.75169909
   0.14495148  0.43079820  0.07868454
   0.20803325  0.70827170  0.15347725
   0.17408148  0.98074843  0.91795765
   0.05414603  0.22115228  0.97757113
   0.30536767  0.11069928  0.05717490
   0.74865191  0.20960491  0.35733444
   0.54500854  0.45548169  0.53436989
   0.67004826  0.71840851  0.55246467
   0.49583204  0.92792253  0.44733595
   0.34102663  0.76764395  0.73134250
   0.48365878  0.46688214  0.73035993
   0.29971855  0.64284871  0.48595025
   0.94232241  0.03283118  0.62569959
   0.74595795  0.19125284  0.70666275
   0.60931011  0.12937893  0.05910066
   0.67515480  0.37933237  0.85833110
   0.62943807  0.78488047  0.81640714
   0.74142727  0.86684790  0.99688368
   0.54408201  0.23382602  0.22659906
   0.32072945  0.39662760  0.29385753
   0.10411433  0.68011471  0.34923936
   0.65498769  0.93753283  0.28165460
   0.02400716  0.00725372  0.19081402
   0.03206507  0.10358380  0.43059127
   0.50448706  0.65507377  0.31867481
   0.97505425  0.76743249  0.49269217
   0.64600697  0.03609662  0.58978126
   0.88329891  0.38222820  0.49669662
   0.88543437  0.48720859  0.67584360
   0.93965172  0.80675041  0.11493463
   0.91193618  0.82514449  0.85395265
   0.90933090  0.48654335  0.88728048
   0.74263705  0.53703071  0.13276559
   0.99377638  0.40166267  0.27776130
Ir-Ru                                   
           1
     5.878452   -0.375560   -6.677118
     3.454458    6.193606    3.527154
    10.264304   -3.421435    6.842869
   Ir
  48
Direct configuration=    14
   0.49994608  0.01748035  0.90229119
   0.40528326  0.40089652  0.00129070
   0.45564870  0.65030320  0.08064166
   0.85184454  0.25500299  0.13094858
   0.43472368  0.22687197  0.46230501
   0.77660506  0.58282422  0.33341439
   0.24361293  0.02844762  0.29767344
   0.25138583  0.95657546  0.53793291
   0.01036890  0.15333383  0.80275700
   0.16045084  0.26884773  0.54837004
   0.04312142  0.72003238  0.70612287
   0.28990998  0.71443520  0.91814420
   0.41176806  0.10106383  0.68927262
   0.19237988  0.45557124  0.75079159
   0.14526991  0.43106829  0.07990651
   0.20841087  0.70681355  0.15393261
   0.17571027  0.97890239  0.91715791
   0.05389656  0.22316475  0.97615971
   0.30526510  0.11106185  0.05721442
   0.75115455  0.21191693  0.35711519
   0.54360015  0.45538690  0.53358496
   0.67246208  0.72137616  0.55181918
   0.49562319  0.92860369  0.44652869
   0.34182169  0.76688274  0.73280908
   0.48217972  0.46696355  0.73079328
   0.29970618  0.64189202  0.48612462
   0.94139514  0.03388825  0.62503773
   0.74686762  0.18989053  0.70672582
   0.60806259  0.12677735  0.06047491
   0.67678495  0.37906455  0.85750024
   0.62823047  0.78552289  0.81572546
   0.73971884  0.86669183  0.99790861
   0.54350267  0.23324380  0.22701724
   0.32056861  0.39960847  0.29482242
   0.10413557  0.67793198  0.35097698
   0.65613763  0.93828353  0.28133419
   0.02449471  0.00944933  0.18997611
   0.03272219  0.10431250  0.43150858
   0.50362213  0.65332110  0.31945706
   0.97296678  0.76762944  0.49397362
   0.64730885  0.03732180  0.58915279
   0.88404567  0.38510836  0.49550925
   0.88467690  0.48897843  0.67510868
   0.94153603  0.80710789  0.11504818
   0.91149770  0.82719555  0.85327663
   0.91005256  0.48839507  0.88646773
   0.74086069  0.53676839  0.13434474
   0.99323147  0.40310272  0.27833642
Ir-Ru                                   
           1
     5.873991   -0.374264   -6.678776
     3.453074    6.191517    3.525806
    10.267930   -3.422643    6.845287
   Ir
  48
Direct configuration=    15
   0.49912670  0.01805877  0.90103186
   0.40685871  0.40021930  0.00102023
   0.45508905  0.65016751  0.08140759
   0.85045497  0.25421782  0.13182026
   0.43446357  0.22708462  0.46359326
   0.77774877  0.58233654  0.33382836
   0.24458709  0.02835167  0.29867251
   0.25078660  0.95606802  0.53741009
   0.01183631  0.15412988  0.80233159
   0.16160865  0.26906752  0.54898443
   0.04183295  0.72020547  0.70695541
   0.29110144  0.71463992  0.91909093
   0.41376008  0.10102921  0.68869260
   0.19488060  0.45781942  0.74986499
   0.14549245  0.43132497  0.08116591
   0.20876352  0.70538730  0.15436909
   0.17740558  0.97703729  0.91641619
   0.05364681  0.22518803  0.97474746
   0.30506657  0.11108693  0.05733268
   0.75353980  0.21415619  0.35695209
   0.54216883  0.45525027  0.53280766
   0.67497268  0.72440028  0.55119062
   0.49545482  0.92929419  0.44574980
   0.34270886  0.76607283  0.73412744
   0.48067436  0.46706297  0.73122661
   0.29965704  0.64090905  0.48633263
   0.94030502  0.03475961  0.62456723
   0.74765918  0.18845571  0.70691391
   0.60682898  0.12413924  0.06183519
   0.67825198  0.37870629  0.85670049
   0.62698750  0.78616035  0.81504883
   0.73784791  0.86656301  0.99895647
   0.54283958  0.23271148  0.22742158
   0.32031376  0.40260623  0.29574183
   0.10415424  0.67566865  0.35270505