 120 120   0   0
  0.1459365E+02  0.9905788E-09  0.1373356E-08  0.1421670E-08  0.5000000E-15
  1.000000000000000E-004
  CAR 
 Ir_Ru                                   
     16.22973136     -1.85361085  301      9.99097580      1.00000000
     -1.854  0.0000E+00  0.0000E+00
     -1.793  0.0000E+00  0.0000E+00
     -1.733  0.0000E+00  0.0000E+00
     -1.673 -0.6901E-29 -0.4160E-30
     -1.612 -0.8645E-25 -0.5212E-26
     -1.552 -0.5204E-21 -0.3137E-22
     -1.492 -0.1503E-17 -0.9063E-19
     -1.432 -0.2011E-14 -0.1213E-15
     -1.371 -0.1326E-11 -0.8007E-13
     -1.311 -0.4143E-09 -0.2505E-10
     -1.251 -0.6118E-07 -0.3713E-08
     -1.191 -0.4238E-05 -0.2591E-06
     -1.130 -0.1361E-03 -0.8461E-05
     -1.070 -0.1996E-02 -0.1287E-03
     -1.010 -0.1315E-01 -0.9216E-03
     -0.949 -0.3713E-01 -0.3160E-02
     -0.889 -0.3332E-02 -0.3360E-02
     -0.829  0.4074E+00  0.2120E-01
     -0.769  0.1577E+01  0.1163E+00
     -0.708  0.2644E+01  0.2756E+00
     -0.648  0.2563E+01  0.4301E+00
     -0.588  0.2952E+01  0.6081E+00
     -0.527  0.4468E+01  0.8774E+00
     -0.467  0.4524E+01  0.1150E+01
     -0.407  0.4115E+01  0.1398E+01
     -0.347  0.5387E+01  0.1723E+01
     -0.286  0.6181E+01  0.2095E+01
     -0.226  0.5382E+01  0.2420E+01
     -0.166  0.4791E+01  0.2709E+01
     -0.106  0.5526E+01  0.3042E+01
     -0.045  0.7605E+01  0.3500E+01
      0.015  0.9326E+01  0.4062E+01
      0.075  0.8113E+01  0.4551E+01
      0.136  0.5921E+01  0.4908E+01
      0.196  0.6620E+01  0.5307E+01
      0.256  0.8663E+01  0.5830E+01
      0.316  0.9270E+01  0.6388E+01
      0.377  0.9033E+01  0.6933E+01
      0.437  0.9231E+01  0.7489E+01
      0.497  0.9896E+01  0.8086E+01
      0.558  0.1098E+02  0.8748E+01
      0.618  0.1098E+02  0.9409E+01
      0.678  0.9717E+01  0.9995E+01
      0.738  0.9645E+01  0.1058E+02
      0.799  0.1091E+02  0.1123E+02
      0.859  0.1250E+02  0.1199E+02
      0.919  0.1362E+02  0.1281E+02
      0.979  0.1382E+02  0.1364E+02
      1.040  0.1324E+02  0.1444E+02
      1.100  0.1309E+02  0.1523E+02
      1.160  0.1383E+02  0.1606E+02
      1.221  0.1376E+02  0.1689E+02
      1.281  0.1347E+02  0.1770E+02
      1.341  0.1464E+02  0.1859E+02
      1.401  0.1683E+02  0.1960E+02
      1.462  0.1968E+02  0.2079E+02
      1.522  0.2152E+02  0.2208E+02
      1.582  0.1941E+02  0.2325E+02
      1.643  0.1593E+02  0.2421E+02
      1.703  0.1595E+02  0.2518E+02
      1.763  0.1940E+02  0.2634E+02
      1.823  0.2287E+02  0.2772E+02
      1.884  0.2530E+02  0.2925E+02
      1.944  0.2621E+02  0.3083E+02
      2.004  0.2679E+02  0.3244E+02
      2.064  0.2880E+02  0.3418E+02
      2.125  0.3202E+02  0.3611E+02
      2.185  0.3994E+02  0.3852E+02
      2.245  0.5773E+02  0.4200E+02
      2.306  0.8162E+02  0.4692E+02
      2.366  0.9701E+02  0.5276E+02
      2.426  0.9699E+02  0.5861E+02
      2.486  0.9548E+02  0.6437E+02
      2.547  0.9624E+02  0.7017E+02
      2.607  0.9347E+02  0.7580E+02
      2.667  0.9626E+02  0.8160E+02
      2.728  0.1076E+03  0.8809E+02
      2.788  0.1162E+03  0.9509E+02
      2.848  0.1174E+03  0.1022E+03
      2.908  0.1161E+03  0.1092E+03
      2.969  0.1184E+03  0.1163E+03
      3.029  0.1236E+03  0.1238E+03
      3.089  0.1293E+03  0.1316E+03
      3.149  0.1309E+03  0.1394E+03
      3.210  0.1306E+03  0.1473E+03
      3.270  0.1311E+03  0.1552E+03
      3.330  0.1321E+03  0.1632E+03
      3.391  0.1411E+03  0.1717E+03
      3.451  0.1554E+03  0.1811E+03
      3.511  0.1587E+03  0.1906E+03
      3.571  0.1416E+03  0.1992E+03
      3.632  0.1171E+03  0.2062E+03
      3.692  0.1084E+03  0.2127E+03
      3.752  0.1139E+03  0.2196E+03
      3.813  0.1163E+03  0.2266E+03
      3.873  0.1130E+03  0.2334E+03
      3.933  0.1052E+03  0.2398E+03
      3.993  0.9756E+02  0.2457E+03
      4.054  0.1069E+03  0.2521E+03
      4.114  0.1380E+03  0.2604E+03
      4.174  0.1663E+03  0.2705E+03
      4.234  0.1729E+03  0.2809E+03
      4.295  0.1607E+03  0.2906E+03
      4.355  0.1446E+03  0.2993E+03
      4.415  0.1340E+03  0.3074E+03
      4.476  0.1274E+03  0.3150E+03
      4.536  0.1238E+03  0.3225E+03
      4.596  0.1243E+03  0.3300E+03
      4.656  0.1279E+03  0.3377E+03
      4.717  0.1346E+03  0.3458E+03
      4.777  0.1441E+03  0.3545E+03
      4.837  0.1529E+03  0.3637E+03
      4.898  0.1613E+03  0.3734E+03
      4.958  0.1683E+03  0.3836E+03
      5.018  0.1719E+03  0.3939E+03
      5.078  0.1683E+03  0.4041E+03
      5.139  0.1549E+03  0.4134E+03
      5.199  0.1422E+03  0.4220E+03
      5.259  0.1380E+03  0.4303E+03
      5.319  0.1300E+03  0.4381E+03
      5.380  0.1113E+03  0.4449E+03
      5.440  0.9180E+02  0.4504E+03
      5.500  0.7864E+02  0.4551E+03
      5.561  0.8157E+02  0.4600E+03
      5.621  0.1035E+03  0.4663E+03
      5.681  0.1326E+03  0.4743E+03
      5.741  0.1575E+03  0.4838E+03
      5.802  0.1751E+03  0.4943E+03
      5.862  0.1868E+03  0.5056E+03
      5.922  0.1965E+03  0.5174E+03
      5.983  0.2038E+03  0.5297E+03
      6.043  0.2028E+03  0.5420E+03
      6.103  0.1945E+03  0.5537E+03
      6.163  0.1885E+03  0.5650E+03
      6.224  0.1867E+03  0.5763E+03
      6.284  0.1850E+03  0.5874E+03
      6.344  0.1839E+03  0.5985E+03
      6.404  0.1795E+03  0.6093E+03
      6.465  0.1738E+03  0.6198E+03
      6.525  0.1727E+03  0.6302E+03
      6.585  0.1729E+03  0.6407E+03
      6.646  0.1734E+03  0.6511E+03
      6.706  0.1789E+03  0.6619E+03
      6.766  0.1878E+03  0.6732E+03
      6.826  0.1913E+03  0.6847E+03
      6.887  0.1906E+03  0.6962E+03
      6.947  0.1931E+03  0.7079E+03
      7.007  0.1991E+03  0.7199E+03
      7.068  0.2027E+03  0.7321E+03
      7.128  0.2010E+03  0.7442E+03
      7.188  0.1935E+03  0.7559E+03
      7.248  0.1811E+03  0.7668E+03
      7.309  0.1703E+03  0.7771E+03
      7.369  0.1610E+03  0.7868E+03
      7.429  0.1492E+03  0.7958E+03
      7.489  0.1429E+03  0.8044E+03
      7.550  0.1481E+03  0.8133E+03
      7.610  0.1509E+03  0.8224E+03
      7.670  0.1380E+03  0.8307E+03
      7.731  0.1216E+03  0.8380E+03
      7.791  0.1122E+03  0.8448E+03
      7.851  0.1090E+03  0.8514E+03
      7.911  0.1099E+03  0.8580E+03
      7.972  0.1132E+03  0.8648E+03
      8.032  0.1163E+03  0.8718E+03
      8.092  0.1155E+03  0.8788E+03
      8.153  0.1097E+03  0.8854E+03
      8.213  0.1034E+03  0.8916E+03
      8.273  0.1021E+03  0.8978E+03
      8.333  0.1016E+03  0.9039E+03
      8.394  0.9924E+02  0.9099E+03
      8.454  0.9972E+02  0.9159E+03
      8.514  0.1009E+03  0.9220E+03
      8.574  0.9806E+02  0.9279E+03
      8.635  0.9445E+02  0.9336E+03
      8.695  0.9289E+02  0.9392E+03
      8.755  0.9196E+02  0.9447E+03
      8.816  0.9033E+02  0.9502E+03
      8.876  0.9311E+02  0.9558E+03
      8.936  0.9788E+02  0.9617E+03
      8.996  0.9528E+02  0.9674E+03
      9.057  0.8961E+02  0.9728E+03
      9.117  0.9118E+02  0.9783E+03
      9.177  0.9385E+02  0.9840E+03
      9.238  0.9121E+02  0.9895E+03
      9.298  0.9175E+02  0.9950E+03
      9.358  0.9510E+02  0.1001E+04
      9.418  0.9771E+02  0.1007E+04
      9.479  0.1016E+03  0.1013E+04
      9.539  0.1083E+03  0.1019E+04
      9.599  0.1160E+03  0.1026E+04
      9.659  0.1242E+03  0.1034E+04
      9.720  0.1302E+03  0.1042E+04
      9.780  0.1336E+03  0.1050E+04
      9.840  0.1398E+03  0.1058E+04
      9.901  0.1463E+03  0.1067E+04
      9.961  0.1459E+03  0.1076E+04
     10.021  0.1411E+03  0.1084E+04
     10.081  0.1416E+03  0.1093E+04
     10.142  0.1509E+03  0.1102E+04
     10.202  0.1622E+03  0.1112E+04
     10.262  0.1734E+03  0.1122E+04
     10.323  0.1867E+03  0.1133E+04
     10.383  0.1964E+03  0.1145E+04
     10.443  0.2026E+03  0.1157E+04
     10.503  0.2134E+03  0.1170E+04
     10.564  0.2250E+03  0.1184E+04
     10.624  0.2269E+03  0.1197E+04
     10.684  0.2209E+03  0.1211E+04
     10.744  0.2102E+03  0.1223E+04
     10.805  0.1945E+03  0.1235E+04
     10.865  0.1768E+03  0.1246E+04
     10.925  0.1597E+03  0.1255E+04
     10.986  0.1382E+03  0.1264E+04
     11.046  0.1052E+03  0.1270E+04
     11.106  0.6789E+02  0.1274E+04
     11.166  0.4441E+02  0.1277E+04
     11.227  0.3815E+02  0.1279E+04
     11.287  0.3791E+02  0.1282E+04
     11.347  0.3660E+02  0.1284E+04
     11.408  0.3419E+02  0.1286E+04
     11.468  0.2935E+02  0.1288E+04
     11.528  0.2687E+02  0.1289E+04
     11.588  0.3094E+02  0.1291E+04
     11.649  0.3356E+02  0.1293E+04
     11.709  0.2983E+02  0.1295E+04
     11.769  0.2644E+02  0.1296E+04
     11.829  0.2808E+02  0.1298E+04
     11.890  0.3123E+02  0.1300E+04
     11.950  0.3037E+02  0.1302E+04
     12.010  0.2646E+02  0.1303E+04
     12.071  0.2330E+02  0.1305E+04
     12.131  0.2031E+02  0.1306E+04
     12.191  0.1606E+02  0.1307E+04
     12.251  0.1220E+02  0.1308E+04
     12.312  0.1199E+02  0.1309E+04
     12.372  0.1415E+02  0.1309E+04
     12.432  0.1519E+02  0.1310E+04
     12.493  0.1422E+02  0.1311E+04
     12.553  0.1156E+02  0.1312E+04
     12.613  0.7960E+01  0.1312E+04
     12.673  0.6091E+01  0.1313E+04
     12.734  0.6119E+01  0.1313E+04
     12.794  0.5557E+01  0.1313E+04
     12.854  0.4787E+01  0.1314E+04
     12.914  0.4699E+01  0.1314E+04
     12.975  0.4474E+01  0.1314E+04
     13.035  0.4260E+01  0.1314E+04
     13.095  0.3637E+01  0.1315E+04
     13.156  0.3509E+01  0.1315E+04
     13.216  0.3818E+01  0.1315E+04
     13.276  0.3467E+01  0.1315E+04
     13.336  0.3334E+01  0.1316E+04
     13.397  0.3749E+01  0.1316E+04
     13.457  0.3668E+01  0.1316E+04
     13.517  0.3254E+01  0.1316E+04
     13.578  0.3065E+01  0.1316E+04
     13.638  0.3120E+01  0.1317E+04
     13.698  0.2589E+01  0.1317E+04
     13.758  0.1978E+01  0.1317E+04
     13.819  0.2540E+01  0.1317E+04
     13.879  0.3157E+01  0.1317E+04
     13.939  0.2472E+01  0.1317E+04
     13.999  0.2265E+01  0.1317E+04
     14.060  0.3086E+01  0.1318E+04
     14.120  0.3544E+01  0.1318E+04
     14.180  0.4634E+01  0.1318E+04
     14.241  0.5218E+01  0.1318E+04
     14.301  0.3513E+01  0.1319E+04
     14.361  0.1487E+01  0.1319E+04
     14.421  0.1130E+01  0.1319E+04
     14.482  0.1875E+01  0.1319E+04
     14.542  0.2284E+01  0.1319E+04
     14.602  0.2207E+01  0.1319E+04
     14.663  0.2235E+01  0.1319E+04
     14.723  0.2652E+01  0.1320E+04
     14.783  0.2887E+01  0.1320E+04
     14.843  0.1777E+01  0.1320E+04
     14.904  0.5825E+00  0.1320E+04
     14.964  0.4634E+00  0.1320E+04
     15.024  0.4984E+00  0.1320E+04
     15.084  0.3266E+00  0.1320E+04
     15.145  0.3899E+00  0.1320E+04
     15.205  0.5685E+00  0.1320E+04
     15.265  0.4823E+00  0.1320E+04
     15.326  0.1797E+00  0.1320E+04
     15.386 -0.5938E-02  0.1320E+04
     15.446 -0.1808E-01  0.1320E+04
     15.506 -0.3563E-02  0.1320E+04
     15.567 -0.2619E-03  0.1320E+04
     15.627 -0.8360E-05  0.1320E+04
     15.687 -0.1217E-06  0.1320E+04
     15.748 -0.8269E-09  0.1320E+04
     15.808 -0.2651E-11  0.1320E+04
     15.868 -0.4052E-14  0.1320E+04
     15.928  0.0000E+00  0.1320E+04
     15.989  0.0000E+00  0.1320E+04
     16.049  0.0000E+00  0.1320E+04
     16.109  0.0000E+00  0.1320E+04
     16.169  0.0000E+00  0.1320E+04
     16.230  0.0000E+00  0.1320E+04
