 256 256   0   0
  0.1419206E+02  0.1537080E-08  0.1537218E-08  0.1537636E-08  0.5000000E-15
  1.000000000000000E-004
  CAR 
 Ir_Ru                                   
     12.68843170     -1.29489540  301      9.24209306      1.00000000
     -1.295  0.0000E+00  0.0000E+00
     -1.248  0.0000E+00  0.0000E+00
     -1.202  0.0000E+00  0.0000E+00
     -1.155  0.0000E+00  0.0000E+00
     -1.108 -0.2769E-28 -0.1291E-29
     -1.062 -0.4137E-25 -0.1930E-26
     -1.015 -0.3985E-22 -0.1860E-23
     -0.969 -0.2477E-19 -0.1156E-20
     -0.922 -0.9931E-17 -0.4641E-18
     -0.875 -0.2493E-14 -0.1167E-15
     -0.829 -0.4134E-12 -0.1939E-13
     -0.782 -0.4415E-10 -0.2077E-11
     -0.736 -0.3038E-08 -0.1437E-09
     -0.689 -0.1347E-06 -0.6424E-08
     -0.642 -0.3858E-05 -0.1863E-06
     -0.596 -0.7153E-04 -0.3520E-05
     -0.549 -0.8609E-03 -0.4365E-04
     -0.503 -0.6730E-02 -0.3573E-03
     -0.456 -0.3375E-01 -0.1931E-02
     -0.409 -0.1024E+00 -0.6704E-02
     -0.363 -0.1374E+00 -0.1311E-01
     -0.316  0.2277E+00 -0.2496E-02
     -0.269  0.1519E+01  0.6828E-01
     -0.223  0.3550E+01  0.2337E+00
     -0.176  0.5076E+01  0.4703E+00
     -0.130  0.5737E+01  0.7377E+00
     -0.083  0.7342E+01  0.1080E+01
     -0.036  0.1021E+02  0.1556E+01
      0.010  0.1101E+02  0.2069E+01
      0.057  0.9140E+01  0.2495E+01
      0.103  0.9400E+01  0.2934E+01
      0.150  0.1318E+02  0.3548E+01
      0.197  0.1592E+02  0.4290E+01
      0.243  0.1605E+02  0.5038E+01
      0.290  0.1675E+02  0.5819E+01
      0.336  0.1850E+02  0.6681E+01
      0.383  0.1833E+02  0.7535E+01
      0.430  0.1743E+02  0.8347E+01
      0.476  0.1982E+02  0.9271E+01
      0.523  0.2338E+02  0.1036E+02
      0.570  0.2405E+02  0.1148E+02
      0.616  0.2226E+02  0.1252E+02
      0.663  0.1870E+02  0.1339E+02
      0.709  0.1405E+02  0.1405E+02
      0.756  0.1113E+02  0.1456E+02
      0.803  0.1071E+02  0.1506E+02
      0.849  0.1115E+02  0.1558E+02
      0.896  0.1219E+02  0.1615E+02
      0.942  0.1469E+02  0.1684E+02
      0.989  0.1838E+02  0.1769E+02
      1.036  0.2292E+02  0.1876E+02
      1.082  0.2811E+02  0.2007E+02
      1.129  0.3125E+02  0.2153E+02
      1.175  0.2971E+02  0.2291E+02
      1.222  0.2588E+02  0.2412E+02
      1.269  0.2304E+02  0.2519E+02
      1.315  0.2093E+02  0.2617E+02
      1.362  0.2000E+02  0.2710E+02
      1.409  0.2162E+02  0.2811E+02
      1.455  0.2407E+02  0.2923E+02
      1.502  0.2567E+02  0.3043E+02
      1.548  0.2900E+02  0.3178E+02
      1.595  0.3515E+02  0.3342E+02
      1.642  0.3875E+02  0.3522E+02
      1.688  0.3786E+02  0.3699E+02
      1.735  0.3931E+02  0.3882E+02
      1.781  0.4556E+02  0.4094E+02
      1.828  0.4934E+02  0.4324E+02
      1.875  0.4781E+02  0.4547E+02
      1.921  0.4731E+02  0.4768E+02
      1.968  0.5092E+02  0.5005E+02
      2.014  0.5409E+02  0.5257E+02
      2.061  0.5548E+02  0.5516E+02
      2.108  0.6146E+02  0.5802E+02
      2.154  0.7470E+02  0.6150E+02
      2.201  0.8952E+02  0.6568E+02
      2.248  0.1033E+03  0.7049E+02
      2.294  0.1180E+03  0.7599E+02
      2.341  0.1311E+03  0.8210E+02
      2.387  0.1384E+03  0.8855E+02
      2.434  0.1434E+03  0.9524E+02
      2.481  0.1526E+03  0.1023E+03
      2.527  0.1611E+03  0.1099E+03
      2.574  0.1617E+03  0.1174E+03
      2.620  0.1614E+03  0.1249E+03
      2.667  0.1691E+03  0.1328E+03
      2.714  0.1786E+03  0.1411E+03
      2.760  0.1849E+03  0.1497E+03
      2.807  0.1981E+03  0.1590E+03
      2.853  0.2233E+03  0.1694E+03
      2.900  0.2478E+03  0.1809E+03
      2.947  0.2562E+03  0.1929E+03
      2.993  0.2496E+03  0.2045E+03
      3.040  0.2469E+03  0.2160E+03
      3.087  0.2625E+03  0.2283E+03
      3.133  0.2869E+03  0.2416E+03
      3.180  0.3014E+03  0.2557E+03
      3.226  0.3038E+03  0.2698E+03
      3.273  0.3051E+03  0.2841E+03
      3.320  0.3085E+03  0.2984E+03
      3.366  0.3112E+03  0.3129E+03
      3.413  0.3145E+03  0.3276E+03
      3.459  0.3219E+03  0.3426E+03
      3.506  0.3337E+03  0.3582E+03
      3.553  0.3444E+03  0.3742E+03
      3.599  0.3471E+03  0.3904E+03
      3.646  0.3451E+03  0.4065E+03
      3.692  0.3490E+03  0.4227E+03
      3.739  0.3579E+03  0.4394E+03
      3.786  0.3593E+03  0.4562E+03
      3.832  0.3522E+03  0.4726E+03
      3.879  0.3478E+03  0.4888E+03
      3.926  0.3497E+03  0.5051E+03
      3.972  0.3505E+03  0.5214E+03
      4.019  0.3411E+03  0.5373E+03
      4.065  0.3224E+03  0.5524E+03
      4.112  0.3065E+03  0.5667E+03
      4.159  0.2974E+03  0.5805E+03
      4.205  0.2871E+03  0.5939E+03
      4.252  0.2708E+03  0.6065E+03
      4.298  0.2532E+03  0.6183E+03
      4.345  0.2426E+03  0.6296E+03
      4.392  0.2455E+03  0.6411E+03
      4.438  0.2581E+03  0.6531E+03
      4.485  0.2615E+03  0.6653E+03
      4.531  0.2502E+03  0.6770E+03
      4.578  0.2478E+03  0.6885E+03
      4.625  0.2679E+03  0.7010E+03
      4.671  0.2927E+03  0.7146E+03
      4.718  0.3073E+03  0.7290E+03
      4.765  0.3139E+03  0.7436E+03
      4.811  0.3135E+03  0.7582E+03
      4.858  0.3046E+03  0.7724E+03
      4.904  0.2896E+03  0.7859E+03
      4.951  0.2782E+03  0.7989E+03
      4.998  0.2814E+03  0.8120E+03
      5.044  0.2957E+03  0.8258E+03
      5.091  0.3082E+03  0.8401E+03
      5.137  0.3091E+03  0.8545E+03
      5.184  0.2973E+03  0.8684E+03
      5.231  0.2854E+03  0.8817E+03
      5.277  0.2845E+03  0.8950E+03
      5.324  0.2905E+03  0.9085E+03
      5.370  0.2975E+03  0.9224E+03
      5.417  0.3018E+03  0.9364E+03
      5.464  0.2983E+03  0.9503E+03
      5.510  0.2883E+03  0.9638E+03
      5.557  0.2869E+03  0.9772E+03
      5.604  0.3034E+03  0.9913E+03
      5.650  0.3219E+03  0.1006E+04
      5.697  0.3252E+03  0.1021E+04
      5.743  0.3201E+03  0.1036E+04
      5.790  0.3200E+03  0.1051E+04
      5.837  0.3265E+03  0.1067E+04
      5.883  0.3371E+03  0.1082E+04
      5.930  0.3506E+03  0.1099E+04
      5.976  0.3659E+03  0.1116E+04
      6.023  0.3793E+03  0.1133E+04
      6.070  0.3856E+03  0.1151E+04
      6.116  0.3877E+03  0.1169E+04
      6.163  0.3919E+03  0.1188E+04
      6.209  0.3989E+03  0.1206E+04
      6.256  0.4101E+03  0.1225E+04
      6.303  0.4280E+03  0.1245E+04
      6.349  0.4472E+03  0.1266E+04
      6.396  0.4575E+03  0.1287E+04
      6.443  0.4569E+03  0.1309E+04
      6.489  0.4529E+03  0.1330E+04
      6.536  0.4498E+03  0.1351E+04
      6.582  0.4453E+03  0.1372E+04
      6.629  0.4389E+03  0.1392E+04
      6.676  0.4316E+03  0.1412E+04
      6.722  0.4247E+03  0.1432E+04
      6.769  0.4168E+03  0.1451E+04
      6.815  0.4009E+03  0.1470E+04
      6.862  0.3758E+03  0.1488E+04
      6.909  0.3537E+03  0.1504E+04
      6.955  0.3441E+03  0.1520E+04
      7.002  0.3389E+03  0.1536E+04
      7.048  0.3270E+03  0.1551E+04
      7.095  0.3144E+03  0.1566E+04
      7.142  0.3137E+03  0.1580E+04
      7.188  0.3195E+03  0.1595E+04
      7.235  0.3127E+03  0.1610E+04
      7.282  0.2861E+03  0.1623E+04
      7.328  0.2548E+03  0.1635E+04
      7.375  0.2401E+03  0.1646E+04
      7.421  0.2495E+03  0.1658E+04
      7.468  0.2721E+03  0.1671E+04
      7.515  0.2847E+03  0.1684E+04
      7.561  0.2757E+03  0.1697E+04
      7.608  0.2577E+03  0.1709E+04
      7.654  0.2482E+03  0.1720E+04
      7.701  0.2580E+03  0.1732E+04
      7.748  0.2841E+03  0.1746E+04
      7.794  0.3060E+03  0.1760E+04
      7.841  0.3120E+03  0.1774E+04
      7.887  0.3086E+03  0.1789E+04
      7.934  0.3028E+03  0.1803E+04
      7.981  0.2958E+03  0.1817E+04
      8.027  0.2910E+03  0.1830E+04
      8.074  0.2963E+03  0.1844E+04
      8.121  0.3099E+03  0.1858E+04
      8.167  0.3172E+03  0.1873E+04
      8.214  0.3179E+03  0.1888E+04
      8.260  0.3308E+03  0.1903E+04
      8.307  0.3546E+03  0.1920E+04
      8.354  0.3619E+03  0.1937E+04
      8.400  0.3380E+03  0.1953E+04
      8.447  0.2980E+03  0.1967E+04
      8.493  0.2657E+03  0.1979E+04
      8.540  0.2558E+03  0.1991E+04
      8.587  0.2722E+03  0.2004E+04
      8.633  0.2964E+03  0.2017E+04
      8.680  0.2997E+03  0.2031E+04
      8.726  0.2831E+03  0.2045E+04
      8.773  0.2669E+03  0.2057E+04
      8.820  0.2564E+03  0.2069E+04
      8.866  0.2487E+03  0.2080E+04
      8.913  0.2450E+03  0.2092E+04
      8.960  0.2454E+03  0.2103E+04
      9.006  0.2542E+03  0.2115E+04
      9.053  0.2745E+03  0.2128E+04
      9.099  0.2838E+03  0.2141E+04
      9.146  0.2647E+03  0.2154E+04
      9.193  0.2398E+03  0.2165E+04
      9.239  0.2278E+03  0.2175E+04
      9.286  0.2195E+03  0.2186E+04
      9.332  0.2139E+03  0.2196E+04
      9.379  0.2227E+03  0.2206E+04
      9.426  0.2436E+03  0.2217E+04
      9.472  0.2631E+03  0.2230E+04
      9.519  0.2739E+03  0.2242E+04
      9.565  0.2773E+03  0.2255E+04
      9.612  0.2761E+03  0.2268E+04
      9.659  0.2706E+03  0.2281E+04
      9.705  0.2602E+03  0.2293E+04
      9.752  0.2427E+03  0.2304E+04
      9.799  0.2235E+03  0.2315E+04
      9.845  0.2199E+03  0.2325E+04
      9.892  0.2379E+03  0.2336E+04
      9.938  0.2658E+03  0.2348E+04
      9.985  0.2969E+03  0.2362E+04
     10.032  0.3289E+03  0.2377E+04
     10.078  0.3496E+03  0.2394E+04
     10.125  0.3454E+03  0.2410E+04
     10.171  0.3226E+03  0.2425E+04
     10.218  0.3103E+03  0.2439E+04
     10.265  0.3314E+03  0.2455E+04
     10.311  0.3913E+03  0.2473E+04
     10.358  0.4705E+03  0.2495E+04
     10.404  0.5197E+03  0.2519E+04
     10.451  0.5068E+03  0.2543E+04
     10.498  0.4463E+03  0.2564E+04
     10.544  0.3696E+03  0.2581E+04
     10.591  0.2985E+03  0.2595E+04
     10.638  0.2459E+03  0.2606E+04
     10.684  0.2109E+03  0.2616E+04
     10.731  0.1789E+03  0.2624E+04
     10.777  0.1393E+03  0.2631E+04
     10.824  0.9468E+02  0.2635E+04
     10.871  0.5449E+02  0.2638E+04
     10.917  0.2585E+02  0.2639E+04
     10.964  0.9498E+01  0.2640E+04
     11.010  0.2657E+01  0.2640E+04
     11.057  0.1409E+01  0.2640E+04
     11.104  0.1822E+01  0.2640E+04
     11.150  0.1540E+01  0.2640E+04
     11.197  0.5986E+00  0.2640E+04
     11.243 -0.1622E-01  0.2640E+04
     11.290 -0.1097E+00  0.2640E+04
     11.337 -0.4532E-01  0.2640E+04
     11.383 -0.9504E-02  0.2640E+04
     11.430 -0.3429E-02  0.2640E+04
     11.477 -0.1408E-01  0.2640E+04
     11.523 -0.4367E-01  0.2640E+04
     11.570 -0.3124E-01  0.2640E+04
     11.616  0.2193E+00  0.2640E+04
     11.663  0.7386E+00  0.2640E+04
     11.710  0.1024E+01  0.2640E+04
     11.756  0.6979E+00  0.2640E+04
     11.803  0.1874E+00  0.2640E+04
     11.849 -0.3776E-01  0.2640E+04
     11.896 -0.4122E-01  0.2640E+04
     11.943 -0.1244E-01  0.2640E+04
     11.989 -0.1976E-02  0.2640E+04
     12.036 -0.1848E-03  0.2640E+04
     12.082 -0.1060E-04  0.2640E+04
     12.129 -0.3809E-06  0.2640E+04
     12.176 -0.8658E-08  0.2640E+04
     12.222 -0.1254E-09  0.2640E+04
     12.269 -0.1161E-11  0.2640E+04
     12.316 -0.7146E-14  0.2640E+04
     12.362  0.0000E+00  0.2640E+04
     12.409  0.0000E+00  0.2640E+04
     12.455  0.0000E+00  0.2640E+04
     12.502  0.0000E+00  0.2640E+04
     12.549  0.0000E+00  0.2640E+04
     12.595  0.0000E+00  0.2640E+04
     12.642  0.0000E+00  0.2640E+04
     12.688  0.0000E+00  0.2640E+04
