       N       E                     dE             d eps       ncg     rms          rms(c)
DAV:   1     0.112829729436E+05    0.11283E+05   -0.55466E+05 95400   0.810E+02
DAV:   2    -0.143943168516E+04   -0.12722E+05   -0.12145E+05 95820   0.337E+02
DAV:   3    -0.241093225365E+04   -0.97150E+03   -0.89361E+03135240   0.780E+01
DAV:   4    -0.248227308927E+04   -0.71341E+02   -0.68914E+02132160   0.209E+01
DAV:   5    -0.248511954631E+04   -0.28465E+01   -0.27906E+01140000   0.331E+00    0.779E+01
RMM:   6    -0.241643883757E+04    0.68681E+02   -0.68076E+02105902   0.245E+01    0.623E+01
RMM:   7    -0.236997190177E+04    0.46467E+02   -0.35219E+02 97782   0.172E+01    0.455E+01
RMM:   8    -0.233986202375E+04    0.30110E+02   -0.15692E+02 97687   0.114E+01    0.321E+01
RMM:   9    -0.231569861508E+04    0.24163E+02   -0.34460E+01 98785   0.531E+00    0.641E+00
RMM:  10    -0.231556044858E+04    0.13817E+00   -0.72753E+00137275   0.148E+00    0.401E+00
RMM:  11    -0.231535748093E+04    0.20297E+00   -0.13342E+00124110   0.694E-01    0.381E+00
RMM:  12    -0.231488762953E+04    0.46985E+00   -0.63401E-01110229   0.788E-01    0.195E+00
RMM:  13    -0.231478218703E+04    0.10544E+00   -0.25100E-01112964   0.432E-01    0.137E+00
RMM:  14    -0.231479322782E+04   -0.11041E-01   -0.16018E-01117969   0.275E-01    0.181E+00
RMM:  15    -0.231472846557E+04    0.64762E-01   -0.73661E-02117063   0.186E-01    0.936E-01
RMM:  16    -0.231471546704E+04    0.12999E-01   -0.24006E-02111666   0.124E-01    0.430E-01
RMM:  17    -0.231471353343E+04    0.19336E-02   -0.13125E-02121887   0.773E-02    0.233E-01
RMM:  18    -0.231471383054E+04   -0.29711E-03   -0.72377E-03131950   0.513E-02    0.211E-01
RMM:  19    -0.231471378251E+04    0.48027E-04   -0.24073E-03128851   0.299E-02    0.200E-01
RMM:  20    -0.231471321867E+04    0.56384E-03   -0.53761E-04112601   0.179E-02    0.127E-01
RMM:  21    -0.231471287668E+04    0.34199E-03   -0.79955E-04118786   0.207E-02    0.417E-02
RMM:  22    -0.231471284200E+04    0.34679E-04   -0.26750E-04135429   0.977E-03
   1 F= -.23147128E+04 E0= -.23147205E+04  d E =0.229454E-01
