 256 256   0   0
  0.1419206E+02  0.1537080E-08  0.1537218E-08  0.1537636E-08  0.5000000E-15
  1.000000000000000E-004
  CAR 
 Ir_Ru                                   
     12.68291522     -1.29519372  301      9.24213882      1.00000000
     -1.295  0.0000E+00  0.0000E+00
     -1.249  0.0000E+00  0.0000E+00
     -1.202  0.0000E+00  0.0000E+00
     -1.155  0.0000E+00  0.0000E+00
     -1.109 -0.2739E-28 -0.1276E-29
     -1.062 -0.4084E-25 -0.1904E-26
     -1.016 -0.3928E-22 -0.1832E-23
     -0.969 -0.2438E-19 -0.1138E-20
     -0.922 -0.9765E-17 -0.4561E-18
     -0.876 -0.2449E-14 -0.1145E-15
     -0.829 -0.4061E-12 -0.1904E-13
     -0.783 -0.4337E-10 -0.2040E-11
     -0.736 -0.2985E-08 -0.1411E-09
     -0.689 -0.1325E-06 -0.6313E-08
     -0.643 -0.3797E-05 -0.1832E-06
     -0.596 -0.7047E-04 -0.3467E-05
     -0.550 -0.8495E-03 -0.4305E-04
     -0.503 -0.6654E-02 -0.3531E-03
     -0.457 -0.3345E-01 -0.1912E-02
     -0.410 -0.1018E+00 -0.6657E-02
     -0.363 -0.1379E+00 -0.1308E-01
     -0.317  0.2219E+00 -0.2747E-02
     -0.270  0.1504E+01  0.6734E-01
     -0.224  0.3533E+01  0.2320E+00
     -0.177  0.5068E+01  0.4681E+00
     -0.130  0.5730E+01  0.7351E+00
     -0.084  0.7319E+01  0.1076E+01
     -0.037  0.1019E+02  0.1551E+01
      0.009  0.1103E+02  0.2065E+01
      0.056  0.9157E+01  0.2491E+01
      0.103  0.9373E+01  0.2928E+01
      0.149  0.1314E+02  0.3540E+01
      0.196  0.1591E+02  0.4281E+01
      0.242  0.1605E+02  0.5029E+01
      0.289  0.1672E+02  0.5808E+01
      0.336  0.1849E+02  0.6670E+01
      0.382  0.1835E+02  0.7525E+01
      0.429  0.1743E+02  0.8337E+01
      0.475  0.1979E+02  0.9259E+01
      0.522  0.2336E+02  0.1035E+02
      0.569  0.2406E+02  0.1147E+02
      0.615  0.2229E+02  0.1251E+02
      0.662  0.1875E+02  0.1338E+02
      0.708  0.1411E+02  0.1404E+02
      0.755  0.1115E+02  0.1456E+02
      0.802  0.1071E+02  0.1506E+02
      0.848  0.1114E+02  0.1558E+02
      0.895  0.1215E+02  0.1614E+02
      0.941  0.1462E+02  0.1682E+02
      0.988  0.1830E+02  0.1768E+02
      1.034  0.2283E+02  0.1874E+02
      1.081  0.2804E+02  0.2005E+02
      1.128  0.3125E+02  0.2150E+02
      1.174  0.2976E+02  0.2289E+02
      1.221  0.2592E+02  0.2410E+02
      1.267  0.2306E+02  0.2517E+02
      1.314  0.2097E+02  0.2615E+02
      1.361  0.2002E+02  0.2708E+02
      1.407  0.2161E+02  0.2809E+02
      1.454  0.2406E+02  0.2921E+02
      1.500  0.2564E+02  0.3040E+02
      1.547  0.2889E+02  0.3175E+02
      1.594  0.3501E+02  0.3338E+02
      1.640  0.3873E+02  0.3519E+02
      1.687  0.3788E+02  0.3695E+02
      1.733  0.3921E+02  0.3878E+02
      1.780  0.4543E+02  0.4089E+02
      1.827  0.4933E+02  0.4319E+02
      1.873  0.4786E+02  0.4542E+02
      1.920  0.4728E+02  0.4763E+02
      1.966  0.5084E+02  0.4999E+02
      2.013  0.5406E+02  0.5251E+02
      2.060  0.5541E+02  0.5509E+02
      2.106  0.6119E+02  0.5795E+02
      2.153  0.7431E+02  0.6141E+02
      2.199  0.8919E+02  0.6556E+02
      2.246  0.1029E+03  0.7036E+02
      2.293  0.1176E+03  0.7584E+02
      2.339  0.1309E+03  0.8194E+02
      2.386  0.1382E+03  0.8838E+02
      2.432  0.1431E+03  0.9504E+02
      2.479  0.1521E+03  0.1021E+03
      2.525  0.1609E+03  0.1096E+03
      2.572  0.1617E+03  0.1172E+03
      2.619  0.1613E+03  0.1247E+03
      2.665  0.1688E+03  0.1325E+03
      2.712  0.1784E+03  0.1409E+03
      2.758  0.1847E+03  0.1495E+03
      2.805  0.1975E+03  0.1587E+03
      2.852  0.2225E+03  0.1690E+03
      2.898  0.2474E+03  0.1806E+03
      2.945  0.2564E+03  0.1925E+03
      2.991  0.2500E+03  0.2041E+03
      3.038  0.2467E+03  0.2156E+03
      3.085  0.2617E+03  0.2278E+03
      3.131  0.2861E+03  0.2412E+03
      3.178  0.3010E+03  0.2552E+03
      3.224  0.3037E+03  0.2693E+03
      3.271  0.3048E+03  0.2835E+03
      3.318  0.3083E+03  0.2979E+03
      3.364  0.3110E+03  0.3124E+03
      3.411  0.3142E+03  0.3270E+03
      3.457  0.3213E+03  0.3420E+03
      3.504  0.3330E+03  0.3575E+03
      3.551  0.3439E+03  0.3736E+03
      3.597  0.3469E+03  0.3897E+03
      3.644  0.3449E+03  0.4058E+03
      3.690  0.3485E+03  0.4220E+03
      3.737  0.3574E+03  0.4387E+03
      3.784  0.3593E+03  0.4554E+03
      3.830  0.3523E+03  0.4718E+03
      3.877  0.3477E+03  0.4880E+03
      3.923  0.3496E+03  0.5043E+03
      3.970  0.3507E+03  0.5207E+03
      4.016  0.3418E+03  0.5366E+03
      4.063  0.3232E+03  0.5517E+03
      4.110  0.3069E+03  0.5660E+03
      4.156  0.2977E+03  0.5798E+03
      4.203  0.2877E+03  0.5932E+03
      4.249  0.2716E+03  0.6059E+03
      4.296  0.2540E+03  0.6177E+03
      4.343  0.2429E+03  0.6290E+03
      4.389  0.2450E+03  0.6405E+03
      4.436  0.2574E+03  0.6525E+03
      4.482  0.2619E+03  0.6647E+03
      4.529  0.2510E+03  0.6764E+03
      4.576  0.2475E+03  0.6879E+03
      4.622  0.2665E+03  0.7003E+03
      4.669  0.2914E+03  0.7139E+03
      4.715  0.3065E+03  0.7282E+03
      4.762  0.3135E+03  0.7428E+03
      4.809  0.3136E+03  0.7574E+03
      4.855  0.3052E+03  0.7716E+03
      4.902  0.2905E+03  0.7851E+03
      4.948  0.2786E+03  0.7981E+03
      4.995  0.2809E+03  0.8112E+03
      5.042  0.2947E+03  0.8249E+03
      5.088  0.3074E+03  0.8393E+03
      5.135  0.3092E+03  0.8537E+03
      5.181  0.2981E+03  0.8676E+03
      5.228  0.2860E+03  0.8809E+03
      5.275  0.2844E+03  0.8941E+03
      5.321  0.2901E+03  0.9076E+03
      5.368  0.2971E+03  0.9215E+03
      5.414  0.3018E+03  0.9355E+03
      5.461  0.2989E+03  0.9495E+03
      5.507  0.2891E+03  0.9629E+03
      5.554  0.2867E+03  0.9763E+03
      5.601  0.3022E+03  0.9904E+03
      5.647  0.3212E+03  0.1005E+04
      5.694  0.3253E+03  0.1021E+04
      5.740  0.3203E+03  0.1035E+04
      5.787  0.3199E+03  0.1050E+04
      5.834  0.3261E+03  0.1066E+04
      5.880  0.3364E+03  0.1081E+04
      5.927  0.3497E+03  0.1097E+04
      5.973  0.3649E+03  0.1114E+04
      6.020  0.3787E+03  0.1132E+04
      6.067  0.3854E+03  0.1150E+04
      6.113  0.3874E+03  0.1168E+04
      6.160  0.3915E+03  0.1186E+04
      6.206  0.3985E+03  0.1205E+04
      6.253  0.4093E+03  0.1224E+04
      6.300  0.4268E+03  0.1244E+04
      6.346  0.4461E+03  0.1265E+04
      6.393  0.4571E+03  0.1286E+04
      6.439  0.4571E+03  0.1307E+04
      6.486  0.4532E+03  0.1328E+04
      6.533  0.4503E+03  0.1349E+04
      6.579  0.4459E+03  0.1370E+04
      6.626  0.4393E+03  0.1391E+04
      6.672  0.4318E+03  0.1411E+04
      6.719  0.4248E+03  0.1431E+04
      6.766  0.4172E+03  0.1450E+04
      6.812  0.4022E+03  0.1469E+04
      6.859  0.3775E+03  0.1486E+04
      6.905  0.3548E+03  0.1503E+04
      6.952  0.3443E+03  0.1519E+04
      6.998  0.3394E+03  0.1535E+04
      7.045  0.3281E+03  0.1550E+04
      7.092  0.3150E+03  0.1565E+04
      7.138  0.3133E+03  0.1579E+04
      7.185  0.3193E+03  0.1594E+04
      7.231  0.3139E+03  0.1609E+04
      7.278  0.2885E+03  0.1622E+04
      7.325  0.2568E+03  0.1634E+04
      7.371  0.2403E+03  0.1645E+04
      7.418  0.2481E+03  0.1657E+04
      7.464  0.2705E+03  0.1670E+04
      7.511  0.2845E+03  0.1683E+04
      7.558  0.2770E+03  0.1696E+04
      7.604  0.2590E+03  0.1708E+04
      7.651  0.2484E+03  0.1719E+04
      7.697  0.2565E+03  0.1731E+04
      7.744  0.2819E+03  0.1744E+04
      7.791  0.3049E+03  0.1759E+04
      7.837  0.3120E+03  0.1773E+04
      7.884  0.3090E+03  0.1788E+04
      7.930  0.3033E+03  0.1802E+04
      7.977  0.2963E+03  0.1816E+04
      8.024  0.2911E+03  0.1829E+04
      8.070  0.2954E+03  0.1843E+04
      8.117  0.3088E+03  0.1857E+04
      8.163  0.3169E+03  0.1872E+04
      8.210  0.3175E+03  0.1887E+04
      8.257  0.3290E+03  0.1902E+04
      8.303  0.3529E+03  0.1919E+04
      8.350  0.3626E+03  0.1935E+04
      8.396  0.3412E+03  0.1951E+04
      8.443  0.3016E+03  0.1965E+04
      8.489  0.2679E+03  0.1978E+04
      8.536  0.2556E+03  0.1990E+04
      8.583  0.2699E+03  0.2002E+04
      8.629  0.2948E+03  0.2016E+04
      8.676  0.3006E+03  0.2030E+04
      8.722  0.2849E+03  0.2043E+04
      8.769  0.2681E+03  0.2056E+04
      8.816  0.2572E+03  0.2068E+04
      8.862  0.2492E+03  0.2079E+04
      8.909  0.2451E+03  0.2091E+04
      8.955  0.2452E+03  0.2102E+04
      9.002  0.2529E+03  0.2114E+04
      9.049  0.2726E+03  0.2127E+04
      9.095  0.2841E+03  0.2140E+04
      9.142  0.2671E+03  0.2152E+04
      9.188  0.2416E+03  0.2164E+04
      9.235  0.2286E+03  0.2174E+04
      9.282  0.2203E+03  0.2185E+04
      9.328  0.2139E+03  0.2195E+04
      9.375  0.2212E+03  0.2205E+04
      9.421  0.2415E+03  0.2216E+04
      9.468  0.2616E+03  0.2228E+04
      9.515  0.2733E+03  0.2241E+04
      9.561  0.2772E+03  0.2254E+04
      9.608  0.2763E+03  0.2267E+04
      9.654  0.2713E+03  0.2280E+04
      9.701  0.2616E+03  0.2292E+04
      9.748  0.2447E+03  0.2303E+04
      9.794  0.2249E+03  0.2314E+04
      9.841  0.2192E+03  0.2324E+04
      9.887  0.2355E+03  0.2335E+04
      9.934  0.2629E+03  0.2347E+04
      9.980  0.2938E+03  0.2361E+04
     10.027  0.3261E+03  0.2376E+04
     10.074  0.3487E+03  0.2392E+04
     10.120  0.3471E+03  0.2408E+04
     10.167  0.3250E+03  0.2423E+04
     10.213  0.3102E+03  0.2438E+04
     10.260  0.3275E+03  0.2453E+04
     10.307  0.3840E+03  0.2471E+04
     10.353  0.4633E+03  0.2493E+04
     10.400  0.5177E+03  0.2517E+04
     10.446  0.5108E+03  0.2541E+04
     10.493  0.4535E+03  0.2562E+04
     10.540  0.3773E+03  0.2579E+04
     10.586  0.3050E+03  0.2594E+04
     10.633  0.2502E+03  0.2605E+04
     10.679  0.2138E+03  0.2615E+04
     10.726  0.1823E+03  0.2624E+04
     10.773  0.1438E+03  0.2630E+04
     10.819  0.9902E+02  0.2635E+04
     10.866  0.5758E+02  0.2638E+04
     10.912  0.2780E+02  0.2639E+04
     10.959  0.1075E+02  0.2639E+04
     11.006  0.3297E+01  0.2640E+04
     11.052  0.1692E+01  0.2640E+04
     11.099  0.2079E+01  0.2640E+04
     11.145  0.1816E+01  0.2640E+04
     11.192  0.7632E+00  0.2640E+04
     11.239  0.1643E-01  0.2640E+04
     11.285 -0.1252E+00  0.2640E+04
     11.332 -0.5641E-01  0.2640E+04
     11.378 -0.1242E-01  0.2640E+04
     11.425 -0.3609E-02  0.2640E+04
     11.471 -0.1306E-01  0.2640E+04
     11.518 -0.4222E-01  0.2640E+04
     11.565 -0.3626E-01  0.2640E+04
     11.611  0.1978E+00  0.2640E+04
     11.658  0.7134E+00  0.2640E+04
     11.704  0.1026E+01  0.2640E+04
     11.751  0.7251E+00  0.2640E+04
     11.798  0.2069E+00  0.2640E+04
     11.844 -0.3441E-01  0.2640E+04
     11.891 -0.4293E-01  0.2640E+04
     11.937 -0.1339E-01  0.2640E+04
     11.984 -0.2177E-02  0.2640E+04
     12.031 -0.2076E-03  0.2640E+04
     12.077 -0.1212E-04  0.2640E+04
     12.124 -0.4425E-06  0.2640E+04
     12.170 -0.1021E-07  0.2640E+04
     12.217 -0.1499E-09  0.2640E+04
     12.264 -0.1407E-11  0.2640E+04
     12.310 -0.8638E-14  0.2640E+04
     12.357  0.0000E+00  0.2640E+04
     12.403  0.0000E+00  0.2640E+04
     12.450  0.0000E+00  0.2640E+04
     12.497  0.0000E+00  0.2640E+04
     12.543  0.0000E+00  0.2640E+04
     12.590  0.0000E+00  0.2640E+04
     12.636  0.0000E+00  0.2640E+04
     12.683  0.0000E+00  0.2640E+04
