 256 256   0   0
  0.1418917E+02  0.1588033E-08  0.1692661E-08  0.1693229E-08  0.5000000E-15
  1.000000000000000E-004
  CAR 
 Ir_Ru                                   
     14.27927423     -1.29187638  301      9.45696963      1.00000000
     -1.292  0.0000E+00  0.0000E+00
     -1.240  0.0000E+00  0.0000E+00
     -1.188  0.0000E+00  0.0000E+00
     -1.136 -0.2811E-30 -0.1459E-31
     -1.084 -0.1290E-26 -0.6697E-28
     -1.032 -0.3439E-23 -0.1786E-24
     -0.980 -0.5324E-20 -0.2765E-21
     -0.929 -0.4780E-17 -0.2484E-18
     -0.877 -0.2428E-14 -0.1263E-15
     -0.825 -0.7233E-12 -0.3767E-13
     -0.773 -0.1249E-09 -0.6521E-11
     -0.721 -0.1241E-07 -0.6505E-09
     -0.669 -0.7058E-06 -0.3728E-07
     -0.617 -0.2287E-04 -0.1224E-05
     -0.565 -0.4190E-03 -0.2297E-04
     -0.513 -0.4298E-02 -0.2461E-03
     -0.461 -0.2443E-01 -0.1514E-02
     -0.410 -0.7542E-01 -0.5429E-02
     -0.358 -0.1017E+00 -0.1071E-01
     -0.306  0.2091E+00  0.1464E-03
     -0.254  0.1651E+01  0.8582E-01
     -0.202  0.4413E+01  0.3149E+00
     -0.150  0.6359E+01  0.6449E+00
     -0.098  0.6422E+01  0.9782E+00
     -0.046  0.6970E+01  0.1340E+01
      0.006  0.8872E+01  0.1801E+01
      0.058  0.1120E+02  0.2382E+01
      0.110  0.1362E+02  0.3089E+01
      0.161  0.1434E+02  0.3833E+01
      0.213  0.1168E+02  0.4439E+01
      0.265  0.1007E+02  0.4962E+01
      0.317  0.1431E+02  0.5705E+01
      0.369  0.2037E+02  0.6762E+01
      0.421  0.2253E+02  0.7931E+01
      0.473  0.2272E+02  0.9111E+01
      0.525  0.2352E+02  0.1033E+02
      0.577  0.2250E+02  0.1150E+02
      0.629  0.2043E+02  0.1256E+02
      0.680  0.2102E+02  0.1365E+02
      0.732  0.2035E+02  0.1471E+02
      0.784  0.1452E+02  0.1546E+02
      0.836  0.8831E+01  0.1592E+02
      0.888  0.8036E+01  0.1634E+02
      0.940  0.1176E+02  0.1695E+02
      0.992  0.1902E+02  0.1793E+02
      1.044  0.2796E+02  0.1938E+02
      1.096  0.3337E+02  0.2112E+02
      1.148  0.3303E+02  0.2283E+02
      1.200  0.2876E+02  0.2432E+02
      1.251  0.2278E+02  0.2551E+02
      1.303  0.1947E+02  0.2652E+02
      1.355  0.2172E+02  0.2764E+02
      1.407  0.2722E+02  0.2906E+02
      1.459  0.3036E+02  0.3063E+02
      1.511  0.2982E+02  0.3218E+02
      1.563  0.2934E+02  0.3370E+02
      1.615  0.3041E+02  0.3528E+02
      1.667  0.3111E+02  0.3690E+02
      1.719  0.3205E+02  0.3856E+02
      1.770  0.3505E+02  0.4038E+02
      1.822  0.3912E+02  0.4241E+02
      1.874  0.4555E+02  0.4477E+02
      1.926  0.5475E+02  0.4762E+02
      1.978  0.5936E+02  0.5070E+02
      2.030  0.5469E+02  0.5354E+02
      2.082  0.5051E+02  0.5616E+02
      2.134  0.6177E+02  0.5936E+02
      2.186  0.8713E+02  0.6389E+02
      2.238  0.1089E+03  0.6954E+02
      2.289  0.1199E+03  0.7576E+02
      2.341  0.1259E+03  0.8230E+02
      2.393  0.1316E+03  0.8913E+02
      2.445  0.1376E+03  0.9627E+02
      2.497  0.1473E+03  0.1039E+03
      2.549  0.1646E+03  0.1125E+03
      2.601  0.1830E+03  0.1220E+03
      2.653  0.1949E+03  0.1321E+03
      2.705  0.2068E+03  0.1428E+03
      2.757  0.2239E+03  0.1544E+03
      2.809  0.2308E+03  0.1664E+03
      2.860  0.2245E+03  0.1781E+03
      2.912  0.2278E+03  0.1899E+03
      2.964  0.2455E+03  0.2026E+03
      3.016  0.2582E+03  0.2160E+03
      3.068  0.2601E+03  0.2295E+03
      3.120  0.2606E+03  0.2430E+03
      3.172  0.2641E+03  0.2568E+03
      3.224  0.2732E+03  0.2709E+03
      3.276  0.2884E+03  0.2859E+03
      3.328  0.3077E+03  0.3019E+03
      3.379  0.3246E+03  0.3187E+03
      3.431  0.3307E+03  0.3359E+03
      3.483  0.3276E+03  0.3529E+03
      3.535  0.3211E+03  0.3696E+03
      3.587  0.3180E+03  0.3861E+03
      3.639  0.3164E+03  0.4025E+03
      3.691  0.3109E+03  0.4186E+03
      3.743  0.3051E+03  0.4345E+03
      3.795  0.3011E+03  0.4501E+03
      3.847  0.2967E+03  0.4655E+03
      3.899  0.2933E+03  0.4807E+03
      3.950  0.2885E+03  0.4957E+03
      4.002  0.2759E+03  0.5100E+03
      4.054  0.2665E+03  0.5238E+03
      4.106  0.2760E+03  0.5382E+03
      4.158  0.2944E+03  0.5534E+03
      4.210  0.3027E+03  0.5692E+03
      4.262  0.3051E+03  0.5850E+03
      4.314  0.3122E+03  0.6012E+03
      4.366  0.3187E+03  0.6177E+03
      4.418  0.3214E+03  0.6344E+03
      4.469  0.3237E+03  0.6512E+03
      4.521  0.3208E+03  0.6679E+03
      4.573  0.3093E+03  0.6839E+03
      4.625  0.2971E+03  0.6994E+03
      4.677  0.2935E+03  0.7146E+03
      4.729  0.2983E+03  0.7301E+03
      4.781  0.3061E+03  0.7460E+03
      4.833  0.3182E+03  0.7625E+03
      4.885  0.3317E+03  0.7797E+03
      4.937  0.3378E+03  0.7972E+03
      4.988  0.3453E+03  0.8151E+03
      5.040  0.3586E+03  0.8338E+03
      5.092  0.3658E+03  0.8527E+03
      5.144  0.3642E+03  0.8716E+03
      5.196  0.3547E+03  0.8901E+03
      5.248  0.3339E+03  0.9074E+03
      5.300  0.3014E+03  0.9230E+03
      5.352  0.2601E+03  0.9365E+03
      5.404  0.2170E+03  0.9478E+03
      5.456  0.1835E+03  0.9573E+03
      5.508  0.1725E+03  0.9663E+03
      5.559  0.1901E+03  0.9761E+03
      5.611  0.2288E+03  0.9880E+03
      5.663  0.2773E+03  0.1002E+04
      5.715  0.3273E+03  0.1019E+04
      5.767  0.3689E+03  0.1039E+04
      5.819  0.3960E+03  0.1059E+04
      5.871  0.4109E+03  0.1080E+04
      5.923  0.4195E+03  0.1102E+04
      5.975  0.4260E+03  0.1124E+04
      6.027  0.4280E+03  0.1147E+04
      6.078  0.4154E+03  0.1168E+04
      6.130  0.3910E+03  0.1188E+04
      6.182  0.3714E+03  0.1208E+04
      6.234  0.3610E+03  0.1226E+04
      6.286  0.3553E+03  0.1245E+04
      6.338  0.3566E+03  0.1263E+04
      6.390  0.3697E+03  0.1283E+04
      6.442  0.3822E+03  0.1302E+04
      6.494  0.3844E+03  0.1322E+04
      6.546  0.3920E+03  0.1343E+04
      6.598  0.4103E+03  0.1364E+04
      6.649  0.4241E+03  0.1386E+04
      6.701  0.4281E+03  0.1408E+04
      6.753  0.4250E+03  0.1430E+04
      6.805  0.4126E+03  0.1452E+04
      6.857  0.3913E+03  0.1472E+04
      6.909  0.3731E+03  0.1491E+04
      6.961  0.3665E+03  0.1510E+04
      7.013  0.3637E+03  0.1529E+04
      7.065  0.3685E+03  0.1548E+04
      7.117  0.3922E+03  0.1569E+04
      7.168  0.4154E+03  0.1590E+04
      7.220  0.4225E+03  0.1612E+04
      7.272  0.4224E+03  0.1634E+04
      7.324  0.4127E+03  0.1656E+04
      7.376  0.3866E+03  0.1676E+04
      7.428  0.3578E+03  0.1694E+04
      7.480  0.3398E+03  0.1712E+04
      7.532  0.3326E+03  0.1729E+04
      7.584  0.3286E+03  0.1746E+04
      7.636  0.3165E+03  0.1763E+04
      7.687  0.2948E+03  0.1778E+04
      7.739  0.2769E+03  0.1792E+04
      7.791  0.2684E+03  0.1806E+04
      7.843  0.2633E+03  0.1820E+04
      7.895  0.2572E+03  0.1833E+04
      7.947  0.2482E+03  0.1846E+04
      7.999  0.2429E+03  0.1859E+04
      8.051  0.2432E+03  0.1871E+04
      8.103  0.2388E+03  0.1884E+04
      8.155  0.2311E+03  0.1896E+04
      8.207  0.2292E+03  0.1908E+04
      8.258  0.2337E+03  0.1920E+04
      8.310  0.2378E+03  0.1932E+04
      8.362  0.2390E+03  0.1944E+04
      8.414  0.2367E+03  0.1957E+04
      8.466  0.2283E+03  0.1969E+04
      8.518  0.2181E+03  0.1980E+04
      8.570  0.2118E+03  0.1991E+04
      8.622  0.2068E+03  0.2002E+04
      8.674  0.1996E+03  0.2012E+04
      8.726  0.1912E+03  0.2022E+04
      8.777  0.1829E+03  0.2031E+04
      8.829  0.1795E+03  0.2041E+04
      8.881  0.1889E+03  0.2051E+04
      8.933  0.2142E+03  0.2062E+04
      8.985  0.2360E+03  0.2074E+04
      9.037  0.2361E+03  0.2086E+04
      9.089  0.2229E+03  0.2098E+04
      9.141  0.2056E+03  0.2108E+04
      9.193  0.1862E+03  0.2118E+04
      9.245  0.1791E+03  0.2127E+04
      9.297  0.1988E+03  0.2138E+04
      9.348  0.2295E+03  0.2150E+04
      9.400  0.2431E+03  0.2162E+04
      9.452  0.2429E+03  0.2175E+04
      9.504  0.2450E+03  0.2188E+04
      9.556  0.2442E+03  0.2200E+04
      9.608  0.2469E+03  0.2213E+04
      9.660  0.2765E+03  0.2227E+04
      9.712  0.3191E+03  0.2244E+04
      9.764  0.3354E+03  0.2261E+04
      9.816  0.3256E+03  0.2278E+04
      9.867  0.3163E+03  0.2295E+04
      9.919  0.3155E+03  0.2311E+04
      9.971  0.3225E+03  0.2328E+04
     10.023  0.3447E+03  0.2346E+04
     10.075  0.3818E+03  0.2366E+04
     10.127  0.4140E+03  0.2387E+04
     10.179  0.4288E+03  0.2409E+04
     10.231  0.4367E+03  0.2432E+04
     10.283  0.4497E+03  0.2455E+04
     10.335  0.4684E+03  0.2480E+04
     10.386  0.4870E+03  0.2505E+04
     10.438  0.4975E+03  0.2531E+04
     10.490  0.4888E+03  0.2556E+04
     10.542  0.4496E+03  0.2579E+04
     10.594  0.3882E+03  0.2600E+04
     10.646  0.3187E+03  0.2616E+04
     10.698  0.2340E+03  0.2628E+04
     10.750  0.1328E+03  0.2635E+04
     10.802  0.4557E+02  0.2637E+04
     10.854  0.1943E+01  0.2638E+04
     10.906 -0.5670E+01  0.2637E+04
     10.957 -0.2528E+01  0.2637E+04
     11.009 -0.5354E+00  0.2637E+04
     11.061 -0.6760E-01  0.2637E+04
     11.113 -0.5633E-02  0.2637E+04
     11.165 -0.3217E-03  0.2637E+04
     11.217 -0.1224E-04  0.2637E+04
     11.269 -0.2933E-06  0.2637E+04
     11.321 -0.4242E-08  0.2637E+04
     11.373 -0.3616E-10  0.2637E+04
     11.425 -0.2008E-12  0.2637E+04
     11.476 -0.6194E-11  0.2637E+04
     11.528 -0.1001E-08  0.2637E+04
     11.580 -0.9316E-07  0.2637E+04
     11.632 -0.4964E-05  0.2637E+04
     11.684 -0.1499E-03  0.2637E+04
     11.736 -0.2516E-02  0.2637E+04
     11.788 -0.2255E-01  0.2637E+04
     11.840 -0.9624E-01  0.2637E+04
     11.892 -0.1003E+00  0.2637E+04
     11.944  0.5661E+00  0.2637E+04
     11.996  0.2035E+01  0.2637E+04
     12.047  0.2744E+01  0.2637E+04
     12.099  0.1986E+01  0.2637E+04
     12.151  0.1151E+01  0.2638E+04
     12.203  0.9105E+00  0.2638E+04
     12.255  0.1300E+01  0.2638E+04
     12.307  0.2594E+01  0.2638E+04
     12.359  0.3602E+01  0.2638E+04
     12.411  0.2999E+01  0.2638E+04
     12.463  0.2198E+01  0.2638E+04
     12.515  0.2278E+01  0.2638E+04
     12.566  0.2673E+01  0.2639E+04
     12.618  0.2978E+01  0.2639E+04
     12.670  0.3539E+01  0.2639E+04
     12.722  0.4067E+01  0.2639E+04
     12.774  0.3268E+01  0.2639E+04
     12.826  0.2035E+01  0.2639E+04
     12.878  0.2062E+01  0.2639E+04
     12.930  0.2383E+01  0.2640E+04
     12.982  0.1879E+01  0.2640E+04
     13.034  0.1216E+01  0.2640E+04
     13.085  0.8602E+00  0.2640E+04
     13.137  0.7632E+00  0.2640E+04
     13.189  0.9310E+00  0.2640E+04
     13.241  0.1080E+01  0.2640E+04
     13.293  0.1038E+01  0.2640E+04
     13.345  0.6618E+00  0.2640E+04
     13.397  0.1647E+00  0.2640E+04
     13.449 -0.4133E-01  0.2640E+04
     13.501 -0.3273E-01  0.2640E+04
     13.553 -0.7276E-02  0.2640E+04
     13.605 -0.7761E-03  0.2640E+04
     13.656 -0.4407E-04  0.2640E+04
     13.708 -0.1385E-05  0.2640E+04
     13.760 -0.2458E-07  0.2640E+04
     13.812 -0.2486E-09  0.2640E+04
     13.864 -0.1443E-11  0.2640E+04
     13.916 -0.4753E-14  0.2640E+04
     13.968  0.0000E+00  0.2640E+04
     14.020  0.0000E+00  0.2640E+04
     14.072  0.0000E+00  0.2640E+04
     14.124  0.0000E+00  0.2640E+04
     14.175  0.0000E+00  0.2640E+04
     14.227  0.0000E+00  0.2640E+04
     14.279  0.0000E+00  0.2640E+04
