  32  32   0   0
  0.1419579E+02  0.5483545E-09  0.8706755E-09  0.1097971E-08  0.5000000E-15
  1.000000000000000E-004
  CAR 
 Ir_Ru                                   
     20.66236397     -1.30280146  301      9.46125901      1.00000000
     -1.303  0.0000E+00  0.0000E+00
     -1.230  0.0000E+00  0.0000E+00
     -1.156  0.0000E+00  0.0000E+00
     -1.083  0.0000E+00  0.0000E+00
     -1.010  0.0000E+00  0.0000E+00
     -0.937  0.0000E+00  0.0000E+00
     -0.863  0.0000E+00  0.0000E+00
     -0.790  0.0000E+00  0.0000E+00
     -0.717  0.0000E+00  0.0000E+00
     -0.644  0.0000E+00  0.0000E+00
     -0.571  0.0000E+00  0.0000E+00
     -0.497  0.0000E+00  0.0000E+00
     -0.424  0.0000E+00  0.0000E+00
     -0.351  0.0000E+00  0.0000E+00
     -0.278  0.4215E-01  0.3518E-03
     -0.205  0.4801E+00  0.1856E-01
     -0.131  0.8535E+00  0.6825E-01
     -0.058  0.1033E+01  0.1373E+00
      0.015  0.1285E+01  0.2219E+00
      0.088  0.1603E+01  0.3269E+00
      0.162  0.1970E+01  0.4614E+00
      0.235  0.1907E+01  0.6054E+00
      0.308  0.1771E+01  0.7387E+00
      0.381  0.1782E+01  0.8670E+00
      0.454  0.1959E+01  0.1006E+01
      0.528  0.1961E+01  0.1151E+01
      0.601  0.2201E+01  0.1301E+01
      0.674  0.2589E+01  0.1474E+01
      0.747  0.2967E+01  0.1677E+01
      0.820  0.3592E+01  0.1919E+01
      0.894  0.3269E+01  0.2165E+01
      0.967  0.3095E+01  0.2398E+01
      1.040  0.3068E+01  0.2623E+01
      1.113  0.2825E+01  0.2853E+01
      1.187  0.2305E+01  0.3037E+01
      1.260  0.2027E+01  0.3192E+01
      1.333  0.2383E+01  0.3363E+01
      1.406  0.2755E+01  0.3552E+01
      1.479  0.2918E+01  0.3765E+01
      1.553  0.3719E+01  0.3995E+01
      1.626  0.4070E+01  0.4279E+01
      1.699  0.3947E+01  0.4574E+01
      1.772  0.4178E+01  0.4862E+01
      1.846  0.5916E+01  0.5238E+01
      1.919  0.7992E+01  0.5740E+01
      1.992  0.8516E+01  0.6436E+01
      2.065  0.6666E+01  0.6985E+01
      2.138  0.8764E+01  0.7534E+01
      2.212  0.1123E+02  0.8285E+01
      2.285  0.1757E+02  0.9319E+01
      2.358  0.2154E+02  0.1075E+02
      2.431  0.1930E+02  0.1216E+02
      2.504  0.1904E+02  0.1354E+02
      2.578  0.1828E+02  0.1492E+02
      2.651  0.2266E+02  0.1632E+02
      2.724  0.2713E+02  0.1827E+02
      2.797  0.2985E+02  0.2032E+02
      2.871  0.2564E+02  0.2244E+02
      2.944  0.2853E+02  0.2444E+02
      3.017  0.2852E+02  0.2661E+02
      3.090  0.3517E+02  0.2882E+02
      3.163  0.3813E+02  0.3152E+02
      3.237  0.4294E+02  0.3439E+02
      3.310  0.3801E+02  0.3734E+02
      3.383  0.4001E+02  0.4021E+02
      3.456  0.4263E+02  0.4325E+02
      3.530  0.4136E+02  0.4630E+02
      3.603  0.3773E+02  0.4924E+02
      3.676  0.3702E+02  0.5204E+02
      3.749  0.3983E+02  0.5490E+02
      3.822  0.3750E+02  0.5766E+02
      3.896  0.3898E+02  0.6044E+02
      3.969  0.3670E+02  0.6318E+02
      4.042  0.3418E+02  0.6573E+02
      4.115  0.3092E+02  0.6823E+02
      4.188  0.3404E+02  0.7051E+02
      4.262  0.3294E+02  0.7296E+02
      4.335  0.3962E+02  0.7587E+02
      4.408  0.4499E+02  0.7888E+02
      4.481  0.4360E+02  0.8212E+02
      4.555  0.3788E+02  0.8500E+02
      4.628  0.3086E+02  0.8751E+02
      4.701  0.3918E+02  0.8995E+02
      4.774  0.4355E+02  0.9309E+02
      4.847  0.4688E+02  0.9643E+02
      4.921  0.4050E+02  0.9939E+02
      4.994  0.4242E+02  0.1024E+03
      5.067  0.4415E+02  0.1056E+03
      5.140  0.4530E+02  0.1089E+03
      5.214  0.4077E+02  0.1121E+03
      5.287  0.3428E+02  0.1149E+03
      5.360  0.3026E+02  0.1174E+03
      5.433  0.2793E+02  0.1194E+03
      5.506  0.2202E+02  0.1211E+03
      5.580  0.2316E+02  0.1228E+03
      5.653  0.3689E+02  0.1250E+03
      5.726  0.4793E+02  0.1281E+03
      5.799  0.5179E+02  0.1320E+03
      5.872  0.4907E+02  0.1356E+03
      5.946  0.5315E+02  0.1393E+03
      6.019  0.4923E+02  0.1431E+03
      6.092  0.4973E+02  0.1466E+03
      6.165  0.4421E+02  0.1503E+03
      6.239  0.4409E+02  0.1537E+03
      6.312  0.4601E+02  0.1569E+03
      6.385  0.4568E+02  0.1602E+03
      6.458  0.4592E+02  0.1635E+03
      6.531  0.5431E+02  0.1671E+03
      6.605  0.5216E+02  0.1711E+03
      6.678  0.5053E+02  0.1751E+03
      6.751  0.5265E+02  0.1788E+03
      6.824  0.5249E+02  0.1826E+03
      6.898  0.4624E+02  0.1863E+03
      6.971  0.4860E+02  0.1896E+03
      7.044  0.4486E+02  0.1930E+03
      7.117  0.4917E+02  0.1964E+03
      7.190  0.5172E+02  0.2002E+03
      7.264  0.5408E+02  0.2040E+03
      7.337  0.4955E+02  0.2078E+03
      7.410  0.4515E+02  0.2112E+03
      7.483  0.4484E+02  0.2146E+03
      7.556  0.3960E+02  0.2177E+03
      7.630  0.3101E+02  0.2202E+03
      7.703  0.3380E+02  0.2226E+03
      7.776  0.3317E+02  0.2251E+03
      7.849  0.3152E+02  0.2276E+03
      7.923  0.3090E+02  0.2299E+03
      7.996  0.3114E+02  0.2322E+03
      8.069  0.3265E+02  0.2345E+03
      8.142  0.3244E+02  0.2369E+03
      8.215  0.2865E+02  0.2391E+03
      8.289  0.3052E+02  0.2412E+03
      8.362  0.2915E+02  0.2433E+03
      8.435  0.3150E+02  0.2455E+03
      8.508  0.2686E+02  0.2477E+03
      8.582  0.2240E+02  0.2494E+03
      8.655  0.2225E+02  0.2510E+03
      8.728  0.2393E+02  0.2527E+03
      8.801  0.2804E+02  0.2547E+03
      8.874  0.2296E+02  0.2566E+03
      8.948  0.2527E+02  0.2584E+03
      9.021  0.2524E+02  0.2603E+03
      9.094  0.2566E+02  0.2622E+03
      9.167  0.2625E+02  0.2641E+03
      9.240  0.2693E+02  0.2660E+03
      9.314  0.2907E+02  0.2681E+03
      9.387  0.2575E+02  0.2701E+03
      9.460  0.2744E+02  0.2720E+03
      9.533  0.3429E+02  0.2742E+03
      9.607  0.3878E+02  0.2768E+03
      9.680  0.4093E+02  0.2798E+03
      9.753  0.3838E+02  0.2828E+03
      9.826  0.4074E+02  0.2856E+03
      9.899  0.4092E+02  0.2886E+03
      9.973  0.4105E+02  0.2915E+03
     10.046  0.4913E+02  0.2948E+03
     10.119  0.5101E+02  0.2985E+03
     10.192  0.5338E+02  0.3023E+03
     10.266  0.5584E+02  0.3064E+03
     10.339  0.5837E+02  0.3107E+03
     10.412  0.6527E+02  0.3152E+03
     10.485  0.6664E+02  0.3200E+03
     10.558  0.6667E+02  0.3250E+03
     10.632  0.5378E+02  0.3296E+03
     10.705  0.3781E+02  0.3329E+03
     10.778  0.3333E+02  0.3355E+03
     10.851  0.1362E+02  0.3371E+03
     10.924  0.1401E+02  0.3381E+03
     10.998  0.1121E+02  0.3391E+03
     11.071  0.9985E+01  0.3398E+03
     11.144  0.9810E+01  0.3405E+03
     11.217  0.8543E+01  0.3412E+03
     11.291  0.8929E+01  0.3418E+03
     11.364  0.8537E+01  0.3425E+03
     11.437  0.8852E+01  0.3431E+03
     11.510  0.9245E+01  0.3438E+03
     11.583  0.9456E+01  0.3445E+03
     11.657  0.9425E+01  0.3452E+03
     11.730  0.9329E+01  0.3459E+03
     11.803  0.8453E+01  0.3465E+03
     11.876  0.8564E+01  0.3472E+03
     11.950  0.8510E+01  0.3478E+03
     12.023  0.8306E+01  0.3484E+03
     12.096  0.8215E+01  0.3490E+03
     12.169  0.8840E+01  0.3496E+03
     12.242  0.8655E+01  0.3503E+03
     12.316  0.9085E+01  0.3509E+03
     12.389  0.9344E+01  0.3516E+03
     12.462  0.8574E+01  0.3522E+03
     12.535  0.8688E+01  0.3528E+03
     12.608  0.8203E+01  0.3535E+03
     12.682  0.8093E+01  0.3541E+03
     12.755  0.7612E+01  0.3546E+03
     12.828  0.7590E+01  0.3552E+03
     12.901  0.8672E+01  0.3558E+03
     12.975  0.8282E+01  0.3564E+03
     13.048  0.7876E+01  0.3570E+03
     13.121  0.7010E+01  0.3575E+03
     13.194  0.7445E+01  0.3581E+03
     13.267  0.6771E+01  0.3586E+03
     13.341  0.6935E+01  0.3591E+03
     13.414  0.7422E+01  0.3596E+03
     13.487  0.7835E+01  0.3602E+03
     13.560  0.7889E+01  0.3608E+03
     13.634  0.8035E+01  0.3614E+03
     13.707  0.7886E+01  0.3619E+03
     13.780  0.7850E+01  0.3625E+03
     13.853  0.7617E+01  0.3631E+03
     13.926  0.6771E+01  0.3636E+03
     14.000  0.6967E+01  0.3641E+03
     14.073  0.6961E+01  0.3646E+03
     14.146  0.7027E+01  0.3651E+03
     14.219  0.7662E+01  0.3657E+03
     14.292  0.7366E+01  0.3662E+03
     14.366  0.7106E+01  0.3667E+03
     14.439  0.7184E+01  0.3673E+03
     14.512  0.8099E+01  0.3678E+03
     14.585  0.6624E+01  0.3684E+03
     14.659  0.6279E+01  0.3688E+03
     14.732  0.6992E+01  0.3693E+03
     14.805  0.7275E+01  0.3698E+03
     14.878  0.7342E+01  0.3704E+03
     14.951  0.7699E+01  0.3709E+03
     15.025  0.8617E+01  0.3715E+03
     15.098  0.8563E+01  0.3722E+03
     15.171  0.8509E+01  0.3728E+03
     15.244  0.7919E+01  0.3734E+03
     15.318  0.7576E+01  0.3740E+03
     15.391  0.6665E+01  0.3745E+03
     15.464  0.5760E+01  0.3749E+03
     15.537  0.5471E+01  0.3753E+03
     15.610  0.5454E+01  0.3757E+03
     15.684  0.5412E+01  0.3761E+03
     15.757  0.5734E+01  0.3765E+03
     15.830  0.5887E+01  0.3770E+03
     15.903  0.5947E+01  0.3774E+03
     15.976  0.5722E+01  0.3778E+03
     16.050  0.5407E+01  0.3782E+03
     16.123  0.5276E+01  0.3786E+03
     16.196  0.5012E+01  0.3790E+03
     16.269  0.4896E+01  0.3794E+03
     16.343  0.4566E+01  0.3797E+03
     16.416  0.4626E+01  0.3801E+03
     16.489  0.4254E+01  0.3804E+03
     16.562  0.3411E+01  0.3807E+03
     16.635  0.3060E+01  0.3809E+03
     16.709  0.2932E+01  0.3811E+03
     16.782  0.2814E+01  0.3813E+03
     16.855  0.2760E+01  0.3815E+03
     16.928  0.2704E+01  0.3817E+03
     17.002  0.2694E+01  0.3819E+03
     17.075  0.2873E+01  0.3821E+03
     17.148  0.2741E+01  0.3823E+03
     17.221  0.2496E+01  0.3825E+03
     17.294  0.2148E+01  0.3827E+03
     17.368  0.1874E+01  0.3828E+03
     17.441  0.1992E+01  0.3830E+03
     17.514  0.1885E+01  0.3831E+03
     17.587  0.1587E+01  0.3833E+03
     17.660  0.1311E+01  0.3834E+03
     17.734  0.1178E+01  0.3835E+03
     17.807  0.9937E+00  0.3835E+03
     17.880  0.8079E+00  0.3836E+03
     17.953  0.6730E+00  0.3837E+03
     18.027  0.6288E+00  0.3837E+03
     18.100  0.6624E+00  0.3837E+03
     18.173  0.5952E+00  0.3838E+03
     18.246  0.5271E+00  0.3838E+03
     18.319  0.4781E+00  0.3839E+03
     18.393  0.3584E+00  0.3839E+03
     18.466  0.2632E+00  0.3839E+03
     18.539  0.1991E+00  0.3839E+03
     18.612  0.1510E+00  0.3840E+03
     18.685  0.1140E+00  0.3840E+03
     18.759  0.8248E-01  0.3840E+03
     18.832  0.6332E-01  0.3840E+03
     18.905  0.5723E-01  0.3840E+03
     18.978  0.5276E-01  0.3840E+03
     19.052  0.4753E-01  0.3840E+03
     19.125  0.4136E-01  0.3840E+03
     19.198  0.3423E-01  0.3840E+03
     19.271  0.2615E-01  0.3840E+03
     19.344  0.1712E-01  0.3840E+03
     19.418  0.9866E-02  0.3840E+03
     19.491  0.4845E-02  0.3840E+03
     19.564  0.1591E-02  0.3840E+03
     19.637  0.1033E-03  0.3840E+03
     19.711  0.0000E+00  0.3840E+03
     19.784  0.0000E+00  0.3840E+03
     19.857  0.0000E+00  0.3840E+03
     19.930  0.0000E+00  0.3840E+03
     20.003  0.0000E+00  0.3840E+03
     20.077  0.0000E+00  0.3840E+03
     20.150  0.0000E+00  0.3840E+03
     20.223  0.0000E+00  0.3840E+03
     20.296  0.0000E+00  0.3840E+03
     20.369  0.0000E+00  0.3840E+03
     20.443  0.0000E+00  0.3840E+03
     20.516  0.0000E+00  0.3840E+03
     20.589  0.0000E+00  0.3840E+03
     20.662  0.0000E+00  0.3840E+03
