<?xml version="1.0" encoding="ISO-8859-1"?>
<modeling>
 <generator>
  <i name="program" type="string">vasp </i>
  <i name="version" type="string">5.4.1  </i>
  <i name="subversion" type="string">24Jun15 (build Dec 12 2017 15:24:27) complex                          parallel </i>
  <i name="platform" type="string">IFC91_ompi </i>
  <i name="date" type="string">2020 04 03 </i>
  <i name="time" type="string">16:12:28 </i>
 </generator>
 <incar>
  <i type="string" name="SYSTEM"> Ir_Ru</i>
  <i type="int" name="ISTART">     0</i>
  <i type="string" name="PREC">accurate</i>
  <i type="string" name="ALGO"> Very_Fast</i>
  <i type="int" name="ICHARG">     2</i>
  <i type="int" name="NELMIN">     5</i>
  <i type="int" name="IBRION">    -1</i>
  <i name="EDIFFG">      0.00001000</i>
  <i type="int" name="ISIF">     2</i>
  <i type="int" name="ISMEAR">    -5</i>
  <i name="SIGMA">      0.10000000</i>
  <v type="int" name="KPOINT_BSE">    -1     0     0     0</v>
 </incar>
 <kpoints>
  <generation param="Gamma">
   <v type="int" name="divisions">       7        6        7 </v>
   <v name="usershift">      0.00000000       0.00000000       0.00000000 </v>
   <v name="genvec1">      0.14285714       0.00000000       0.00000000 </v>
   <v name="genvec2">      0.00000000       0.16666667       0.00000000 </v>
   <v name="genvec3">      0.00000000       0.00000000       0.14285714 </v>
   <v name="shift">      0.00000000       0.00000000       0.00000000 </v>
  </generation>
  <varray name="kpointlist" >
   <v>       0.00000000       0.00000000       0.00000000 </v>
   <v>       0.14285714       0.00000000      -0.00000000 </v>
   <v>       0.28571429       0.00000000       0.00000000 </v>
   <v>       0.42857143       0.00000000      -0.00000000 </v>
   <v>       0.00000000       0.16666667       0.00000000 </v>
   <v>       0.14285714       0.16666667      -0.00000000 </v>
   <v>       0.28571429       0.16666667       0.00000000 </v>
   <v>       0.42857143       0.16666667      -0.00000000 </v>
   <v>       0.00000000       0.33333333       0.00000000 </v>
   <v>       0.14285714       0.33333333      -0.00000000 </v>
   <v>       0.28571429       0.33333333       0.00000000 </v>
   <v>       0.42857143       0.33333333      -0.00000000 </v>
   <v>       0.00000000       0.50000000       0.00000000 </v>
   <v>       0.14285714       0.50000000      -0.00000000 </v>
   <v>       0.28571429       0.50000000       0.00000000 </v>
   <v>       0.42857143       0.50000000      -0.00000000 </v>
   <v>      -0.00000000       0.00000000       0.14285714 </v>
   <v>       0.14285714       0.00000000       0.14285714 </v>
   <v>       0.28571429       0.00000000       0.14285714 </v>
   <v>       0.42857143       0.00000000       0.14285714 </v>
   <v>      -0.42857143       0.00000000       0.14285714 </v>
   <v>      -0.28571429       0.00000000       0.14285714 </v>
   <v>      -0.14285714       0.00000000       0.14285714 </v>
   <v>      -0.00000000       0.16666667       0.14285714 </v>
   <v>       0.14285714       0.16666667       0.14285714 </v>
   <v>       0.28571429       0.16666667       0.14285714 </v>
   <v>       0.42857143       0.16666667       0.14285714 </v>
   <v>      -0.42857143       0.16666667       0.14285714 </v>
   <v>      -0.28571429       0.16666667       0.14285714 </v>
   <v>      -0.14285714       0.16666667       0.14285714 </v>
   <v>      -0.00000000       0.33333333       0.14285714 </v>
   <v>       0.14285714       0.33333333       0.14285714 </v>
   <v>       0.28571429       0.33333333       0.14285714 </v>
   <v>       0.42857143       0.33333333       0.14285714 </v>
   <v>      -0.42857143       0.33333333       0.14285714 </v>
   <v>      -0.28571429       0.33333333       0.14285714 </v>
   <v>      -0.14285714       0.33333333       0.14285714 </v>
   <v>      -0.00000000       0.50000000       0.14285714 </v>
   <v>       0.14285714       0.50000000       0.14285714 </v>
   <v>       0.28571429       0.50000000       0.14285714 </v>
   <v>       0.42857143       0.50000000       0.14285714 </v>
   <v>      -0.42857143       0.50000000       0.14285714 </v>
   <v>      -0.28571429       0.50000000       0.14285714 </v>
   <v>      -0.14285714       0.50000000       0.14285714 </v>
   <v>       0.00000000       0.00000000       0.28571429 </v>
   <v>       0.14285714       0.00000000       0.28571429 </v>
   <v>       0.28571429       0.00000000       0.28571429 </v>
   <v>       0.42857143       0.00000000       0.28571429 </v>
   <v>      -0.42857143       0.00000000       0.28571429 </v>
   <v>      -0.28571429       0.00000000       0.28571429 </v>
   <v>      -0.14285714       0.00000000       0.28571429 </v>
   <v>       0.00000000       0.16666667       0.28571429 </v>
   <v>       0.14285714       0.16666667       0.28571429 </v>
   <v>       0.28571429       0.16666667       0.28571429 </v>
   <v>       0.42857143       0.16666667       0.28571429 </v>
   <v>      -0.42857143       0.16666667       0.28571429 </v>
   <v>      -0.28571429       0.16666667       0.28571429 </v>
   <v>      -0.14285714       0.16666667       0.28571429 </v>
   <v>       0.00000000       0.33333333       0.28571429 </v>
   <v>       0.14285714       0.33333333       0.28571429 </v>
   <v>       0.28571429       0.33333333       0.28571429 </v>
   <v>       0.42857143       0.33333333       0.28571429 </v>
   <v>      -0.42857143       0.33333333       0.28571429 </v>
   <v>      -0.28571429       0.33333333       0.28571429 </v>
   <v>      -0.14285714       0.33333333       0.28571429 </v>
   <v>       0.00000000       0.50000000       0.28571429 </v>
   <v>       0.14285714       0.50000000       0.28571429 </v>
   <v>       0.28571429       0.50000000       0.28571429 </v>
   <v>       0.42857143       0.50000000       0.28571429 </v>
   <v>      -0.42857143       0.50000000       0.28571429 </v>
   <v>      -0.28571429       0.50000000       0.28571429 </v>
   <v>      -0.14285714       0.50000000       0.28571429 </v>
   <v>      -0.00000000       0.00000000       0.42857143 </v>
   <v>       0.14285714       0.00000000       0.42857143 </v>
   <v>       0.28571429       0.00000000       0.42857143 </v>
   <v>       0.42857143       0.00000000       0.42857143 </v>
   <v>      -0.42857143       0.00000000       0.42857143 </v>
   <v>      -0.28571429       0.00000000       0.42857143 </v>
   <v>      -0.14285714       0.00000000       0.42857143 </v>
   <v>      -0.00000000       0.16666667       0.42857143 </v>
   <v>       0.14285714       0.16666667       0.42857143 </v>
   <v>       0.28571429       0.16666667       0.42857143 </v>
   <v>       0.42857143       0.16666667       0.42857143 </v>
   <v>      -0.42857143       0.16666667       0.42857143 </v>
   <v>      -0.28571429       0.16666667       0.42857143 </v>
   <v>      -0.14285714       0.16666667       0.42857143 </v>
   <v>      -0.00000000       0.33333333       0.42857143 </v>
   <v>       0.14285714       0.33333333       0.42857143 </v>
   <v>       0.28571429       0.33333333       0.42857143 </v>
   <v>       0.42857143       0.33333333       0.42857143 </v>
   <v>      -0.42857143       0.33333333       0.42857143 </v>
   <v>      -0.28571429       0.33333333       0.42857143 </v>
   <v>      -0.14285714       0.33333333       0.42857143 </v>
   <v>      -0.00000000       0.50000000       0.42857143 </v>
   <v>       0.14285714       0.50000000       0.42857143 </v>
   <v>       0.28571429       0.50000000       0.42857143 </v>
   <v>       0.42857143       0.50000000       0.42857143 </v>
   <v>      -0.42857143       0.50000000       0.42857143 </v>
   <v>      -0.28571429       0.50000000       0.42857143 </v>
   <v>      -0.14285714       0.50000000       0.42857143 </v>
  </varray>
  <varray name="weights" >
   <v>       0.00340136 </v>
   <v>       0.00680272 </v>
   <v>       0.00680272 </v>
   <v>       0.00680272 </v>
   <v>       0.00680272 </v>
   <v>       0.01360544 </v>
   <v>       0.01360544 </v>
   <v>       0.01360544 </v>
   <v>       0.00680272 </v>
   <v>       0.01360544 </v>
   <v>       0.01360544 </v>
   <v>       0.01360544 </v>
   <v>       0.00340136 </v>
   <v>       0.00680272 </v>
   <v>       0.00680272 </v>
   <v>       0.00680272 </v>
   <v>       0.00680272 </v>
   <v>       0.00680272 </v>
   <v>       0.00680272 </v>
   <v>       0.00680272 </v>
   <v>       0.00680272 </v>
   <v>       0.00680272 </v>
   <v>       0.00680272 </v>
   <v>       0.01360544 </v>
   <v>       0.01360544 </v>
   <v>       0.01360544 </v>
   <v>       0.01360544 </v>
   <v>       0.01360544 </v>
   <v>       0.01360544 </v>
   <v>       0.01360544 </v>
   <v>       0.01360544 </v>
   <v>       0.01360544 </v>
   <v>       0.01360544 </v>
   <v>       0.01360544 </v>
   <v>       0.01360544 </v>
   <v>       0.01360544 </v>
   <v>       0.01360544 </v>
   <v>       0.00680272 </v>
   <v>       0.00680272 </v>
   <v>       0.00680272 </v>
   <v>       0.00680272 </v>
   <v>       0.00680272 </v>
   <v>       0.00680272 </v>
   <v>       0.00680272 </v>
   <v>       0.00680272 </v>
   <v>       0.00680272 </v>
   <v>       0.00680272 </v>
   <v>       0.00680272 </v>
   <v>       0.00680272 </v>
   <v>       0.00680272 </v>
   <v>       0.00680272 </v>
   <v>       0.01360544 </v>
   <v>       0.01360544 </v>
   <v>       0.01360544 </v>
   <v>       0.01360544 </v>
   <v>       0.01360544 </v>
   <v>       0.01360544 </v>
   <v>       0.01360544 </v>
   <v>       0.01360544 </v>
   <v>       0.01360544 </v>
   <v>       0.01360544 </v>
   <v>       0.01360544 </v>
   <v>       0.01360544 </v>
   <v>       0.01360544 </v>
   <v>       0.01360544 </v>
   <v>       0.00680272 </v>
   <v>       0.00680272 </v>
   <v>       0.00680272 </v>
   <v>       0.00680272 </v>
   <v>       0.00680272 </v>
   <v>       0.00680272 </v>
   <v>       0.00680272 </v>
   <v>       0.00680272 </v>
   <v>       0.00680272 </v>
   <v>       0.00680272 </v>
   <v>       0.00680272 </v>
   <v>       0.00680272 </v>
   <v>       0.00680272 </v>
   <v>       0.00680272 </v>
   <v>       0.01360544 </v>
   <v>       0.01360544 </v>
   <v>       0.01360544 </v>
   <v>       0.01360544 </v>
   <v>       0.01360544 </v>
   <v>       0.01360544 </v>
   <v>       0.01360544 </v>
   <v>       0.01360544 </v>
   <v>       0.01360544 </v>
   <v>       0.01360544 </v>
   <v>       0.01360544 </v>
   <v>       0.01360544 </v>
   <v>       0.01360544 </v>
   <v>       0.01360544 </v>
   <v>       0.00680272 </v>
   <v>       0.00680272 </v>
   <v>       0.00680272 </v>
   <v>       0.00680272 </v>
   <v>       0.00680272 </v>
   <v>       0.00680272 </v>
   <v>       0.00680272 </v>
  </varray>
  <varray name="tetrahedronlist"  type="int" >
   <v type="int" >        2        1        5        6       25 </v>
   <v type="int" >        2        1        2        6       25 </v>
   <v type="int" >        2        1        2       18       25 </v>
   <v type="int" >        2        1        5       24       25 </v>
   <v type="int" >        2        1       17       24       25 </v>
   <v type="int" >        2        1       17       18       25 </v>
   <v type="int" >        2        2        6        7       26 </v>
   <v type="int" >        2        2        3        7       26 </v>
   <v type="int" >        2        2        3       19       26 </v>
   <v type="int" >        2        2        6       25       26 </v>
   <v type="int" >        2        2       18       25       26 </v>
   <v type="int" >        2        2       18       19       26 </v>
   <v type="int" >        2        3        7        8       27 </v>
   <v type="int" >        2        3        4        8       27 </v>
   <v type="int" >        2        3        4       20       27 </v>
   <v type="int" >        2        3        7       26       27 </v>
   <v type="int" >        2        3       19       26       27 </v>
   <v type="int" >        2        3       19       20       27 </v>
   <v type="int" >        2        4        8        8       28 </v>
   <v type="int" >        2        4        4        8       28 </v>
   <v type="int" >        2        4        4       21       28 </v>
   <v type="int" >        2        4        8       27       28 </v>
   <v type="int" >        2        4       20       27       28 </v>
   <v type="int" >        2        4       20       21       28 </v>
   <v type="int" >        2        4        7        8       29 </v>
   <v type="int" >        2        3        4        7       29 </v>
   <v type="int" >        2        3        4       22       29 </v>
   <v type="int" >        2        4        8       28       29 </v>
   <v type="int" >        2        4       21       28       29 </v>
   <v type="int" >        2        4       21       22       29 </v>
   <v type="int" >        2        3        6        7       30 </v>
   <v type="int" >        2        2        3        6       30 </v>
   <v type="int" >        2        2        3       23       30 </v>
   <v type="int" >        2        3        7       29       30 </v>
   <v type="int" >        2        3       22       29       30 </v>
   <v type="int" >        2        3       22       23       30 </v>
   <v type="int" >        2        2        5        6       24 </v>
   <v type="int" >        2        1        2        5       24 </v>
   <v type="int" >        2        1        2       17       24 </v>
   <v type="int" >        2        2        6       24       30 </v>
   <v type="int" >        2        2       23       24       30 </v>
   <v type="int" >        2        2       17       23       24 </v>
   <v type="int" >        2        5        9       10       32 </v>
   <v type="int" >        2        5        6       10       32 </v>
   <v type="int" >        2        5        6       25       32 </v>
   <v type="int" >        2        5        9       31       32 </v>
   <v type="int" >        2        5       24       31       32 </v>
   <v type="int" >        2        5       24       25       32 </v>
   <v type="int" >        2        6       10       11       33 </v>
   <v type="int" >        2        6        7       11       33 </v>
   <v type="int" >        2        6        7       26       33 </v>
   <v type="int" >        2        6       10       32       33 </v>
   <v type="int" >        2        6       25       32       33 </v>
   <v type="int" >        2        6       25       26       33 </v>
   <v type="int" >        2        7       11       12       34 </v>
   <v type="int" >        2        7        8       12       34 </v>
   <v type="int" >        2        7        8       27       34 </v>
   <v type="int" >        2        7       11       33       34 </v>
   <v type="int" >        2        7       26       33       34 </v>
   <v type="int" >        2        7       26       27       34 </v>
   <v type="int" >        2        8       12       12       35 </v>
   <v type="int" >        2        8        8       12       35 </v>
   <v type="int" >        2        8        8       28       35 </v>
   <v type="int" >        2        8       12       34       35 </v>
   <v type="int" >        2        8       27       34       35 </v>
   <v type="int" >        2        8       27       28       35 </v>
   <v type="int" >        2        8       11       12       36 </v>
   <v type="int" >        2        7        8       11       36 </v>
   <v type="int" >        2        7        8       29       36 </v>
   <v type="int" >        2        8       12       35       36 </v>
   <v type="int" >        2        8       28       35       36 </v>
   <v type="int" >        2        8       28       29       36 </v>
   <v type="int" >        2        7       10       11       37 </v>
   <v type="int" >        2        6        7       10       37 </v>
   <v type="int" >        2        6        7       30       37 </v>
   <v type="int" >        2        7       11       36       37 </v>
   <v type="int" >        2        7       29       36       37 </v>
   <v type="int" >        2        7       29       30       37 </v>
   <v type="int" >        2        6        9       10       31 </v>
   <v type="int" >        2        5        6        9       31 </v>
   <v type="int" >        2        5        6       24       31 </v>
   <v type="int" >        2        6       10       31       37 </v>
   <v type="int" >        2        6       30       31       37 </v>
   <v type="int" >        2        6       24       30       31 </v>
   <v type="int" >        2        9       13       14       39 </v>
   <v type="int" >        2        9       10       14       39 </v>
   <v type="int" >        2        9       10       32       39 </v>
   <v type="int" >        2        9       13       38       39 </v>
   <v type="int" >        2        9       31       38       39 </v>
   <v type="int" >        2        9       31       32       39 </v>
   <v type="int" >        2       10       14       15       40 </v>
   <v type="int" >        2       10       11       15       40 </v>
   <v type="int" >        2       10       11       33       40 </v>
   <v type="int" >        2       10       14       39       40 </v>
   <v type="int" >        2       10       32       39       40 </v>
   <v type="int" >        2       10       32       33       40 </v>
   <v type="int" >        2       11       15       16       41 </v>
   <v type="int" >        2       11       12       16       41 </v>
   <v type="int" >        2       11       12       34       41 </v>
   <v type="int" >        2       11       15       40       41 </v>
   <v type="int" >        2       11       33       40       41 </v>
   <v type="int" >        2       11       33       34       41 </v>
   <v type="int" >        2       12       16       16       42 </v>
   <v type="int" >        2       12       12       16       42 </v>
   <v type="int" >        2       12       12       35       42 </v>
   <v type="int" >        2       12       16       41       42 </v>
   <v type="int" >        2       12       34       41       42 </v>
   <v type="int" >        2       12       34       35       42 </v>
   <v type="int" >        2       12       15       16       43 </v>
   <v type="int" >        2       11       12       15       43 </v>
   <v type="int" >        2       11       12       36       43 </v>
   <v type="int" >        2       12       16       42       43 </v>
   <v type="int" >        2       12       35       42       43 </v>
   <v type="int" >        2       12       35       36       43 </v>
   <v type="int" >        2       11       14       15       44 </v>
   <v type="int" >        2       10       11       14       44 </v>
   <v type="int" >        2       10       11       37       44 </v>
   <v type="int" >        2       11       15       43       44 </v>
   <v type="int" >        2       11       36       43       44 </v>
   <v type="int" >        2       11       36       37       44 </v>
   <v type="int" >        2       10       13       14       38 </v>
   <v type="int" >        2        9       10       13       38 </v>
   <v type="int" >        2        9       10       31       38 </v>
   <v type="int" >        2       10       14       38       44 </v>
   <v type="int" >        2       10       37       38       44 </v>
   <v type="int" >        2       10       31       37       38 </v>
   <v type="int" >        2        9       10       13       32 </v>
   <v type="int" >        2       10       13       14       32 </v>
   <v type="int" >        2       13       14       32       39 </v>
   <v type="int" >        2        9       13       31       32 </v>
   <v type="int" >        2       13       31       32       38 </v>
   <v type="int" >        2       13       32       38       39 </v>
   <v type="int" >        2       10       11       14       33 </v>
   <v type="int" >        2       11       14       15       33 </v>
   <v type="int" >        2       14       15       33       40 </v>
   <v type="int" >        2       10       14       32       33 </v>
   <v type="int" >        2       14       32       33       39 </v>
   <v type="int" >        2       14       33       39       40 </v>
   <v type="int" >        2       11       12       15       34 </v>
   <v type="int" >        2       12       15       16       34 </v>
   <v type="int" >        2       15       16       34       41 </v>
   <v type="int" >        2       11       15       33       34 </v>
   <v type="int" >        2       15       33       34       40 </v>
   <v type="int" >        2       15       34       40       41 </v>
   <v type="int" >        2       12       12       16       35 </v>
   <v type="int" >        2       12       16       16       35 </v>
   <v type="int" >        2       16       16       35       42 </v>
   <v type="int" >        2       12       16       34       35 </v>
   <v type="int" >        2       16       34       35       41 </v>
   <v type="int" >        2       16       35       41       42 </v>
   <v type="int" >        2       11       12       16       36 </v>
   <v type="int" >        2       11       15       16       36 </v>
   <v type="int" >        2       15       16       36       43 </v>
   <v type="int" >        2       12       16       35       36 </v>
   <v type="int" >        2       16       35       36       42 </v>
   <v type="int" >        2       16       36       42       43 </v>
   <v type="int" >        2       10       11       15       37 </v>
   <v type="int" >        2       10       14       15       37 </v>
   <v type="int" >        2       14       15       37       44 </v>
   <v type="int" >        2       11       15       36       37 </v>
   <v type="int" >        2       15       36       37       43 </v>
   <v type="int" >        2       15       37       43       44 </v>
   <v type="int" >        2        9       10       14       31 </v>
   <v type="int" >        2        9       13       14       31 </v>
   <v type="int" >        2       13       14       31       38 </v>
   <v type="int" >        2       10       14       31       37 </v>
   <v type="int" >        2       14       31       37       44 </v>
   <v type="int" >        2       14       31       38       44 </v>
   <v type="int" >        2        5        6        9       25 </v>
   <v type="int" >        2        6        9       10       25 </v>
   <v type="int" >        2        9       10       25       32 </v>
   <v type="int" >        2        5        9       24       25 </v>
   <v type="int" >        2        9       24       25       31 </v>
   <v type="int" >        2        9       25       31       32 </v>
   <v type="int" >        2        6        7       10       26 </v>
   <v type="int" >        2        7       10       11       26 </v>
   <v type="int" >        2       10       11       26       33 </v>
   <v type="int" >        2        6       10       25       26 </v>
   <v type="int" >        2       10       25       26       32 </v>
   <v type="int" >        2       10       26       32       33 </v>
   <v type="int" >        2        7        8       11       27 </v>
   <v type="int" >        2        8       11       12       27 </v>
   <v type="int" >        2       11       12       27       34 </v>
   <v type="int" >        2        7       11       26       27 </v>
   <v type="int" >        2       11       26       27       33 </v>
   <v type="int" >        2       11       27       33       34 </v>
   <v type="int" >        2        8        8       12       28 </v>
   <v type="int" >        2        8       12       12       28 </v>
   <v type="int" >        2       12       12       28       35 </v>
   <v type="int" >        2        8       12       27       28 </v>
   <v type="int" >        2       12       27       28       34 </v>
   <v type="int" >        2       12       28       34       35 </v>
   <v type="int" >        2        7        8       12       29 </v>
   <v type="int" >        2        7       11       12       29 </v>
   <v type="int" >        2       11       12       29       36 </v>
   <v type="int" >        2        8       12       28       29 </v>
   <v type="int" >        2       12       28       29       35 </v>
   <v type="int" >        2       12       29       35       36 </v>
   <v type="int" >        2        6        7       11       30 </v>
   <v type="int" >        2        6       10       11       30 </v>
   <v type="int" >        2       10       11       30       37 </v>
   <v type="int" >        2        7       11       29       30 </v>
   <v type="int" >        2       11       29       30       36 </v>
   <v type="int" >        2       11       30       36       37 </v>
   <v type="int" >        2        5        6       10       24 </v>
   <v type="int" >        2        5        9       10       24 </v>
   <v type="int" >        2        9       10       24       31 </v>
   <v type="int" >        2        6       10       24       30 </v>
   <v type="int" >        2       10       24       30       37 </v>
   <v type="int" >        2       10       24       31       37 </v>
   <v type="int" >        2        1        2        5       18 </v>
   <v type="int" >        2        2        5        6       18 </v>
   <v type="int" >        2        5        6       18       25 </v>
   <v type="int" >        2        1        5       17       18 </v>
   <v type="int" >        2        5       17       18       24 </v>
   <v type="int" >        2        5       18       24       25 </v>
   <v type="int" >        2        2        3        6       19 </v>
   <v type="int" >        2        3        6        7       19 </v>
   <v type="int" >        2        6        7       19       26 </v>
   <v type="int" >        2        2        6       18       19 </v>
   <v type="int" >        2        6       18       19       25 </v>
   <v type="int" >        2        6       19       25       26 </v>
   <v type="int" >        2        3        4        7       20 </v>
   <v type="int" >        2        4        7        8       20 </v>
   <v type="int" >        2        7        8       20       27 </v>
   <v type="int" >        2        3        7       19       20 </v>
   <v type="int" >        2        7       19       20       26 </v>
   <v type="int" >        2        7       20       26       27 </v>
   <v type="int" >        2        4        4        8       21 </v>
   <v type="int" >        2        4        8        8       21 </v>
   <v type="int" >        2        8        8       21       28 </v>
   <v type="int" >        2        4        8       20       21 </v>
   <v type="int" >        2        8       20       21       27 </v>
   <v type="int" >        2        8       21       27       28 </v>
   <v type="int" >        2        3        4        8       22 </v>
   <v type="int" >        2        3        7        8       22 </v>
   <v type="int" >        2        7        8       22       29 </v>
   <v type="int" >        2        4        8       21       22 </v>
   <v type="int" >        2        8       21       22       28 </v>
   <v type="int" >        2        8       22       28       29 </v>
   <v type="int" >        2        2        3        7       23 </v>
   <v type="int" >        2        2        6        7       23 </v>
   <v type="int" >        2        6        7       23       30 </v>
   <v type="int" >        2        3        7       22       23 </v>
   <v type="int" >        2        7       22       23       29 </v>
   <v type="int" >        2        7       23       29       30 </v>
   <v type="int" >        2        1        2        6       17 </v>
   <v type="int" >        2        1        5        6       17 </v>
   <v type="int" >        2        5        6       17       24 </v>
   <v type="int" >        2        2        6       17       23 </v>
   <v type="int" >        2        6       17       23       30 </v>
   <v type="int" >        2        6       17       24       30 </v>
   <v type="int" >        2       17       24       25       53 </v>
   <v type="int" >        2       17       18       25       53 </v>
   <v type="int" >        2       17       18       46       53 </v>
   <v type="int" >        2       17       24       52       53 </v>
   <v type="int" >        2       17       45       52       53 </v>
   <v type="int" >        2       17       45       46       53 </v>
   <v type="int" >        2       18       25       26       54 </v>
   <v type="int" >        2       18       19       26       54 </v>
   <v type="int" >        2       18       19       47       54 </v>
   <v type="int" >        2       18       25       53       54 </v>
   <v type="int" >        2       18       46       53       54 </v>
   <v type="int" >        2       18       46       47       54 </v>
   <v type="int" >        2       19       26       27       55 </v>
   <v type="int" >        2       19       20       27       55 </v>
   <v type="int" >        2       19       20       48       55 </v>
   <v type="int" >        2       19       26       54       55 </v>
   <v type="int" >        2       19       47       54       55 </v>
   <v type="int" >        2       19       47       48       55 </v>
   <v type="int" >        2       20       27       28       56 </v>
   <v type="int" >        2       20       21       28       56 </v>
   <v type="int" >        2       20       21       49       56 </v>
   <v type="int" >        2       20       27       55       56 </v>
   <v type="int" >        2       20       48       55       56 </v>
   <v type="int" >        2       20       48       49       56 </v>
   <v type="int" >        2       21       28       29       57 </v>
   <v type="int" >        2       21       22       29       57 </v>
   <v type="int" >        2       21       22       50       57 </v>
   <v type="int" >        2       21       28       56       57 </v>
   <v type="int" >        2       21       49       56       57 </v>
   <v type="int" >        2       21       49       50       57 </v>
   <v type="int" >        2       22       29       30       58 </v>
   <v type="int" >        2       22       23       30       58 </v>
   <v type="int" >        2       22       23       51       58 </v>
   <v type="int" >        2       22       29       57       58 </v>
   <v type="int" >        2       22       50       57       58 </v>
   <v type="int" >        2       22       50       51       58 </v>
   <v type="int" >        2       23       24       30       52 </v>
   <v type="int" >        2       17       23       24       52 </v>
   <v type="int" >        2       17       23       45       52 </v>
   <v type="int" >        2       23       30       52       58 </v>
   <v type="int" >        2       23       51       52       58 </v>
   <v type="int" >        2       23       45       51       52 </v>
   <v type="int" >        2       24       31       32       60 </v>
   <v type="int" >        2       24       25       32       60 </v>
   <v type="int" >        2       24       25       53       60 </v>
   <v type="int" >        2       24       31       59       60 </v>
   <v type="int" >        2       24       52       59       60 </v>
   <v type="int" >        2       24       52       53       60 </v>
   <v type="int" >        2       25       32       33       61 </v>
   <v type="int" >        2       25       26       33       61 </v>
   <v type="int" >        2       25       26       54       61 </v>
   <v type="int" >        2       25       32       60       61 </v>
   <v type="int" >        2       25       53       60       61 </v>
   <v type="int" >        2       25       53       54       61 </v>
   <v type="int" >        2       26       33       34       62 </v>
   <v type="int" >        2       26       27       34       62 </v>
   <v type="int" >        2       26       27       55       62 </v>
   <v type="int" >        2       26       33       61       62 </v>
   <v type="int" >        2       26       54       61       62 </v>
   <v type="int" >        2       26       54       55       62 </v>
   <v type="int" >        2       27       34       35       63 </v>
   <v type="int" >        2       27       28       35       63 </v>
   <v type="int" >        2       27       28       56       63 </v>
   <v type="int" >        2       27       34       62       63 </v>
   <v type="int" >        2       27       55       62       63 </v>
   <v type="int" >        2       27       55       56       63 </v>
   <v type="int" >        2       28       35       36       64 </v>
   <v type="int" >        2       28       29       36       64 </v>
   <v type="int" >        2       28       29       57       64 </v>
   <v type="int" >        2       28       35       63       64 </v>
   <v type="int" >        2       28       56       63       64 </v>
   <v type="int" >        2       28       56       57       64 </v>
   <v type="int" >        2       29       36       37       65 </v>
   <v type="int" >        2       29       30       37       65 </v>
   <v type="int" >        2       29       30       58       65 </v>
   <v type="int" >        2       29       36       64       65 </v>
   <v type="int" >        2       29       57       64       65 </v>
   <v type="int" >        2       29       57       58       65 </v>
   <v type="int" >        2       30       31       37       59 </v>
   <v type="int" >        2       24       30       31       59 </v>
   <v type="int" >        2       24       30       52       59 </v>
   <v type="int" >        2       30       37       59       65 </v>
   <v type="int" >        2       30       58       59       65 </v>
   <v type="int" >        2       30       52       58       59 </v>
   <v type="int" >        2       31       38       39       67 </v>
   <v type="int" >        2       31       32       39       67 </v>
   <v type="int" >        2       31       32       60       67 </v>
   <v type="int" >        2       31       38       66       67 </v>
   <v type="int" >        2       31       59       66       67 </v>
   <v type="int" >        2       31       59       60       67 </v>
   <v type="int" >        2       32       39       40       68 </v>
   <v type="int" >        2       32       33       40       68 </v>
   <v type="int" >        2       32       33       61       68 </v>
   <v type="int" >        2       32       39       67       68 </v>
   <v type="int" >        2       32       60       67       68 </v>
   <v type="int" >        2       32       60       61       68 </v>
   <v type="int" >        2       33       40       41       69 </v>
   <v type="int" >        2       33       34       41       69 </v>
   <v type="int" >        2       33       34       62       69 </v>
   <v type="int" >        2       33       40       68       69 </v>
   <v type="int" >        2       33       61       68       69 </v>
   <v type="int" >        2       33       61       62       69 </v>
   <v type="int" >        2       34       41       42       70 </v>
   <v type="int" >        2       34       35       42       70 </v>
   <v type="int" >        2       34       35       63       70 </v>
   <v type="int" >        2       34       41       69       70 </v>
   <v type="int" >        2       34       62       69       70 </v>
   <v type="int" >        2       34       62       63       70 </v>
   <v type="int" >        2       35       42       43       71 </v>
   <v type="int" >        2       35       36       43       71 </v>
   <v type="int" >        2       35       36       64       71 </v>
   <v type="int" >        2       35       42       70       71 </v>
   <v type="int" >        2       35       63       70       71 </v>
   <v type="int" >        2       35       63       64       71 </v>
   <v type="int" >        2       36       43       44       72 </v>
   <v type="int" >        2       36       37       44       72 </v>
   <v type="int" >        2       36       37       65       72 </v>
   <v type="int" >        2       36       43       71       72 </v>
   <v type="int" >        2       36       64       71       72 </v>
   <v type="int" >        2       36       64       65       72 </v>
   <v type="int" >        2       37       38       44       66 </v>
   <v type="int" >        2       31       37       38       66 </v>
   <v type="int" >        2       31       37       59       66 </v>
   <v type="int" >        2       37       44       66       72 </v>
   <v type="int" >        2       37       65       66       72 </v>
   <v type="int" >        2       37       59       65       66 </v>
   <v type="int" >        2       31       32       38       60 </v>
   <v type="int" >        2       32       38       39       60 </v>
   <v type="int" >        2       38       39       60       67 </v>
   <v type="int" >        2       31       38       59       60 </v>
   <v type="int" >        2       38       59       60       66 </v>
   <v type="int" >        2       38       60       66       67 </v>
   <v type="int" >        2       32       33       39       61 </v>
   <v type="int" >        2       33       39       40       61 </v>
   <v type="int" >        2       39       40       61       68 </v>
   <v type="int" >        2       32       39       60       61 </v>
   <v type="int" >        2       39       60       61       67 </v>
   <v type="int" >        2       39       61       67       68 </v>
   <v type="int" >        2       33       34       40       62 </v>
   <v type="int" >        2       34       40       41       62 </v>
   <v type="int" >        2       40       41       62       69 </v>
   <v type="int" >        2       33       40       61       62 </v>
   <v type="int" >        2       40       61       62       68 </v>
   <v type="int" >        2       40       62       68       69 </v>
   <v type="int" >        2       34       35       41       63 </v>
   <v type="int" >        2       35       41       42       63 </v>
   <v type="int" >        2       41       42       63       70 </v>
   <v type="int" >        2       34       41       62       63 </v>
   <v type="int" >        2       41       62       63       69 </v>
   <v type="int" >        2       41       63       69       70 </v>
   <v type="int" >        2       35       36       42       64 </v>
   <v type="int" >        2       36       42       43       64 </v>
   <v type="int" >        2       42       43       64       71 </v>
   <v type="int" >        2       35       42       63       64 </v>
   <v type="int" >        2       42       63       64       70 </v>
   <v type="int" >        2       42       64       70       71 </v>
   <v type="int" >        2       36       37       43       65 </v>
   <v type="int" >        2       37       43       44       65 </v>
   <v type="int" >        2       43       44       65       72 </v>
   <v type="int" >        2       36       43       64       65 </v>
   <v type="int" >        2       43       64       65       71 </v>
   <v type="int" >        2       43       65       71       72 </v>
   <v type="int" >        2       31       37       44       59 </v>
   <v type="int" >        2       31       38       44       59 </v>
   <v type="int" >        2       38       44       59       66 </v>
   <v type="int" >        2       37       44       59       65 </v>
   <v type="int" >        2       44       59       65       72 </v>
   <v type="int" >        2       44       59       66       72 </v>
   <v type="int" >        2       24       25       31       53 </v>
   <v type="int" >        2       25       31       32       53 </v>
   <v type="int" >        2       31       32       53       60 </v>
   <v type="int" >        2       24       31       52       53 </v>
   <v type="int" >        2       31       52       53       59 </v>
   <v type="int" >        2       31       53       59       60 </v>
   <v type="int" >        2       25       26       32       54 </v>
   <v type="int" >        2       26       32       33       54 </v>
   <v type="int" >        2       32       33       54       61 </v>
   <v type="int" >        2       25       32       53       54 </v>
   <v type="int" >        2       32       53       54       60 </v>
   <v type="int" >        2       32       54       60       61 </v>
   <v type="int" >        2       26       27       33       55 </v>
   <v type="int" >        2       27       33       34       55 </v>
   <v type="int" >        2       33       34       55       62 </v>
   <v type="int" >        2       26       33       54       55 </v>
   <v type="int" >        2       33       54       55       61 </v>
   <v type="int" >        2       33       55       61       62 </v>
   <v type="int" >        2       27       28       34       56 </v>
   <v type="int" >        2       28       34       35       56 </v>
   <v type="int" >        2       34       35       56       63 </v>
   <v type="int" >        2       27       34       55       56 </v>
   <v type="int" >        2       34       55       56       62 </v>
   <v type="int" >        2       34       56       62       63 </v>
   <v type="int" >        2       28       29       35       57 </v>
   <v type="int" >        2       29       35       36       57 </v>
   <v type="int" >        2       35       36       57       64 </v>
   <v type="int" >        2       28       35       56       57 </v>
   <v type="int" >        2       35       56       57       63 </v>
   <v type="int" >        2       35       57       63       64 </v>
   <v type="int" >        2       29       30       36       58 </v>
   <v type="int" >        2       30       36       37       58 </v>
   <v type="int" >        2       36       37       58       65 </v>
   <v type="int" >        2       29       36       57       58 </v>
   <v type="int" >        2       36       57       58       64 </v>
   <v type="int" >        2       36       58       64       65 </v>
   <v type="int" >        2       24       30       37       52 </v>
   <v type="int" >        2       24       31       37       52 </v>
   <v type="int" >        2       31       37       52       59 </v>
   <v type="int" >        2       30       37       52       58 </v>
   <v type="int" >        2       37       52       58       65 </v>
   <v type="int" >        2       37       52       59       65 </v>
   <v type="int" >        2       17       18       24       46 </v>
   <v type="int" >        2       18       24       25       46 </v>
   <v type="int" >        2       24       25       46       53 </v>
   <v type="int" >        2       17       24       45       46 </v>
   <v type="int" >        2       24       45       46       52 </v>
   <v type="int" >        2       24       46       52       53 </v>
   <v type="int" >        2       18       19       25       47 </v>
   <v type="int" >        2       19       25       26       47 </v>
   <v type="int" >        2       25       26       47       54 </v>
   <v type="int" >        2       18       25       46       47 </v>
   <v type="int" >        2       25       46       47       53 </v>
   <v type="int" >        2       25       47       53       54 </v>
   <v type="int" >        2       19       20       26       48 </v>
   <v type="int" >        2       20       26       27       48 </v>
   <v type="int" >        2       26       27       48       55 </v>
   <v type="int" >        2       19       26       47       48 </v>
   <v type="int" >        2       26       47       48       54 </v>
   <v type="int" >        2       26       48       54       55 </v>
   <v type="int" >        2       20       21       27       49 </v>
   <v type="int" >        2       21       27       28       49 </v>
   <v type="int" >        2       27       28       49       56 </v>
   <v type="int" >        2       20       27       48       49 </v>
   <v type="int" >        2       27       48       49       55 </v>
   <v type="int" >        2       27       49       55       56 </v>
   <v type="int" >        2       21       22       28       50 </v>
   <v type="int" >        2       22       28       29       50 </v>
   <v type="int" >        2       28       29       50       57 </v>
   <v type="int" >        2       21       28       49       50 </v>
   <v type="int" >        2       28       49       50       56 </v>
   <v type="int" >        2       28       50       56       57 </v>
   <v type="int" >        2       22       23       29       51 </v>
   <v type="int" >        2       23       29       30       51 </v>
   <v type="int" >        2       29       30       51       58 </v>
   <v type="int" >        2       22       29       50       51 </v>
   <v type="int" >        2       29       50       51       57 </v>
   <v type="int" >        2       29       51       57       58 </v>
   <v type="int" >        2       17       23       30       45 </v>
   <v type="int" >        2       17       24       30       45 </v>
   <v type="int" >        2       24       30       45       52 </v>
   <v type="int" >        2       23       30       45       51 </v>
   <v type="int" >        2       30       45       51       58 </v>
   <v type="int" >        2       30       45       52       58 </v>
   <v type="int" >        2       45       52       53       81 </v>
   <v type="int" >        2       45       46       53       81 </v>
   <v type="int" >        2       45       46       74       81 </v>
   <v type="int" >        2       45       52       80       81 </v>
   <v type="int" >        2       45       73       80       81 </v>
   <v type="int" >        2       45       73       74       81 </v>
   <v type="int" >        2       46       53       54       82 </v>
   <v type="int" >        2       46       47       54       82 </v>
   <v type="int" >        2       46       47       75       82 </v>
   <v type="int" >        2       46       53       81       82 </v>
   <v type="int" >        2       46       74       81       82 </v>
   <v type="int" >        2       46       74       75       82 </v>
   <v type="int" >        2       47       54       55       83 </v>
   <v type="int" >        2       47       48       55       83 </v>
   <v type="int" >        2       47       48       76       83 </v>
   <v type="int" >        2       47       54       82       83 </v>
   <v type="int" >        2       47       75       82       83 </v>
   <v type="int" >        2       47       75       76       83 </v>
   <v type="int" >        2       48       55       56       84 </v>
   <v type="int" >        2       48       49       56       84 </v>
   <v type="int" >        2       48       49       77       84 </v>
   <v type="int" >        2       48       55       83       84 </v>
   <v type="int" >        2       48       76       83       84 </v>
   <v type="int" >        2       48       76       77       84 </v>
   <v type="int" >        2       49       56       57       85 </v>
   <v type="int" >        2       49       50       57       85 </v>
   <v type="int" >        2       49       50       78       85 </v>
   <v type="int" >        2       49       56       84       85 </v>
   <v type="int" >        2       49       77       84       85 </v>
   <v type="int" >        2       49       77       78       85 </v>
   <v type="int" >        2       50       57       58       86 </v>
   <v type="int" >        2       50       51       58       86 </v>
   <v type="int" >        2       50       51       79       86 </v>
   <v type="int" >        2       50       57       85       86 </v>
   <v type="int" >        2       50       78       85       86 </v>
   <v type="int" >        2       50       78       79       86 </v>
   <v type="int" >        2       51       52       58       80 </v>
   <v type="int" >        2       45       51       52       80 </v>
   <v type="int" >        2       45       51       73       80 </v>
   <v type="int" >        2       51       58       80       86 </v>
   <v type="int" >        2       51       79       80       86 </v>
   <v type="int" >        2       51       73       79       80 </v>
   <v type="int" >        2       52       59       60       88 </v>
   <v type="int" >        2       52       53       60       88 </v>
   <v type="int" >        2       52       53       81       88 </v>
   <v type="int" >        2       52       59       87       88 </v>
   <v type="int" >        2       52       80       87       88 </v>
   <v type="int" >        2       52       80       81       88 </v>
   <v type="int" >        2       53       60       61       89 </v>
   <v type="int" >        2       53       54       61       89 </v>
   <v type="int" >        2       53       54       82       89 </v>
   <v type="int" >        2       53       60       88       89 </v>
   <v type="int" >        2       53       81       88       89 </v>
   <v type="int" >        2       53       81       82       89 </v>
   <v type="int" >        2       54       61       62       90 </v>
   <v type="int" >        2       54       55       62       90 </v>
   <v type="int" >        2       54       55       83       90 </v>
   <v type="int" >        2       54       61       89       90 </v>
   <v type="int" >        2       54       82       89       90 </v>
   <v type="int" >        2       54       82       83       90 </v>
   <v type="int" >        2       55       62       63       91 </v>
   <v type="int" >        2       55       56       63       91 </v>
   <v type="int" >        2       55       56       84       91 </v>
   <v type="int" >        2       55       62       90       91 </v>
   <v type="int" >        2       55       83       90       91 </v>
   <v type="int" >        2       55       83       84       91 </v>
   <v type="int" >        2       56       63       64       92 </v>
   <v type="int" >        2       56       57       64       92 </v>
   <v type="int" >        2       56       57       85       92 </v>
   <v type="int" >        2       56       63       91       92 </v>
   <v type="int" >        2       56       84       91       92 </v>
   <v type="int" >        2       56       84       85       92 </v>
   <v type="int" >        2       57       64       65       93 </v>
   <v type="int" >        2       57       58       65       93 </v>
   <v type="int" >        2       57       58       86       93 </v>
   <v type="int" >        2       57       64       92       93 </v>
   <v type="int" >        2       57       85       92       93 </v>
   <v type="int" >        2       57       85       86       93 </v>
   <v type="int" >        2       58       59       65       87 </v>
   <v type="int" >        2       52       58       59       87 </v>
   <v type="int" >        2       52       58       80       87 </v>
   <v type="int" >        2       58       65       87       93 </v>
   <v type="int" >        2       58       86       87       93 </v>
   <v type="int" >        2       58       80       86       87 </v>
   <v type="int" >        2       59       66       67       95 </v>
   <v type="int" >        2       59       60       67       95 </v>
   <v type="int" >        2       59       60       88       95 </v>
   <v type="int" >        2       59       66       94       95 </v>
   <v type="int" >        2       59       87       94       95 </v>
   <v type="int" >        2       59       87       88       95 </v>
   <v type="int" >        2       60       67       68       96 </v>
   <v type="int" >        2       60       61       68       96 </v>
   <v type="int" >        2       60       61       89       96 </v>
   <v type="int" >        2       60       67       95       96 </v>
   <v type="int" >        2       60       88       95       96 </v>
   <v type="int" >        2       60       88       89       96 </v>
   <v type="int" >        2       61       68       69       97 </v>
   <v type="int" >        2       61       62       69       97 </v>
   <v type="int" >        2       61       62       90       97 </v>
   <v type="int" >        2       61       68       96       97 </v>
   <v type="int" >        2       61       89       96       97 </v>
   <v type="int" >        2       61       89       90       97 </v>
   <v type="int" >        2       62       69       70       98 </v>
   <v type="int" >        2       62       63       70       98 </v>
   <v type="int" >        2       62       63       91       98 </v>
   <v type="int" >        2       62       69       97       98 </v>
   <v type="int" >        2       62       90       97       98 </v>
   <v type="int" >        2       62       90       91       98 </v>
   <v type="int" >        2       63       70       71       99 </v>
   <v type="int" >        2       63       64       71       99 </v>
   <v type="int" >        2       63       64       92       99 </v>
   <v type="int" >        2       63       70       98       99 </v>
   <v type="int" >        2       63       91       98       99 </v>
   <v type="int" >        2       63       91       92       99 </v>
   <v type="int" >        2       64       71       72      100 </v>
   <v type="int" >        2       64       65       72      100 </v>
   <v type="int" >        2       64       65       93      100 </v>
   <v type="int" >        2       64       71       99      100 </v>
   <v type="int" >        2       64       92       99      100 </v>
   <v type="int" >        2       64       92       93      100 </v>
   <v type="int" >        2       65       66       72       94 </v>
   <v type="int" >        2       59       65       66       94 </v>
   <v type="int" >        2       59       65       87       94 </v>
   <v type="int" >        2       65       72       94      100 </v>
   <v type="int" >        2       65       93       94      100 </v>
   <v type="int" >        2       65       87       93       94 </v>
   <v type="int" >        2       59       60       66       88 </v>
   <v type="int" >        2       60       66       67       88 </v>
   <v type="int" >        2       66       67       88       95 </v>
   <v type="int" >        2       59       66       87       88 </v>
   <v type="int" >        2       66       87       88       94 </v>
   <v type="int" >        2       66       88       94       95 </v>
   <v type="int" >        2       60       61       67       89 </v>
   <v type="int" >        2       61       67       68       89 </v>
   <v type="int" >        2       67       68       89       96 </v>
   <v type="int" >        2       60       67       88       89 </v>
   <v type="int" >        2       67       88       89       95 </v>
   <v type="int" >        2       67       89       95       96 </v>
   <v type="int" >        2       61       62       68       90 </v>
   <v type="int" >        2       62       68       69       90 </v>
   <v type="int" >        2       68       69       90       97 </v>
   <v type="int" >        2       61       68       89       90 </v>
   <v type="int" >        2       68       89       90       96 </v>
   <v type="int" >        2       68       90       96       97 </v>
   <v type="int" >        2       62       63       69       91 </v>
   <v type="int" >        2       63       69       70       91 </v>
   <v type="int" >        2       69       70       91       98 </v>
   <v type="int" >        2       62       69       90       91 </v>
   <v type="int" >        2       69       90       91       97 </v>
   <v type="int" >        2       69       91       97       98 </v>
   <v type="int" >        2       63       64       70       92 </v>
   <v type="int" >        2       64       70       71       92 </v>
   <v type="int" >        2       70       71       92       99 </v>
   <v type="int" >        2       63       70       91       92 </v>
   <v type="int" >        2       70       91       92       98 </v>
   <v type="int" >        2       70       92       98       99 </v>
   <v type="int" >        2       64       65       71       93 </v>
   <v type="int" >        2       65       71       72       93 </v>
   <v type="int" >        2       71       72       93      100 </v>
   <v type="int" >        2       64       71       92       93 </v>
   <v type="int" >        2       71       92       93       99 </v>
   <v type="int" >        2       71       93       99      100 </v>
   <v type="int" >        2       59       65       72       87 </v>
   <v type="int" >        2       59       66       72       87 </v>
   <v type="int" >        2       66       72       87       94 </v>
   <v type="int" >        2       65       72       87       93 </v>
   <v type="int" >        2       72       87       93      100 </v>
   <v type="int" >        2       72       87       94      100 </v>
   <v type="int" >        2       52       53       59       81 </v>
   <v type="int" >        2       53       59       60       81 </v>
   <v type="int" >        2       59       60       81       88 </v>
   <v type="int" >        2       52       59       80       81 </v>
   <v type="int" >        2       59       80       81       87 </v>
   <v type="int" >        2       59       81       87       88 </v>
   <v type="int" >        2       53       54       60       82 </v>
   <v type="int" >        2       54       60       61       82 </v>
   <v type="int" >        2       60       61       82       89 </v>
   <v type="int" >        2       53       60       81       82 </v>
   <v type="int" >        2       60       81       82       88 </v>
   <v type="int" >        2       60       82       88       89 </v>
   <v type="int" >        2       54       55       61       83 </v>
   <v type="int" >        2       55       61       62       83 </v>
   <v type="int" >        2       61       62       83       90 </v>
   <v type="int" >        2       54       61       82       83 </v>
   <v type="int" >        2       61       82       83       89 </v>
   <v type="int" >        2       61       83       89       90 </v>
   <v type="int" >        2       55       56       62       84 </v>
   <v type="int" >        2       56       62       63       84 </v>
   <v type="int" >        2       62       63       84       91 </v>
   <v type="int" >        2       55       62       83       84 </v>
   <v type="int" >        2       62       83       84       90 </v>
   <v type="int" >        2       62       84       90       91 </v>
   <v type="int" >        2       56       57       63       85 </v>
   <v type="int" >        2       57       63       64       85 </v>
   <v type="int" >        2       63       64       85       92 </v>
   <v type="int" >        2       56       63       84       85 </v>
   <v type="int" >        2       63       84       85       91 </v>
   <v type="int" >        2       63       85       91       92 </v>
   <v type="int" >        2       57       58       64       86 </v>
   <v type="int" >        2       58       64       65       86 </v>
   <v type="int" >        2       64       65       86       93 </v>
   <v type="int" >        2       57       64       85       86 </v>
   <v type="int" >        2       64       85       86       92 </v>
   <v type="int" >        2       64       86       92       93 </v>
   <v type="int" >        2       52       58       65       80 </v>
   <v type="int" >        2       52       59       65       80 </v>
   <v type="int" >        2       59       65       80       87 </v>
   <v type="int" >        2       58       65       80       86 </v>
   <v type="int" >        2       65       80       86       93 </v>
   <v type="int" >        2       65       80       87       93 </v>
   <v type="int" >        2       45       46       52       74 </v>
   <v type="int" >        2       46       52       53       74 </v>
   <v type="int" >        2       52       53       74       81 </v>
   <v type="int" >        2       45       52       73       74 </v>
   <v type="int" >        2       52       73       74       80 </v>
   <v type="int" >        2       52       74       80       81 </v>
   <v type="int" >        2       46       47       53       75 </v>
   <v type="int" >        2       47       53       54       75 </v>
   <v type="int" >        2       53       54       75       82 </v>
   <v type="int" >        2       46       53       74       75 </v>
   <v type="int" >        2       53       74       75       81 </v>
   <v type="int" >        2       53       75       81       82 </v>
   <v type="int" >        2       47       48       54       76 </v>
   <v type="int" >        2       48       54       55       76 </v>
   <v type="int" >        2       54       55       76       83 </v>
   <v type="int" >        2       47       54       75       76 </v>
   <v type="int" >        2       54       75       76       82 </v>
   <v type="int" >        2       54       76       82       83 </v>
   <v type="int" >        2       48       49       55       77 </v>
   <v type="int" >        2       49       55       56       77 </v>
   <v type="int" >        2       55       56       77       84 </v>
   <v type="int" >        2       48       55       76       77 </v>
   <v type="int" >        2       55       76       77       83 </v>
   <v type="int" >        2       55       77       83       84 </v>
   <v type="int" >        2       49       50       56       78 </v>
   <v type="int" >        2       50       56       57       78 </v>
   <v type="int" >        2       56       57       78       85 </v>
   <v type="int" >        2       49       56       77       78 </v>
   <v type="int" >        2       56       77       78       84 </v>
   <v type="int" >        2       56       78       84       85 </v>
   <v type="int" >        2       50       51       57       79 </v>
   <v type="int" >        2       51       57       58       79 </v>
   <v type="int" >        2       57       58       79       86 </v>
   <v type="int" >        2       50       57       78       79 </v>
   <v type="int" >        2       57       78       79       85 </v>
   <v type="int" >        2       57       79       85       86 </v>
   <v type="int" >        2       45       51       58       73 </v>
   <v type="int" >        2       45       52       58       73 </v>
   <v type="int" >        2       52       58       73       80 </v>
   <v type="int" >        2       51       58       73       79 </v>
   <v type="int" >        2       58       73       79       86 </v>
   <v type="int" >        2       58       73       80       86 </v>
   <v type="int" >        2       73       80       81       86 </v>
   <v type="int" >        2       73       74       81       86 </v>
   <v type="int" >        2       73       74       79       86 </v>
   <v type="int" >        2       73       80       80       86 </v>
   <v type="int" >        2       73       73       80       86 </v>
   <v type="int" >        2       73       73       79       86 </v>
   <v type="int" >        2       74       81       82       85 </v>
   <v type="int" >        2       74       75       82       85 </v>
   <v type="int" >        2       74       75       78       85 </v>
   <v type="int" >        2       74       81       85       86 </v>
   <v type="int" >        2       74       79       85       86 </v>
   <v type="int" >        2       74       78       79       85 </v>
   <v type="int" >        2       75       82       83       84 </v>
   <v type="int" >        2       75       76       83       84 </v>
   <v type="int" >        2       75       76       77       84 </v>
   <v type="int" >        2       75       82       84       85 </v>
   <v type="int" >        2       75       78       84       85 </v>
   <v type="int" >        2       75       77       78       84 </v>
   <v type="int" >        4       76       83       83       84 </v>
   <v type="int" >        4       76       77       83       84 </v>
   <v type="int" >        4       76       76       77       83 </v>
   <v type="int" >        2       77       82       84       85 </v>
   <v type="int" >        2       77       78       82       85 </v>
   <v type="int" >        2       75       77       78       82 </v>
   <v type="int" >        2       77       82       83       84 </v>
   <v type="int" >        2       76       77       82       83 </v>
   <v type="int" >        2       75       76       77       82 </v>
   <v type="int" >        2       78       81       85       86 </v>
   <v type="int" >        2       78       79       81       86 </v>
   <v type="int" >        2       74       78       79       81 </v>
   <v type="int" >        2       78       81       82       85 </v>
   <v type="int" >        2       75       78       81       82 </v>
   <v type="int" >        2       74       75       78       81 </v>
   <v type="int" >        2       79       80       80       86 </v>
   <v type="int" >        2       73       79       80       80 </v>
   <v type="int" >        2       73       73       79       80 </v>
   <v type="int" >        2       79       80       81       86 </v>
   <v type="int" >        2       74       79       80       81 </v>
   <v type="int" >        2       73       74       79       80 </v>
   <v type="int" >        2       80       87       88       93 </v>
   <v type="int" >        2       80       81       88       93 </v>
   <v type="int" >        2       80       81       86       93 </v>
   <v type="int" >        2       80       87       87       93 </v>
   <v type="int" >        2       80       80       87       93 </v>
   <v type="int" >        2       80       80       86       93 </v>
   <v type="int" >        2       81       88       89       92 </v>
   <v type="int" >        2       81       82       89       92 </v>
   <v type="int" >        2       81       82       85       92 </v>
   <v type="int" >        2       81       88       92       93 </v>
   <v type="int" >        2       81       86       92       93 </v>
   <v type="int" >        2       81       85       86       92 </v>
   <v type="int" >        2       82       89       90       91 </v>
   <v type="int" >        2       82       83       90       91 </v>
   <v type="int" >        2       82       83       84       91 </v>
   <v type="int" >        2       82       89       91       92 </v>
   <v type="int" >        2       82       85       91       92 </v>
   <v type="int" >        2       82       84       85       91 </v>
   <v type="int" >        4       83       90       90       91 </v>
   <v type="int" >        4       83       84       90       91 </v>
   <v type="int" >        4       83       83       84       90 </v>
   <v type="int" >        2       84       89       91       92 </v>
   <v type="int" >        2       84       85       89       92 </v>
   <v type="int" >        2       82       84       85       89 </v>
   <v type="int" >        2       84       89       90       91 </v>
   <v type="int" >        2       83       84       89       90 </v>
   <v type="int" >        2       82       83       84       89 </v>
   <v type="int" >        2       85       88       92       93 </v>
   <v type="int" >        2       85       86       88       93 </v>
   <v type="int" >        2       81       85       86       88 </v>
   <v type="int" >        2       85       88       89       92 </v>
   <v type="int" >        2       82       85       88       89 </v>
   <v type="int" >        2       81       82       85       88 </v>
   <v type="int" >        2       86       87       87       93 </v>
   <v type="int" >        2       80       86       87       87 </v>
   <v type="int" >        2       80       80       86       87 </v>
   <v type="int" >        2       86       87       88       93 </v>
   <v type="int" >        2       81       86       87       88 </v>
   <v type="int" >        2       80       81       86       87 </v>
   <v type="int" >        2       87       94       95      100 </v>
   <v type="int" >        2       87       88       95      100 </v>
   <v type="int" >        2       87       88       93      100 </v>
   <v type="int" >        2       87       94       94      100 </v>
   <v type="int" >        2       87       87       94      100 </v>
   <v type="int" >        2       87       87       93      100 </v>
   <v type="int" >        2       88       95       96       99 </v>
   <v type="int" >        2       88       89       96       99 </v>
   <v type="int" >        2       88       89       92       99 </v>
   <v type="int" >        2       88       95       99      100 </v>
   <v type="int" >        2       88       93       99      100 </v>
   <v type="int" >        2       88       92       93       99 </v>
   <v type="int" >        2       89       96       97       98 </v>
   <v type="int" >        2       89       90       97       98 </v>
   <v type="int" >        2       89       90       91       98 </v>
   <v type="int" >        2       89       96       98       99 </v>
   <v type="int" >        2       89       92       98       99 </v>
   <v type="int" >        2       89       91       92       98 </v>
   <v type="int" >        4       90       97       97       98 </v>
   <v type="int" >        4       90       91       97       98 </v>
   <v type="int" >        4       90       90       91       97 </v>
   <v type="int" >        2       91       96       98       99 </v>
   <v type="int" >        2       91       92       96       99 </v>
   <v type="int" >        2       89       91       92       96 </v>
   <v type="int" >        2       91       96       97       98 </v>
   <v type="int" >        2       90       91       96       97 </v>
   <v type="int" >        2       89       90       91       96 </v>
   <v type="int" >        2       92       95       99      100 </v>
   <v type="int" >        2       92       93       95      100 </v>
   <v type="int" >        2       88       92       93       95 </v>
   <v type="int" >        2       92       95       96       99 </v>
   <v type="int" >        2       89       92       95       96 </v>
   <v type="int" >        2       88       89       92       95 </v>
   <v type="int" >        2       93       94       94      100 </v>
   <v type="int" >        2       87       93       94       94 </v>
   <v type="int" >        2       87       87       93       94 </v>
   <v type="int" >        2       93       94       95      100 </v>
   <v type="int" >        2       88       93       94       95 </v>
   <v type="int" >        2       87       88       93       94 </v>
  </varray>
  <i name="volumeweight">      0.00056689 </i>
 </kpoints>
 <parameters>
  <separator name="general" >
   <i type="string" name="SYSTEM">Ir_Ru</i>
   <i type="logical" name="LCOMPAT"> F  </i>
  </separator>
  <separator name="electronic" >
   <i type="string" name="PREC">accura</i>
   <i name="ENMAX">    213.27600000</i>
   <i name="ENAUG">    333.49400000</i>
   <i name="EDIFF">      0.00010000</i>
   <i type="int" name="IALGO">    48</i>
   <i type="int" name="IWAVPR">    10</i>
   <i type="int" name="NBANDS">   192</i>
   <i name="NELECT">    272.00000000</i>
   <i type="int" name="TURBO">     0</i>
   <i type="int" name="IRESTART">     0</i>
   <i type="int" name="NREBOOT">     0</i>
   <i type="int" name="NMIN">     0</i>
   <i name="EREF">      0.00000000</i>
   <separator name="electronic smearing" >
    <i type="int" name="ISMEAR">    -5</i>
    <i name="SIGMA">      0.10000000</i>
    <i name="KSPACING">      0.50000000</i>
    <i type="logical" name="KGAMMA"> T  </i>
   </separator>
   <separator name="electronic projectors" >
    <i type="logical" name="LREAL"> F  </i>
    <v name="ROPT">      0.00000000      0.00000000</v>
    <i type="int" name="LMAXPAW">  -100</i>
    <i type="int" name="LMAXMIX">     2</i>
    <i type="logical" name="NLSPLINE"> F  </i>
   </separator>
   <separator name="electronic startup" >
    <i type="int" name="ISTART">     0</i>
    <i type="int" name="ICHARG">     2</i>
    <i type="int" name="INIWAV">     1</i>
   </separator>
   <separator name="electronic spin" >
    <i type="int" name="ISPIN">     1</i>
    <i type="logical" name="LNONCOLLINEAR"> F  </i>
    <v name="MAGMOM">      1.00000000      1.00000000      1.00000000      1.00000000      1.00000000      1.00000000      1.00000000      1.00000000      1.00000000      1.00000000      1.00000000      1.00000000      1.00000000      1.00000000      1.00000000      1.00000000      1.00000000      1.00000000      1.00000000      1.00000000
      1.00000000      1.00000000      1.00000000      1.00000000      1.00000000      1.00000000      1.00000000      1.00000000      1.00000000      1.00000000      1.00000000      1.00000000</v>
    <i name="NUPDOWN">     -1.00000000</i>
    <i type="logical" name="LSORBIT"> F  </i>
    <v name="SAXIS">      0.00000000      0.00000000      1.00000000</v>
    <i type="logical" name="LSPIRAL"> F  </i>
    <v name="QSPIRAL">      0.00000000      0.00000000      0.00000000</v>
    <i type="logical" name="LZEROZ"> F  </i>
   </separator>
   <separator name="electronic exchange-correlation" >
    <i type="logical" name="LASPH"> F  </i>
    <i type="logical" name="LMETAGGA"> F  </i>
   </separator>
   <separator name="electronic convergence" >
    <i type="int" name="NELM">    60</i>
    <i type="int" name="NELMDL">   -12</i>
    <i type="int" name="NELMIN">     5</i>
    <i name="ENINI">    213.27600000</i>
    <separator name="electronic convergence detail" >
     <i type="logical" name="LDIAG"> T  </i>
     <i type="logical" name="LSUBROT"> F  </i>
     <i name="WEIMIN">      0.00000000</i>
     <i name="EBREAK">      0.00000000</i>
     <i name="DEPER">      0.30000000</i>
     <i type="int" name="NRMM">     4</i>
     <i name="TIME">      0.40000000</i>
    </separator>
   </separator>
   <separator name="electronic mixer" >
    <i name="AMIX">      0.40000000</i>
    <i name="BMIX">      1.00000000</i>
    <i name="AMIN">      0.10000000</i>
    <i name="AMIX_MAG">      1.60000000</i>
    <i name="BMIX_MAG">      1.00000000</i>
    <separator name="electronic mixer details" >
     <i type="int" name="IMIX">     4</i>
     <i type="logical" name="MIXFIRST"> F  </i>
     <i type="int" name="MAXMIX">   -45</i>
     <i name="WC">    100.00000000</i>
     <i type="int" name="INIMIX">     1</i>
     <i type="int" name="MIXPRE">     1</i>
     <i type="int" name="MREMOVE">     5</i>
    </separator>
   </separator>
   <separator name="electronic dipolcorrection" >
    <i type="logical" name="LDIPOL"> F  </i>
    <i type="logical" name="LMONO"> F  </i>
    <i type="int" name="IDIPOL">     0</i>
    <i name="EPSILON">      1.00000000</i>
    <v name="DIPOL">   -100.00000000   -100.00000000   -100.00000000</v>
    <i name="EFIELD">      0.00000000</i>
   </separator>
  </separator>
  <separator name="grids" >
   <i type="int" name="NGX">    28</i>
   <i type="int" name="NGY">    42</i>
   <i type="int" name="NGZ">    54</i>
   <i type="int" name="NGXF">    56</i>
   <i type="int" name="NGYF">    84</i>
   <i type="int" name="NGZF">   108</i>
   <i type="logical" name="ADDGRID"> F  </i>
  </separator>
  <separator name="ionic" >
   <i type="int" name="NSW">     0</i>
   <i type="int" name="IBRION">    -1</i>
   <i type="int" name="ISIF">     2</i>
   <i name="PSTRESS">      0.00000000</i>
   <i name="EDIFFG">      0.00001000</i>
   <i type="int" name="NFREE">     0</i>
   <i name="POTIM">      0.50000000</i>
   <i name="SMASS">     -3.00000000</i>
   <i name="SCALEE">      1.00000000</i>
  </separator>
  <separator name="ionic md" >
   <i name="TEBEG">      0.00010000</i>
   <i name="TEEND">      0.00010000</i>
   <i type="int" name="NBLOCK">     1</i>
   <i type="int" name="KBLOCK">     1</i>
   <i type="int" name="NPACO">   256</i>
   <i name="APACO">     16.00000000</i>
  </separator>
  <separator name="symmetry" >
   <i type="int" name="ISYM">     2</i>
   <i name="SYMPREC">      0.00001000</i>
  </separator>
  <separator name="dos" >
   <i type="logical" name="LORBIT"> F  </i>
   <v name="RWIGS">     -1.00000000     -1.00000000</v>
   <i type="int" name="NEDOS">   301</i>
   <i name="EMIN">     10.00000000</i>
   <i name="EMAX">    -10.00000000</i>
   <i name="EFERMI">      0.00000000</i>
  </separator>
  <separator name="writing" >
   <i type="int" name="NWRITE">     2</i>
   <i type="logical" name="LWAVE"> T  </i>
   <i type="logical" name="LCHARG"> T  </i>
   <i type="logical" name="LPARD"> F  </i>
   <i type="logical" name="LVTOT"> F  </i>
   <i type="logical" name="LVHAR"> F  </i>
   <i type="logical" name="LELF"> F  </i>
   <i type="logical" name="LOPTICS"> F  </i>
   <v name="STM">      0.00000000      0.00000000      0.00000000      0.00000000      0.00000000      0.00000000      0.00000000</v>
  </separator>
  <separator name="performance" >
   <i type="int" name="NPAR">    64</i>
   <i type="int" name="NSIM">     4</i>
   <i type="int" name="NBLK">    -1</i>
   <i type="logical" name="LPLANE"> T  </i>
   <i type="logical" name="LSCALAPACK"> T  </i>
   <i type="logical" name="LSCAAWARE"> T  </i>
   <i type="logical" name="LSCALU"> F  </i>
   <i type="logical" name="LASYNC"> F  </i>
   <i type="logical" name="LORBITALREAL"> F  </i>
  </separator>
  <separator name="miscellaneous" >
   <i type="int" name="IDIOT">     3</i>
   <i type="logical" name="LMUSIC"> F  </i>
   <v name="POMASS">    192.22000000    101.07000000</v>
   <v name="DARWINR">      0.00000000      0.00000000</v>
   <v name="DARWINV">      1.00000000      1.00000000</v>
   <i type="logical" name="LCORR"> T  </i>
  </separator>
  <i type="logical" name="GGA_COMPAT"> T  </i>
  <i type="logical" name="LBERRY"> F  </i>
  <i type="int" name="ICORELEVEL">     0</i>
  <i type="logical" name="LDAU"> F  </i>
  <i type="int" name="I_CONSTRAINED_M">     0</i>
  <separator name="electronic exchange-correlation" >
   <i type="string" name="GGA">--</i>
   <i type="int" name="VOSKOWN">     0</i>
   <i type="logical" name="LHFCALC"> F  </i>
   <i type="string" name="PRECFOCK"></i>
   <i type="logical" name="LSYMGRAD"> F  </i>
   <i type="logical" name="LHFONE"> F  </i>
   <i type="logical" name="LRHFCALC"> F  </i>
   <i type="logical" name="LTHOMAS"> F  </i>
   <i type="logical" name="LMODELHF"> F  </i>
   <i name="ENCUT4O">     -1.00000000</i>
   <i type="int" name="EXXOEP">     0</i>
   <i type="int" name="FOURORBIT">     0</i>
   <i name="AEXX">      0.00000000</i>
   <i name="HFALPHA">      0.00000000</i>
   <i name="MCALPHA">      0.00000000</i>
   <i name="ALDAX">      1.00000000</i>
   <i name="AGGAX">      1.00000000</i>
   <i name="ALDAC">      1.00000000</i>
   <i name="AGGAC">      1.00000000</i>
   <i type="int" name="NKREDX">     1</i>
   <i type="int" name="NKREDY">     1</i>
   <i type="int" name="NKREDZ">     1</i>
   <i type="logical" name="SHIFTRED"> F  </i>
   <i type="logical" name="ODDONLY"> F  </i>
   <i type="logical" name="EVENONLY"> F  </i>
   <i type="int" name="LMAXFOCK">     0</i>
   <i type="int" name="NMAXFOCKAE">     0</i>
   <i type="logical" name="LFOCKAEDFT"> F  </i>
   <i name="HFSCREEN">      0.00000000</i>
   <i name="HFSCREENC">      0.00000000</i>
   <i type="int" name="NBANDSGWLOW">     0</i>
  </separator>
  <separator name="vdW DFT" >
   <i type="logical" name="LUSE_VDW"> F  </i>
   <i name="Zab_VDW">     -0.84910000</i>
   <i name="PARAM1">      0.12340000</i>
   <i name="PARAM2">      1.00000000</i>
   <i name="PARAM3">      0.00000000</i>
[...]
       <r>    9.6248   -0.0449 </r>
       <r>    9.6619   -0.0424 </r>
       <r>    9.6919   -0.0059 </r>
       <r>    9.6971   -0.0041 </r>
       <r>    9.7960    0.0000 </r>
       <r>    9.8348    0.0000 </r>
       <r>    9.8795    0.0000 </r>
       <r>    9.8920    0.0000 </r>
       <r>    9.9192    0.0000 </r>
       <r>    9.9421    0.0000 </r>
       <r>    9.9862    0.0000 </r>
       <r>   10.0274    0.0000 </r>
       <r>   10.0466    0.0000 </r>
       <r>   10.0871    0.0000 </r>
       <r>   10.1009    0.0000 </r>
       <r>   10.1681    0.0000 </r>
       <r>   10.2061    0.0000 </r>
       <r>   10.2071    0.0000 </r>
       <r>   10.2195    0.0000 </r>
       <r>   10.2379    0.0000 </r>
       <r>   10.2659    0.0000 </r>
       <r>   10.2984    0.0000 </r>
       <r>   10.3248    0.0000 </r>
       <r>   10.3600    0.0000 </r>
       <r>   10.5909    0.0000 </r>
       <r>   10.6290    0.0000 </r>
       <r>   10.6882    0.0000 </r>
       <r>   10.7143    0.0000 </r>
       <r>   10.7157    0.0000 </r>
       <r>   10.7485    0.0000 </r>
       <r>   11.0019    0.0000 </r>
       <r>   11.0056    0.0000 </r>
       <r>   11.0782    0.0000 </r>
       <r>   11.0798    0.0000 </r>
       <r>   11.1969    0.0000 </r>
       <r>   11.2208    0.0000 </r>
       <r>   11.3057    0.0000 </r>
       <r>   11.3108    0.0000 </r>
       <r>   11.7254    0.0000 </r>
       <r>   11.7637    0.0000 </r>
       <r>   13.2120    0.0000 </r>
       <r>   13.3089    0.0000 </r>
       <r>   13.6734    0.0000 </r>
       <r>   13.7959    0.0000 </r>
       <r>   14.1421    0.0000 </r>
       <r>   14.3102    0.0000 </r>
       <r>   14.3478    0.0000 </r>
       <r>   14.4332    0.0000 </r>
       <r>   14.5382    0.0000 </r>
       <r>   14.6046    0.0000 </r>
       <r>   14.7046    0.0000 </r>
       <r>   14.7209    0.0000 </r>
       <r>   14.8326    0.0000 </r>
       <r>   14.8469    0.0000 </r>
       <r>   14.9465    0.0000 </r>
       <r>   18.3088    0.0000 </r>
      </set>
     </set>
    </set>
   </array>
  </eigenvalues>
  <separator name="orbital magnetization" >
   <v name="MAGDIPOLOUT">      0.00000000      0.00000000      0.00000000</v>
  </separator>
  <dos>
   <i name="efermi">      9.46125901 </i>
   <total>
    <array>
     <dimension dim="1">gridpoints</dimension>
     <dimension dim="2">spin</dimension>
     <field>energy</field>
     <field>total</field>
     <field>integrated</field>
     <set>
      <set comment="spin 1">
       <r>    -1.3028     0.0000     0.0000 </r>
       <r>    -1.2296     0.0000     0.0000 </r>
       <r>    -1.1564     0.0000     0.0000 </r>
       <r>    -1.0831     0.0000     0.0000 </r>
       <r>    -1.0099     0.0000     0.0000 </r>
       <r>    -0.9367     0.0000     0.0000 </r>
       <r>    -0.8635     0.0000     0.0000 </r>
       <r>    -0.7903     0.0000     0.0000 </r>
       <r>    -0.7171     0.0000     0.0000 </r>
       <r>    -0.6438     0.0000     0.0000 </r>
       <r>    -0.5706     0.0000     0.0000 </r>
       <r>    -0.4974     0.0000     0.0000 </r>
       <r>    -0.4242     0.0000     0.0000 </r>
       <r>    -0.3510     0.0000     0.0000 </r>
       <r>    -0.2778     0.0422     0.0004 </r>
       <r>    -0.2045     0.4801     0.0186 </r>
       <r>    -0.1313     0.8535     0.0682 </r>
       <r>    -0.0581     1.0332     0.1373 </r>
       <r>     0.0151     1.2845     0.2219 </r>
       <r>     0.0883     1.6034     0.3269 </r>
       <r>     0.1615     1.9698     0.4614 </r>
       <r>     0.2348     1.9066     0.6054 </r>
       <r>     0.3080     1.7714     0.7387 </r>
       <r>     0.3812     1.7816     0.8670 </r>
       <r>     0.4544     1.9587     1.0063 </r>
       <r>     0.5276     1.9606     1.1511 </r>
       <r>     0.6008     2.2008     1.3005 </r>
       <r>     0.6741     2.5894     1.4741 </r>
       <r>     0.7473     2.9672     1.6765 </r>
       <r>     0.8205     3.5915     1.9187 </r>
       <r>     0.8937     3.2688     2.1646 </r>
       <r>     0.9669     3.0951     2.3978 </r>
       <r>     1.0401     3.0676     2.6229 </r>
       <r>     1.1134     2.8254     2.8530 </r>
       <r>     1.1866     2.3055     3.0370 </r>
       <r>     1.2598     2.0265     3.1923 </r>
       <r>     1.3330     2.3825     3.3632 </r>
       <r>     1.4062     2.7551     3.5517 </r>
       <r>     1.4795     2.9180     3.7647 </r>
       <r>     1.5527     3.7191     3.9953 </r>
       <r>     1.6259     4.0698     4.2792 </r>
       <r>     1.6991     3.9468     4.5742 </r>
       <r>     1.7723     4.1779     4.8623 </r>
       <r>     1.8455     5.9162     5.2379 </r>
       <r>     1.9188     7.9919     5.7396 </r>
       <r>     1.9920     8.5159     6.4357 </r>
       <r>     2.0652     6.6657     6.9847 </r>
       <r>     2.1384     8.7640     7.5338 </r>
       <r>     2.2116    11.2289     8.2846 </r>
       <r>     2.2848    17.5705     9.3194 </r>
       <r>     2.3581    21.5411    10.7544 </r>
       <r>     2.4313    19.2962    12.1646 </r>
       <r>     2.5045    19.0432    13.5377 </r>
       <r>     2.5777    18.2803    14.9193 </r>
       <r>     2.6509    22.6596    16.3215 </r>
       <r>     2.7241    27.1258    18.2716 </r>
       <r>     2.7974    29.8480    20.3242 </r>
       <r>     2.8706    25.6425    22.4386 </r>
       <r>     2.9438    28.5272    24.4374 </r>
       <r>     3.0170    28.5233    26.6101 </r>
       <r>     3.0902    35.1683    28.8154 </r>
       <r>     3.1634    38.1266    31.5153 </r>
       <r>     3.2367    42.9420    34.3916 </r>
       <r>     3.3099    38.0092    37.3351 </r>
       <r>     3.3831    40.0056    40.2124 </r>
       <r>     3.4563    42.6326    43.2541 </r>
       <r>     3.5295    41.3551    46.3018 </r>
       <r>     3.6028    37.7314    49.2395 </r>
       <r>     3.6760    37.0221    52.0359 </r>
       <r>     3.7492    39.8340    54.8955 </r>
       <r>     3.8224    37.5043    57.6568 </r>
       <r>     3.8956    38.9778    60.4430 </r>
       <r>     3.9688    36.7039    63.1781 </r>
       <r>     4.0421    34.1762    65.7268 </r>
       <r>     4.1153    30.9204    68.2260 </r>
       <r>     4.1885    34.0379    70.5063 </r>
       <r>     4.2617    32.9412    72.9618 </r>
       <r>     4.3349    39.6194    75.8698 </r>
       <r>     4.4081    44.9896    78.8830 </r>
       <r>     4.4814    43.6043    82.1151 </r>
       <r>     4.5546    37.8754    84.9978 </r>
       <r>     4.6278    30.8551    87.5134 </r>
       <r>     4.7010    39.1833    89.9488 </r>
       <r>     4.7742    43.5514    93.0926 </r>
       <r>     4.8474    46.8756    96.4336 </r>
       <r>     4.9207    40.4990    99.3932 </r>
       <r>     4.9939    42.4240   102.4047 </r>
       <r>     5.0671    44.1462   105.6193 </r>
       <r>     5.1403    45.2971   108.8974 </r>
       <r>     5.2135    40.7675   112.1394 </r>
       <r>     5.2867    34.2835   114.8835 </r>
       <r>     5.3600    30.2621   117.3667 </r>
       <r>     5.4332    27.9284   119.3848 </r>
       <r>     5.5064    22.0245   121.1405 </r>
       <r>     5.5796    23.1590   122.8031 </r>
       <r>     5.6528    36.8869   125.0187 </r>
       <r>     5.7261    47.9257   128.1406 </r>
       <r>     5.7993    51.7899   131.9705 </r>
       <r>     5.8725    49.0688   135.5711 </r>
       <r>     5.9457    53.1508   139.3403 </r>
       <r>     6.0189    49.2260   143.0976 </r>
       <r>     6.0921    49.7319   146.6427 </r>
       <r>     6.1654    44.2144   150.3034 </r>
       <r>     6.2386    44.0938   153.6915 </r>
       <r>     6.3118    46.0102   156.9024 </r>
       <r>     6.3850    45.6791   160.2293 </r>
       <r>     6.4582    45.9223   163.5164 </r>
       <r>     6.5314    54.3064   167.1076 </r>
       <r>     6.6047    52.1593   171.1395 </r>
       <r>     6.6779    50.5319   175.0928 </r>
       <r>     6.7511    52.6543   178.7704 </r>
       <r>     6.8243    52.4941   182.6102 </r>
       <r>     6.8975    46.2423   186.2521 </r>
       <r>     6.9707    48.6010   189.6182 </r>
       <r>     7.0440    44.8552   193.0267 </r>
       <r>     7.1172    49.1664   196.4272 </r>
       <r>     7.1904    51.7212   200.1841 </r>
       <r>     7.2636    54.0838   204.0068 </r>
       <r>     7.3368    49.5532   207.7978 </r>
       <r>     7.4100    45.1465   211.2218 </r>
       <r>     7.4833    44.8406   214.6308 </r>
       <r>     7.5565    39.5974   217.7400 </r>
       <r>     7.6297    31.0067   220.2283 </r>
       <r>     7.7029    33.8049   222.5819 </r>
       <r>     7.7761    33.1731   225.1219 </r>
       <r>     7.8494    31.5230   227.6367 </r>
       <r>     7.9226    30.8959   229.9087 </r>
       <r>     7.9958    31.1382   232.1680 </r>
       <r>     8.0690    32.6463   234.5064 </r>
       <r>     8.1422    32.4402   236.8940 </r>
       <r>     8.2154    28.6495   239.1248 </r>
       <r>     8.2887    30.5226   241.2043 </r>
       <r>     8.3619    29.1536   243.2975 </r>
       <r>     8.4351    31.4959   245.5427 </r>
       <r>     8.5083    26.8595   247.6845 </r>
       <r>     8.5815    22.3984   249.4166 </r>
       <r>     8.6547    22.2509   250.9838 </r>
       <r>     8.7280    23.9294   252.6511 </r>
       <r>     8.8012    28.0358   254.6976 </r>
       <r>     8.8744    22.9596   256.6425 </r>
       <r>     8.9476    25.2749   258.4349 </r>
       <r>     9.0208    25.2374   260.2902 </r>
       <r>     9.0940    25.6570   262.1778 </r>
       <r>     9.1673    26.2516   264.0734 </r>
       <r>     9.2405    26.9325   266.0125 </r>
       <r>     9.3137    29.0732   268.0660 </r>
       <r>     9.3869    25.7518   270.0712 </r>
       <r>     9.4601    27.4385   271.9690 </r>
       <r>     9.5333    34.2921   274.1742 </r>
       <r>     9.6066    38.7776   276.8414 </r>
       <r>     9.6798    40.9252   279.8398 </r>
       <r>     9.7530    38.3774   282.7924 </r>
       <r>     9.8262    40.7405   285.6129 </r>
       <r>     9.8994    40.9189   288.6448 </r>
       <r>     9.9727    41.0456   291.5461 </r>
       <r>    10.0459    49.1334   294.7946 </r>
       <r>    10.1191    51.0117   298.5331 </r>
       <r>    10.1923    53.3755   302.2875 </r>
       <r>    10.2655    55.8440   306.3857 </r>
       <r>    10.3387    58.3730   310.7227 </r>
       <r>    10.4120    65.2730   315.1617 </r>
       <r>    10.4852    66.6383   320.0415 </r>
       <r>    10.5584    66.6712   324.9830 </r>
       <r>    10.6316    53.7756   329.5787 </r>
       <r>    10.7048    37.8080   332.8967 </r>
       <r>    10.7780    33.3289   335.5449 </r>
       <r>    10.8513    13.6229   337.0953 </r>
       <r>    10.9245    14.0140   338.1191 </r>
       <r>    10.9977    11.2081   339.0501 </r>
       <r>    11.0709     9.9853   339.8403 </r>
       <r>    11.1441     9.8099   340.5413 </r>
       <r>    11.2173     8.5432   341.2093 </r>
       <r>    11.2906     8.9295   341.8420 </r>
       <r>    11.3638     8.5373   342.5121 </r>
       <r>    11.4370     8.8521   343.1376 </r>
       <r>    11.5102     9.2449   343.8095 </r>
       <r>    11.5834     9.4564   344.4932 </r>
       <r>    11.6566     9.4254   345.1911 </r>
       <r>    11.7299     9.3289   345.8745 </r>
       <r>    11.8031     8.4530   346.5337 </r>
       <r>    11.8763     8.5636   347.1543 </r>
       <r>    11.9495     8.5103   347.7953 </r>
       <r>    12.0227     8.3056   348.4084 </r>
       <r>    12.0959     8.2154   349.0132 </r>
       <r>    12.1692     8.8404   349.6307 </r>
       <r>    12.2424     8.6547   350.2760 </r>
       <r>    12.3156     9.0851   350.9145 </r>
       <r>    12.3888     9.3443   351.5661 </r>
       <r>    12.4620     8.5742   352.2197 </r>
       <r>    12.5353     8.6876   352.8401 </r>
       <r>    12.6085     8.2032   353.4594 </r>
       <r>    12.6817     8.0928   354.0533 </r>
       <r>    12.7549     7.6120   354.6307 </r>
       <r>    12.8281     7.5897   355.1858 </r>
       <r>    12.9013     8.6718   355.8018 </r>
       <r>    12.9746     8.2823   356.4135 </r>
       <r>    13.0478     7.8765   357.0155 </r>
       <r>    13.1210     7.0095   357.5445 </r>
       <r>    13.1942     7.4449   358.0801 </r>
       <r>    13.2674     6.7710   358.6139 </r>
       <r>    13.3406     6.9352   359.1102 </r>
       <r>    13.4139     7.4223   359.6400 </r>
       <r>    13.4871     7.8346   360.2079 </r>
       <r>    13.5603     7.8889   360.7737 </r>
       <r>    13.6335     8.0351   361.3560 </r>
       <r>    13.7067     7.8865   361.9406 </r>
       <r>    13.7799     7.8504   362.5197 </r>
       <r>    13.8532     7.6166   363.0859 </r>
       <r>    13.9264     6.7710   363.6109 </r>
       <r>    13.9996     6.9671   364.1079 </r>
       <r>    14.0728     6.9615   364.6197 </r>
       <r>    14.1460     7.0273   365.1251 </r>
       <r>    14.2192     7.6618   365.6597 </r>
       <r>    14.2925     7.3655   366.2076 </r>
       <r>    14.3657     7.1063   366.7377 </r>
       <r>    14.4389     7.1843   367.2638 </r>
       <r>    14.5121     8.0989   367.8389 </r>
       <r>    14.5853     6.6239   368.3504 </r>
       <r>    14.6586     6.2795   368.8287 </r>
       <r>    14.7318     6.9924   369.3073 </r>
       <r>    14.8050     7.2754   369.8336 </r>
       <r>    14.8782     7.3425   370.3686 </r>
       <r>    14.9514     7.6990   370.9188 </r>
       <r>    15.0246     8.6168   371.5319 </r>
       <r>    15.0979     8.5627   372.1597 </r>
       <r>    15.1711     8.5090   372.7946 </r>
       <r>    15.2443     7.9187   373.3895 </r>
       <r>    15.3175     7.5756   373.9585 </r>
       <r>    15.3907     6.6647   374.4873 </r>
       <r>    15.4639     5.7596   374.9351 </r>
       <r>    15.5372     5.4709   375.3432 </r>
       <r>    15.6104     5.4541   375.7441 </r>
       <r>    15.6836     5.4118   376.1399 </r>
       <r>    15.7568     5.7342   376.5478 </r>
       <r>    15.8300     5.8872   376.9751 </r>
       <r>    15.9032     5.9474   377.4147 </r>
       <r>    15.9765     5.7222   377.8347 </r>
       <r>    16.0497     5.4073   378.2469 </r>
       <r>    16.1229     5.2758   378.6368 </r>
       <r>    16.1961     5.0119   379.0136 </r>
       <r>    16.2693     4.8958   379.3780 </r>
       <r>    16.3425     4.5660   379.7242 </r>
       <r>    16.4158     4.6259   380.0575 </r>
       <r>    16.4890     4.2535   380.3832 </r>
       <r>    16.5622     3.4113   380.6645 </r>
       <r>    16.6354     3.0597   380.8992 </r>
       <r>    16.7086     2.9320   381.1177 </r>
       <r>    16.7819     2.8143   381.3278 </r>
       <r>    16.8551     2.7604   381.5314 </r>
       <r>    16.9283     2.7038   381.7345 </r>
       <r>    17.0015     2.6940   381.9277 </r>
       <r>    17.0747     2.8726   382.1326 </r>
       <r>    17.1479     2.7414   382.3401 </r>
       <r>    17.2212     2.4959   382.5308 </r>
       <r>    17.2944     2.1484   382.6983 </r>
       <r>    17.3676     1.8736   382.8437 </r>
       <r>    17.4408     1.9920   382.9847 </r>
       <r>    17.5140     1.8851   383.1298 </r>
       <r>    17.5872     1.5871   383.2574 </r>
       <r>    17.6605     1.3109   383.3625 </r>
       <r>    17.7337     1.1777   383.4541 </r>
       <r>    17.8069     0.9937   383.5346 </r>
       <r>    17.8801     0.8079   383.6002 </r>
       <r>    17.9533     0.6730   383.6534 </r>
       <r>    18.0265     0.6288   383.7007 </r>
       <r>    18.0998     0.6624   383.7471 </r>
       <r>    18.1730     0.5952   383.7934 </r>
       <r>    18.2462     0.5271   383.8344 </r>
       <r>    18.3194     0.4781   383.8714 </r>
       <r>    18.3926     0.3584   383.9022 </r>
       <r>    18.4658     0.2632   383.9247 </r>
       <r>    18.5391     0.1991   383.9415 </r>
       <r>    18.6123     0.1510   383.9542 </r>
       <r>    18.6855     0.1140   383.9639 </r>
       <r>    18.7587     0.0825   383.9711 </r>
       <r>    18.8319     0.0633   383.9763 </r>
       <r>    18.9052     0.0572   383.9807 </r>
       <r>    18.9784     0.0528   383.9847 </r>
       <r>    19.0516     0.0475   383.9884 </r>
       <r>    19.1248     0.0414   383.9917 </r>
       <r>    19.1980     0.0342   383.9944 </r>
       <r>    19.2712     0.0262   383.9966 </r>
       <r>    19.3445     0.0171   383.9982 </r>
       <r>    19.4177     0.0099   383.9992 </r>
       <r>    19.4909     0.0048   383.9997 </r>
       <r>    19.5641     0.0016   383.9999 </r>
       <r>    19.6373     0.0001   384.0000 </r>
       <r>    19.7105     0.0000   384.0000 </r>
       <r>    19.7838     0.0000   384.0000 </r>
       <r>    19.8570     0.0000   384.0000 </r>
       <r>    19.9302     0.0000   384.0000 </r>
       <r>    20.0034     0.0000   384.0000 </r>
       <r>    20.0766     0.0000   384.0000 </r>
       <r>    20.1498     0.0000   384.0000 </r>
       <r>    20.2231     0.0000   384.0000 </r>
       <r>    20.2963     0.0000   384.0000 </r>
       <r>    20.3695     0.0000   384.0000 </r>
       <r>    20.4427     0.0000   384.0000 </r>
       <r>    20.5159     0.0000   384.0000 </r>
       <r>    20.5891     0.0000   384.0000 </r>
       <r>    20.6624     0.0000   384.0000 </r>
      </set>
     </set>
    </array>
   </total>
  </dos>
 </calculation>
 <structure name="finalpos" >
  <crystal>
   <varray name="basis" >
    <v>       2.74078272      -4.74946038       0.00000000 </v>
    <v>       0.00000000       0.00000000      -8.70675474 </v>
    <v>      10.97970386       0.00956926       0.00000000 </v>
   </varray>
   <i name="volume">    454.26531418 </i>
   <varray name="rec_basis" >
    <v>       0.00018341      -0.21044439       0.00000000 </v>
    <v>       0.00000000       0.00000000      -0.11485336 </v>
    <v>       0.09103135       0.05253169       0.00000000 </v>
   </varray>
  </crystal>
  <varray name="positions" >
   <v>       0.33521628       0.37229272       0.16606302 </v>
   <v>       0.33189628       0.87785916       0.66687493 </v>
   <v>       0.66749897       0.12617859       0.83354434 </v>
   <v>       0.66771293       0.62385633       0.83338938 </v>
   <v>       0.33362566       0.37308144       0.91533115 </v>
   <v>       0.33118018       0.87732125       0.91777771 </v>
   <v>       0.83118018       0.37267875       0.41777771 </v>
   <v>       0.83362566       0.87691856       0.41533115 </v>
   <v>       0.83189628       0.37214084       0.16687493 </v>
   <v>       0.83521628       0.87770728       0.66606302 </v>
   <v>       0.66824069       0.62753542       0.08304544 </v>
   <v>       0.66480822       0.62278211       0.58385593 </v>
   <v>       0.16749897       0.12382141       0.33354434 </v>
   <v>       0.16771293       0.62614367       0.33338938 </v>
   <v>       0.16480822       0.62721789       0.08385593 </v>
   <v>       0.16824069       0.62246458       0.58304544 </v>
   <v>       0.33168513       0.37230597       0.66700028 </v>
   <v>       0.33503138       0.87754611       0.16628339 </v>
   <v>       0.66532767       0.12383982       0.33351584 </v>
   <v>       0.66539812       0.62617867       0.33352759 </v>
   <v>       0.33409358       0.37252521       0.41701478 </v>
   <v>       0.33509267       0.87703225       0.41600547 </v>
   <v>       0.83509267       0.37296775       0.91600547 </v>
   <v>       0.83409358       0.87747479       0.91701478 </v>
   <v>       0.83503138       0.37245389       0.66628339 </v>
   <v>       0.83168513       0.87769403       0.16700028 </v>
   <v>       0.66832695       0.12281222       0.08299791 </v>
   <v>       0.66486530       0.12670575       0.58377285 </v>
   <v>       0.16532767       0.12616018       0.83351584 </v>
   <v>       0.16539812       0.62382133       0.83352759 </v>
   <v>       0.16486530       0.12329425       0.08377285 </v>
   <v>       0.16832695       0.12718778       0.58299791 </v>
  </varray>
 </structure>
</modeling>
