 256 256   0   0
  0.1419206E+02  0.1537080E-08  0.1537218E-08  0.1537636E-08  0.5000000E-15
  1.000000000000000E-004
  CAR 
 Ir_Ru                                   
     12.68516931     -1.29537329  301      9.24211690      1.00000000
     -1.295  0.0000E+00  0.0000E+00
     -1.249  0.0000E+00  0.0000E+00
     -1.202  0.0000E+00  0.0000E+00
     -1.156  0.0000E+00  0.0000E+00
     -1.109 -0.2753E-28 -0.1283E-29
     -1.062 -0.4109E-25 -0.1916E-26
     -1.016 -0.3955E-22 -0.1845E-23
     -0.969 -0.2456E-19 -0.1147E-20
     -0.923 -0.9843E-17 -0.4598E-18
     -0.876 -0.2469E-14 -0.1155E-15
     -0.829 -0.4095E-12 -0.1920E-13
     -0.783 -0.4374E-10 -0.2057E-11
     -0.736 -0.3010E-08 -0.1423E-09
     -0.690 -0.1335E-06 -0.6365E-08
     -0.643 -0.3826E-05 -0.1846E-06
     -0.596 -0.7097E-04 -0.3492E-05
     -0.550 -0.8549E-03 -0.4333E-04
     -0.503 -0.6690E-02 -0.3551E-03
     -0.457 -0.3360E-01 -0.1921E-02
     -0.410 -0.1021E+00 -0.6680E-02
     -0.363 -0.1377E+00 -0.1310E-01
     -0.317  0.2246E+00 -0.2630E-02
     -0.270  0.1511E+01  0.6780E-01
     -0.224  0.3541E+01  0.2328E+00
     -0.177  0.5072E+01  0.4692E+00
     -0.130  0.5735E+01  0.7365E+00
     -0.084  0.7333E+01  0.1078E+01
     -0.037  0.1020E+02  0.1554E+01
      0.009  0.1102E+02  0.2067E+01
      0.056  0.9151E+01  0.2494E+01
      0.103  0.9393E+01  0.2931E+01
      0.149  0.1317E+02  0.3545E+01
      0.196  0.1592E+02  0.4287E+01
      0.242  0.1605E+02  0.5035E+01
      0.289  0.1674E+02  0.5815E+01
      0.336  0.1850E+02  0.6678E+01
      0.382  0.1834E+02  0.7532E+01
      0.429  0.1744E+02  0.8345E+01
      0.475  0.1984E+02  0.9269E+01
      0.522  0.2340E+02  0.1036E+02
      0.569  0.2407E+02  0.1148E+02
      0.615  0.2227E+02  0.1252E+02
      0.662  0.1871E+02  0.1339E+02
      0.709  0.1407E+02  0.1405E+02
      0.755  0.1114E+02  0.1457E+02
      0.802  0.1071E+02  0.1506E+02
      0.848  0.1111E+02  0.1558E+02
      0.895  0.1211E+02  0.1615E+02
      0.942  0.1460E+02  0.1683E+02
      0.988  0.1833E+02  0.1768E+02
      1.035  0.2289E+02  0.1875E+02
      1.081  0.2810E+02  0.2006E+02
      1.128  0.3128E+02  0.2152E+02
      1.175  0.2977E+02  0.2290E+02
      1.221  0.2592E+02  0.2411E+02
      1.268  0.2306E+02  0.2519E+02
      1.314  0.2094E+02  0.2616E+02
      1.361  0.1999E+02  0.2709E+02
      1.408  0.2159E+02  0.2810E+02
      1.454  0.2406E+02  0.2922E+02
      1.501  0.2565E+02  0.3042E+02
      1.547  0.2893E+02  0.3176E+02
      1.594  0.3504E+02  0.3340E+02
      1.641  0.3869E+02  0.3520E+02
      1.687  0.3783E+02  0.3696E+02
      1.734  0.3922E+02  0.3879E+02
      1.780  0.4548E+02  0.4091E+02
      1.827  0.4935E+02  0.4321E+02
      1.874  0.4786E+02  0.4544E+02
      1.920  0.4732E+02  0.4764E+02
      1.967  0.5090E+02  0.5002E+02
      2.013  0.5407E+02  0.5254E+02
      2.060  0.5541E+02  0.5512E+02
      2.107  0.6131E+02  0.5798E+02
      2.153  0.7453E+02  0.6145E+02
      2.200  0.8941E+02  0.6562E+02
      2.246  0.1031E+03  0.7042E+02
      2.293  0.1178E+03  0.7591E+02
      2.340  0.1310E+03  0.8202E+02
      2.386  0.1383E+03  0.8846E+02
      2.433  0.1433E+03  0.9514E+02
      2.479  0.1524E+03  0.1022E+03
      2.526  0.1610E+03  0.1097E+03
      2.573  0.1617E+03  0.1173E+03
      2.619  0.1612E+03  0.1248E+03
      2.666  0.1688E+03  0.1327E+03
      2.712  0.1784E+03  0.1410E+03
      2.759  0.1848E+03  0.1496E+03
      2.806  0.1978E+03  0.1588E+03
      2.852  0.2229E+03  0.1692E+03
      2.899  0.2476E+03  0.1807E+03
      2.945  0.2562E+03  0.1927E+03
      2.992  0.2496E+03  0.2043E+03
      3.039  0.2467E+03  0.2158E+03
      3.085  0.2621E+03  0.2280E+03
      3.132  0.2865E+03  0.2414E+03
      3.178  0.3011E+03  0.2554E+03
      3.225  0.3035E+03  0.2695E+03
      3.272  0.3047E+03  0.2837E+03
      3.318  0.3082E+03  0.2981E+03
      3.365  0.3110E+03  0.3126E+03
      3.411  0.3142E+03  0.3272E+03
      3.458  0.3214E+03  0.3422E+03
      3.505  0.3330E+03  0.3577E+03
      3.551  0.3438E+03  0.3738E+03
      3.598  0.3468E+03  0.3899E+03
      3.644  0.3449E+03  0.4060E+03
      3.691  0.3486E+03  0.4222E+03
      3.738  0.3575E+03  0.4389E+03
      3.784  0.3591E+03  0.4556E+03
      3.831  0.3522E+03  0.4721E+03
      3.877  0.3478E+03  0.4883E+03
      3.924  0.3497E+03  0.5046E+03
      3.971  0.3507E+03  0.5209E+03
      4.017  0.3417E+03  0.5368E+03
      4.064  0.3231E+03  0.5519E+03
      4.110  0.3069E+03  0.5662E+03
      4.157  0.2976E+03  0.5801E+03
      4.204  0.2875E+03  0.5935E+03
      4.250  0.2713E+03  0.6061E+03
      4.297  0.2537E+03  0.6179E+03
      4.343  0.2427E+03  0.6292E+03
      4.390  0.2452E+03  0.6407E+03
      4.437  0.2576E+03  0.6527E+03
      4.483  0.2618E+03  0.6649E+03
      4.530  0.2508E+03  0.6765E+03
      4.576  0.2476E+03  0.6881E+03
      4.623  0.2669E+03  0.7005E+03
      4.670  0.2917E+03  0.7141E+03
      4.716  0.3067E+03  0.7284E+03
      4.763  0.3137E+03  0.7430E+03
      4.809  0.3136E+03  0.7576E+03
      4.856  0.3050E+03  0.7719E+03
      4.903  0.2902E+03  0.7854E+03
      4.949  0.2786E+03  0.7984E+03
      4.996  0.2811E+03  0.8115E+03
      5.042  0.2950E+03  0.8252E+03
      5.089  0.3076E+03  0.8395E+03
      5.136  0.3092E+03  0.8540E+03
      5.182  0.2978E+03  0.8678E+03
      5.229  0.2858E+03  0.8812E+03
      5.275  0.2846E+03  0.8944E+03
      5.322  0.2904E+03  0.9079E+03
      5.369  0.2972E+03  0.9218E+03
      5.415  0.3018E+03  0.9359E+03
      5.462  0.2987E+03  0.9498E+03
      5.508  0.2890E+03  0.9632E+03
      5.555  0.2868E+03  0.9766E+03
      5.602  0.3027E+03  0.9907E+03
      5.648  0.3214E+03  0.1006E+04
      5.695  0.3252E+03  0.1021E+04
      5.741  0.3201E+03  0.1036E+04
      5.788  0.3199E+03  0.1051E+04
      5.835  0.3262E+03  0.1066E+04
      5.881  0.3367E+03  0.1082E+04
      5.928  0.3501E+03  0.1098E+04
      5.975  0.3653E+03  0.1115E+04
      6.021  0.3789E+03  0.1133E+04
      6.068  0.3854E+03  0.1151E+04
      6.114  0.3876E+03  0.1169E+04
      6.161  0.3918E+03  0.1187E+04
      6.208  0.3987E+03  0.1205E+04
      6.254  0.4095E+03  0.1225E+04
      6.301  0.4271E+03  0.1244E+04
      6.347  0.4464E+03  0.1265E+04
      6.394  0.4572E+03  0.1287E+04
      6.441  0.4571E+03  0.1308E+04
      6.487  0.4531E+03  0.1329E+04
      6.534  0.4500E+03  0.1350E+04
      6.580  0.4456E+03  0.1371E+04
      6.627  0.4390E+03  0.1391E+04
      6.674  0.4316E+03  0.1411E+04
      6.720  0.4247E+03  0.1431E+04
      6.767  0.4169E+03  0.1450E+04
      6.813  0.4017E+03  0.1469E+04
      6.860  0.3769E+03  0.1487E+04
      6.907  0.3545E+03  0.1503E+04
      6.953  0.3443E+03  0.1519E+04
      7.000  0.3392E+03  0.1535E+04
      7.046  0.3277E+03  0.1550E+04
      7.093  0.3149E+03  0.1565E+04
      7.140  0.3135E+03  0.1580E+04
      7.186  0.3194E+03  0.1595E+04
      7.233  0.3135E+03  0.1609E+04
      7.279  0.2877E+03  0.1623E+04
      7.326  0.2561E+03  0.1635E+04
      7.373  0.2402E+03  0.1646E+04
      7.419  0.2486E+03  0.1657E+04
      7.466  0.2710E+03  0.1670E+04
      7.512  0.2846E+03  0.1683E+04
      7.559  0.2765E+03  0.1696E+04
      7.606  0.2585E+03  0.1708E+04
      7.652  0.2483E+03  0.1720E+04
      7.699  0.2571E+03  0.1732E+04
      7.745  0.2828E+03  0.1745E+04
      7.792  0.3054E+03  0.1759E+04
      7.839  0.3120E+03  0.1774E+04
      7.885  0.3089E+03  0.1788E+04
      7.932  0.3031E+03  0.1802E+04
      7.978  0.2960E+03  0.1816E+04
      8.025  0.2910E+03  0.1829E+04
      8.072  0.2958E+03  0.1843E+04
      8.118  0.3093E+03  0.1858E+04
      8.165  0.3171E+03  0.1872E+04
      8.211  0.3177E+03  0.1887E+04
      8.258  0.3297E+03  0.1903E+04
      8.305  0.3535E+03  0.1919E+04
      8.351  0.3624E+03  0.1936E+04
      8.398  0.3400E+03  0.1952E+04
      8.444  0.3002E+03  0.1966E+04
      8.491  0.2671E+03  0.1978E+04
      8.538  0.2557E+03  0.1990E+04
      8.584  0.2708E+03  0.2003E+04
      8.631  0.2955E+03  0.2017E+04
      8.677  0.3003E+03  0.2031E+04
      8.724  0.2841E+03  0.2044E+04
      8.771  0.2676E+03  0.2056E+04
      8.817  0.2570E+03  0.2068E+04
      8.864  0.2491E+03  0.2080E+04
      8.910  0.2451E+03  0.2091E+04
      8.957  0.2452E+03  0.2103E+04
      9.004  0.2533E+03  0.2115E+04
      9.050  0.2733E+03  0.2127E+04
      9.097  0.2841E+03  0.2141E+04
      9.143  0.2662E+03  0.2153E+04
      9.190  0.2409E+03  0.2164E+04
      9.237  0.2283E+03  0.2175E+04
      9.283  0.2199E+03  0.2185E+04
      9.330  0.2138E+03  0.2195E+04
      9.376  0.2218E+03  0.2205E+04
      9.423  0.2424E+03  0.2217E+04
      9.470  0.2622E+03  0.2229E+04
      9.516  0.2735E+03  0.2242E+04
      9.563  0.2772E+03  0.2255E+04
      9.609  0.2762E+03  0.2267E+04
      9.656  0.2710E+03  0.2280E+04
      9.703  0.2611E+03  0.2292E+04
      9.749  0.2440E+03  0.2304E+04
      9.796  0.2243E+03  0.2314E+04
      9.842  0.2195E+03  0.2324E+04
      9.889  0.2364E+03  0.2335E+04
      9.936  0.2640E+03  0.2348E+04
      9.982  0.2950E+03  0.2361E+04
     10.029  0.3272E+03  0.2377E+04
     10.075  0.3492E+03  0.2393E+04
     10.122  0.3464E+03  0.2409E+04
     10.169  0.3240E+03  0.2424E+04
     10.215  0.3102E+03  0.2439E+04
     10.262  0.3290E+03  0.2454E+04
     10.308  0.3869E+03  0.2472E+04
     10.355  0.4663E+03  0.2494E+04
     10.402  0.5187E+03  0.2518E+04
     10.448  0.5093E+03  0.2542E+04
     10.495  0.4505E+03  0.2563E+04
     10.541  0.3738E+03  0.2580E+04
     10.588  0.3018E+03  0.2594E+04
     10.635  0.2480E+03  0.2606E+04
     10.681  0.2123E+03  0.2615E+04
     10.728  0.1806E+03  0.2624E+04
     10.774  0.1417E+03  0.2630E+04
     10.821  0.9725E+02  0.2635E+04
     10.868  0.5679E+02  0.2638E+04
     10.914  0.2768E+02  0.2639E+04
     10.961  0.1076E+02  0.2639E+04
     11.008  0.3149E+01  0.2640E+04
     11.054  0.1332E+01  0.2640E+04
     11.101  0.1690E+01  0.2640E+04
     11.147  0.1582E+01  0.2640E+04
     11.194  0.6874E+00  0.2640E+04
     11.241  0.1573E-01  0.2640E+04
     11.287 -0.1130E+00  0.2640E+04
     11.334 -0.5051E-01  0.2640E+04
     11.380 -0.1113E-01  0.2640E+04
     11.427 -0.4720E-02  0.2640E+04
     11.474 -0.2072E-01  0.2640E+04
     11.520 -0.6515E-01  0.2640E+04
     11.567 -0.4911E-01  0.2640E+04
     11.613  0.3213E+00  0.2640E+04
     11.660  0.1101E+01  0.2640E+04
     11.707  0.1538E+01  0.2640E+04
     11.753  0.1056E+01  0.2640E+04
     11.800  0.2865E+00  0.2640E+04
     11.846 -0.5617E-01  0.2640E+04
     11.893 -0.6244E-01  0.2640E+04
     11.940 -0.1892E-01  0.2640E+04
     11.986 -0.3010E-02  0.2640E+04
     12.033 -0.2818E-03  0.2640E+04
     12.079 -0.1617E-04  0.2640E+04
     12.126 -0.5806E-06  0.2640E+04
     12.173 -0.1318E-07  0.2640E+04
     12.219 -0.1906E-09  0.2640E+04
     12.266 -0.1762E-11  0.2640E+04
     12.312 -0.1042E-13  0.2640E+04
     12.359  0.0000E+00  0.2640E+04
     12.406  0.0000E+00  0.2640E+04
     12.452  0.0000E+00  0.2640E+04
     12.499  0.0000E+00  0.2640E+04
     12.545  0.0000E+00  0.2640E+04
     12.592  0.0000E+00  0.2640E+04
     12.639  0.0000E+00  0.2640E+04
     12.685  0.0000E+00  0.2640E+04
