 256 256   0   0
  0.1418917E+02  0.1588033E-08  0.1692661E-08  0.1693229E-08  0.5000000E-15
  1.000000000000000E-004
  CAR 
 Ir_Ru                                   
     14.29475993     -1.29203856  301      9.45704106      1.00000000
     -1.292  0.0000E+00  0.0000E+00
     -1.240  0.0000E+00  0.0000E+00
     -1.188  0.0000E+00  0.0000E+00
     -1.136 -0.2883E-30 -0.1498E-31
     -1.084 -0.1332E-26 -0.6920E-28
     -1.032 -0.3570E-23 -0.1856E-24
     -0.980 -0.5550E-20 -0.2885E-21
     -0.928 -0.5000E-17 -0.2600E-18
     -0.876 -0.2548E-14 -0.1326E-15
     -0.824 -0.7590E-12 -0.3956E-13
     -0.772 -0.1311E-09 -0.6849E-11
     -0.721 -0.1300E-07 -0.6823E-09
     -0.669 -0.7378E-06 -0.3902E-07
     -0.617 -0.2382E-04 -0.1277E-05
     -0.565 -0.4343E-03 -0.2384E-04
     -0.513 -0.4429E-02 -0.2539E-03
     -0.461 -0.2499E-01 -0.1552E-02
     -0.409 -0.7643E-01 -0.5523E-02
     -0.357 -0.1008E+00 -0.1076E-01
     -0.305  0.2227E+00  0.8146E-03
     -0.253  0.1696E+01  0.8891E-01
     -0.201  0.4472E+01  0.3213E+00
     -0.149  0.6376E+01  0.6525E+00
     -0.097  0.6420E+01  0.9860E+00
     -0.045  0.7005E+01  0.1350E+01
      0.007  0.8930E+01  0.1814E+01
      0.059  0.1126E+02  0.2399E+01
      0.111  0.1368E+02  0.3110E+01
      0.163  0.1430E+02  0.3853E+01
      0.215  0.1158E+02  0.4455E+01
      0.267  0.1012E+02  0.4980E+01
      0.319  0.1453E+02  0.5735E+01
      0.371  0.2053E+02  0.6802E+01
      0.423  0.2254E+02  0.7973E+01
      0.474  0.2274E+02  0.9154E+01
      0.526  0.2353E+02  0.1038E+02
      0.578  0.2243E+02  0.1154E+02
      0.630  0.2042E+02  0.1260E+02
      0.682  0.2106E+02  0.1370E+02
      0.734  0.2018E+02  0.1475E+02
      0.786  0.1422E+02  0.1548E+02
      0.838  0.8673E+01  0.1594E+02
      0.890  0.8081E+01  0.1636E+02
      0.942  0.1195E+02  0.1698E+02
      0.994  0.1934E+02  0.1798E+02
      1.046  0.2828E+02  0.1945E+02
      1.098  0.3349E+02  0.2119E+02
      1.150  0.3293E+02  0.2290E+02
      1.202  0.2852E+02  0.2438E+02
      1.254  0.2256E+02  0.2555E+02
      1.306  0.1945E+02  0.2657E+02
      1.358  0.2193E+02  0.2770E+02
      1.410  0.2748E+02  0.2913E+02
      1.462  0.3044E+02  0.3071E+02
      1.514  0.2980E+02  0.3226E+02
      1.566  0.2939E+02  0.3379E+02
      1.617  0.3048E+02  0.3537E+02
      1.669  0.3111E+02  0.3699E+02
      1.721  0.3217E+02  0.3866E+02
      1.773  0.3530E+02  0.4049E+02
      1.825  0.3944E+02  0.4254E+02
      1.877  0.4611E+02  0.4494E+02
      1.929  0.5532E+02  0.4781E+02
      1.981  0.5934E+02  0.5090E+02
      2.033  0.5422E+02  0.5371E+02
      2.085  0.5066E+02  0.5635E+02
      2.137  0.6323E+02  0.5963E+02
      2.189  0.8897E+02  0.6425E+02
      2.241  0.1100E+03  0.6997E+02
      2.293  0.1202E+03  0.7621E+02
      2.345  0.1262E+03  0.8277E+02
      2.397  0.1320E+03  0.8963E+02
      2.449  0.1381E+03  0.9680E+02
      2.501  0.1483E+03  0.1045E+03
      2.553  0.1660E+03  0.1131E+03
      2.605  0.1841E+03  0.1227E+03
      2.657  0.1956E+03  0.1329E+03
      2.709  0.2081E+03  0.1437E+03
      2.761  0.2249E+03  0.1554E+03
      2.812  0.2305E+03  0.1673E+03
      2.864  0.2241E+03  0.1790E+03
      2.916  0.2290E+03  0.1909E+03
      2.968  0.2469E+03  0.2037E+03
      3.020  0.2586E+03  0.2171E+03
      3.072  0.2600E+03  0.2307E+03
      3.124  0.2606E+03  0.2442E+03
      3.176  0.2645E+03  0.2579E+03
      3.228  0.2742E+03  0.2722E+03
      3.280  0.2898E+03  0.2872E+03
      3.332  0.3093E+03  0.3033E+03
      3.384  0.3254E+03  0.3202E+03
      3.436  0.3306E+03  0.3374E+03
      3.488  0.3271E+03  0.3544E+03
      3.540  0.3208E+03  0.3711E+03
      3.592  0.3182E+03  0.3876E+03
      3.644  0.3162E+03  0.4040E+03
      3.696  0.3103E+03  0.4201E+03
      3.748  0.3047E+03  0.4360E+03
      3.800  0.3007E+03  0.4516E+03
      3.852  0.2963E+03  0.4670E+03
      3.904  0.2930E+03  0.4822E+03
      3.956  0.2877E+03  0.4972E+03
      4.007  0.2746E+03  0.5114E+03
      4.059  0.2664E+03  0.5253E+03
      4.111  0.2776E+03  0.5397E+03
      4.163  0.2956E+03  0.5551E+03
      4.215  0.3028E+03  0.5708E+03
      4.267  0.3054E+03  0.5867E+03
      4.319  0.3130E+03  0.6029E+03
      4.371  0.3192E+03  0.6195E+03
      4.423  0.3216E+03  0.6362E+03
      4.475  0.3238E+03  0.6530E+03
      4.527  0.3200E+03  0.6697E+03
      4.579  0.3077E+03  0.6856E+03
      4.631  0.2961E+03  0.7010E+03
      4.683  0.2938E+03  0.7163E+03
      4.735  0.2992E+03  0.7318E+03
      4.787  0.3072E+03  0.7478E+03
      4.839  0.3198E+03  0.7644E+03
      4.891  0.3326E+03  0.7817E+03
      4.943  0.3383E+03  0.7993E+03
      4.995  0.3469E+03  0.8173E+03
      5.047  0.3599E+03  0.8360E+03
      5.099  0.3660E+03  0.8550E+03
      5.151  0.3636E+03  0.8739E+03
      5.202  0.3530E+03  0.8922E+03
      5.254  0.3305E+03  0.9094E+03
      5.306  0.2964E+03  0.9248E+03
      5.358  0.2545E+03  0.9380E+03
      5.410  0.2120E+03  0.9491E+03
      5.462  0.1808E+03  0.9585E+03
      5.514  0.1734E+03  0.9675E+03
      5.566  0.1943E+03  0.9776E+03
      5.618  0.2348E+03  0.9898E+03
      5.670  0.2840E+03  0.1005E+04
      5.722  0.3335E+03  0.1022E+04
      5.774  0.3733E+03  0.1041E+04
      5.826  0.3985E+03  0.1062E+04
      5.878  0.4123E+03  0.1083E+04
      5.930  0.4205E+03  0.1105E+04
      5.982  0.4268E+03  0.1127E+04
      6.034  0.4275E+03  0.1150E+04
      6.086  0.4125E+03  0.1171E+04
      6.138  0.3876E+03  0.1191E+04
      6.190  0.3694E+03  0.1210E+04
      6.242  0.3599E+03  0.1229E+04
      6.294  0.3548E+03  0.1247E+04
      6.345  0.3577E+03  0.1266E+04
      6.397  0.3719E+03  0.1285E+04
      6.449  0.3828E+03  0.1305E+04
      6.501  0.3845E+03  0.1325E+04
      6.553  0.3944E+03  0.1346E+04
      6.605  0.4133E+03  0.1367E+04
      6.657  0.4255E+03  0.1389E+04
      6.709  0.4281E+03  0.1412E+04
      6.761  0.4238E+03  0.1434E+04
      6.813  0.4098E+03  0.1455E+04
      6.865  0.3878E+03  0.1475E+04
      6.917  0.3712E+03  0.1494E+04
      6.969  0.3660E+03  0.1513E+04
      7.021  0.3635E+03  0.1532E+04
      7.073  0.3712E+03  0.1552E+04
      7.125  0.3967E+03  0.1572E+04
      7.177  0.4175E+03  0.1594E+04
      7.229  0.4226E+03  0.1616E+04
      7.281  0.4217E+03  0.1638E+04
      7.333  0.4095E+03  0.1659E+04
      7.385  0.3818E+03  0.1679E+04
      7.437  0.3539E+03  0.1697E+04
      7.489  0.3379E+03  0.1715E+04
      7.540  0.3319E+03  0.1732E+04
      7.592  0.3274E+03  0.1749E+04
      7.644  0.3131E+03  0.1765E+04
      7.696  0.2911E+03  0.1780E+04
      7.748  0.2749E+03  0.1795E+04
      7.800  0.2676E+03  0.1809E+04
      7.852  0.2627E+03  0.1822E+04
      7.904  0.2558E+03  0.1836E+04
      7.956  0.2465E+03  0.1848E+04
      8.008  0.2427E+03  0.1861E+04
      8.060  0.2430E+03  0.1874E+04
      8.112  0.2375E+03  0.1886E+04
      8.164  0.2301E+03  0.1898E+04
      8.216  0.2295E+03  0.1910E+04
      8.268  0.2345E+03  0.1922E+04
      8.320  0.2383E+03  0.1934E+04
      8.372  0.2391E+03  0.1947E+04
      8.424  0.2357E+03  0.1959E+04
      8.476  0.2264E+03  0.1971E+04
      8.528  0.2165E+03  0.1982E+04
      8.580  0.2110E+03  0.1993E+04
      8.632  0.2057E+03  0.2004E+04
      8.684  0.1979E+03  0.2014E+04
      8.735  0.1893E+03  0.2024E+04
      8.787  0.1816E+03  0.2033E+04
      8.839  0.1801E+03  0.2043E+04
      8.891  0.1929E+03  0.2053E+04
      8.943  0.2196E+03  0.2064E+04
      8.995  0.2377E+03  0.2076E+04
      9.047  0.2340E+03  0.2089E+04
      9.099  0.2197E+03  0.2100E+04
      9.151  0.2018E+03  0.2110E+04
      9.203  0.1832E+03  0.2120E+04
      9.255  0.1809E+03  0.2129E+04
      9.307  0.2051E+03  0.2140E+04
      9.359  0.2342E+03  0.2152E+04
      9.411  0.2435E+03  0.2165E+04
      9.463  0.2430E+03  0.2177E+04
      9.515  0.2454E+03  0.2190E+04
      9.567  0.2437E+03  0.2203E+04
      9.619  0.2504E+03  0.2216E+04
      9.671  0.2857E+03  0.2231E+04
      9.723  0.3256E+03  0.2248E+04
      9.775  0.3347E+03  0.2265E+04
      9.827  0.3230E+03  0.2282E+04
      9.879  0.3155E+03  0.2298E+04
      9.930  0.3161E+03  0.2315E+04
      9.982  0.3256E+03  0.2332E+04
     10.034  0.3519E+03  0.2350E+04
     10.086  0.3901E+03  0.2370E+04
     10.138  0.4188E+03  0.2392E+04
     10.190  0.4307E+03  0.2414E+04
     10.242  0.4388E+03  0.2437E+04
     10.294  0.4533E+03  0.2461E+04
     10.346  0.4728E+03  0.2485E+04
     10.398  0.4904E+03  0.2511E+04
     10.450  0.4977E+03  0.2536E+04
     10.502  0.4826E+03  0.2562E+04
     10.554  0.4368E+03  0.2584E+04
     10.606  0.3729E+03  0.2604E+04
     10.658  0.3009E+03  0.2619E+04
     10.710  0.2112E+03  0.2630E+04
     10.762  0.1095E+03  0.2636E+04
     10.814  0.3096E+02  0.2637E+04
     10.866 -0.2101E+01  0.2637E+04
     10.918 -0.5113E+01  0.2637E+04
     10.970 -0.1836E+01  0.2637E+04
     11.022 -0.3419E+00  0.2637E+04
     11.073 -0.3980E-01  0.2637E+04
     11.125 -0.3185E-02  0.2637E+04
     11.177 -0.1771E-03  0.2637E+04
     11.229 -0.6620E-05  0.2637E+04
     11.281 -0.6723E-05  0.2637E+04
     11.333 -0.1632E-03  0.2637E+04
     11.385 -0.2206E-02  0.2637E+04
     11.437 -0.1530E-01  0.2637E+04
     11.489 -0.4426E-01  0.2637E+04
     11.541  0.2087E-01  0.2637E+04
     11.593  0.4049E+00  0.2637E+04
     11.645  0.8650E+00  0.2637E+04
     11.697  0.7457E+00  0.2637E+04
     11.749  0.2274E+00  0.2637E+04
     11.801 -0.7989E-01  0.2637E+04
     11.853 -0.1687E+00  0.2637E+04
     11.905  0.1115E+00  0.2637E+04
     11.957  0.1319E+01  0.2637E+04
     12.009  0.2569E+01  0.2637E+04
     12.061  0.2125E+01  0.2637E+04
     12.113  0.9378E+00  0.2637E+04
     12.165  0.7369E+00  0.2638E+04
     12.217  0.1625E+01  0.2638E+04
     12.268  0.3169E+01  0.2638E+04
     12.320  0.3755E+01  0.2638E+04
     12.372  0.2766E+01  0.2638E+04
     12.424  0.2006E+01  0.2638E+04
     12.476  0.1981E+01  0.2638E+04
     12.528  0.1925E+01  0.2638E+04
     12.580  0.2163E+01  0.2639E+04
     12.632  0.2912E+01  0.2639E+04
     12.684  0.3905E+01  0.2639E+04
     12.736  0.4296E+01  0.2639E+04
     12.788  0.3265E+01  0.2639E+04
     12.840  0.2349E+01  0.2639E+04
     12.892  0.2356E+01  0.2640E+04
     12.944  0.1995E+01  0.2640E+04
     12.996  0.1287E+01  0.2640E+04
     13.048  0.9799E+00  0.2640E+04
     13.100  0.8832E+00  0.2640E+04
     13.152  0.8657E+00  0.2640E+04
     13.204  0.9061E+00  0.2640E+04
     13.256  0.9015E+00  0.2640E+04
     13.308  0.9306E+00  0.2640E+04
     13.360  0.6641E+00  0.2640E+04
     13.412  0.1825E+00  0.2640E+04
     13.463 -0.3700E-01  0.2640E+04
     13.515 -0.3285E-01  0.2640E+04
     13.567 -0.7456E-02  0.2640E+04
     13.619 -0.8031E-03  0.2640E+04
     13.671 -0.4587E-04  0.2640E+04
     13.723 -0.1448E-05  0.2640E+04
     13.775 -0.2575E-07  0.2640E+04
     13.827 -0.2608E-09  0.2640E+04
     13.879 -0.1514E-11  0.2640E+04
     13.931 -0.5223E-14  0.2640E+04
     13.983  0.0000E+00  0.2640E+04
     14.035  0.0000E+00  0.2640E+04
     14.087  0.0000E+00  0.2640E+04
     14.139  0.0000E+00  0.2640E+04
     14.191  0.0000E+00  0.2640E+04
     14.243  0.0000E+00  0.2640E+04
     14.295  0.0000E+00  0.2640E+04
