 480 480   0   0
  0.1378350E+02  0.3502954E-08  0.3502954E-08  0.3502954E-08  0.5000000E-15
  1.000000000000000E-004
  CAR 
 Ir_Ru                                   
    201.50923239    -18.55187055  301     28.80401265      1.00000000
    -18.552  0.0000E+00  0.0000E+00
    -17.818  0.0000E+00  0.0000E+00
    -17.085  0.0000E+00  0.0000E+00
    -16.351  0.0000E+00  0.0000E+00
    -15.618  0.0000E+00  0.0000E+00
    -14.884  0.0000E+00  0.0000E+00
    -14.151  0.0000E+00  0.0000E+00
    -13.417  0.0000E+00  0.0000E+00
    -12.684  0.0000E+00  0.0000E+00
    -11.950  0.0000E+00  0.0000E+00
    -11.217  0.0000E+00  0.0000E+00
    -10.483  0.0000E+00  0.0000E+00
     -9.749 -0.1172E-61 -0.8597E-62
     -9.016 -0.6844E-09 -0.5021E-09
     -8.282  0.2254E+01  0.1653E+01
     -7.549  0.3011E+01  0.3853E+01
     -6.815  0.5112E+01  0.7586E+01
     -6.082  0.6817E+00  0.8074E+01
     -5.348 -0.3442E-02  0.8072E+01
     -4.615  0.5069E+00  0.8443E+01
     -3.881  0.2034E+00  0.8593E+01
     -3.148 -0.9801-100  0.8593E+01
     -2.414 -0.9800E-27  0.8593E+01
     -1.681  0.2281E-01  0.8609E+01
     -0.947  0.2440E+01  0.1040E+02
     -0.213  0.2153E+02  0.2619E+02
      0.520  0.3595E+02  0.5249E+02
      1.254  0.5418E+02  0.9212E+02
      1.987  0.7965E+02  0.1504E+03
      2.721  0.1243E+03  0.2414E+03
      3.454  0.1574E+03  0.3565E+03
      4.188  0.1513E+03  0.4671E+03
      4.921  0.1076E+03  0.5457E+03
      5.655  0.6280E+02  0.5915E+03
      6.388  0.4000E+02  0.6207E+03
      7.122  0.4170E+02  0.6512E+03
      7.855  0.3655E+02  0.6779E+03
      8.589  0.3702E+02  0.7049E+03
      9.323  0.4144E+02  0.7352E+03
     10.056  0.4583E+02  0.7687E+03
     10.790  0.4126E+02  0.7989E+03
     11.523  0.4981E+02  0.8353E+03
     12.257  0.6568E+02  0.8833E+03
     12.990  0.7456E+02  0.9378E+03
     13.724  0.8537E+02  0.1000E+04
     14.457  0.8488E+02  0.1062E+04
     15.191  0.7640E+02  0.1118E+04
     15.924  0.7905E+02  0.1176E+04
     16.658  0.1068E+03  0.1254E+04
     17.391  0.1331E+03  0.1351E+04
     18.125  0.1514E+03  0.1462E+04
     18.859  0.1664E+03  0.1584E+04
     19.592  0.1777E+03  0.1714E+04
     20.326  0.1841E+03  0.1848E+04
     21.059  0.1830E+03  0.1982E+04
     21.793  0.1841E+03  0.2117E+04
     22.526  0.1869E+03  0.2253E+04
     23.260  0.2143E+03  0.2410E+04
     23.993  0.2261E+03  0.2575E+04
     24.727  0.2565E+03  0.2763E+04
     25.460  0.2724E+03  0.2962E+04
     26.194  0.2858E+03  0.3171E+04
     26.927  0.2814E+03  0.3377E+04
     27.661  0.2618E+03  0.3568E+04
     28.394  0.2402E+03  0.3744E+04
     29.128  0.2297E+03  0.3912E+04
     29.862  0.2001E+03  0.4058E+04
     30.595  0.1768E+03  0.4187E+04
     31.329  0.1482E+03  0.4296E+04
     32.062  0.1144E+03  0.4379E+04
     32.796  0.7577E+02  0.4434E+04
     33.529  0.4599E+02  0.4468E+04
     34.263  0.3176E+02  0.4491E+04
     34.996  0.3136E+02  0.4514E+04
     35.730  0.2762E+02  0.4534E+04
     36.463  0.2517E+02  0.4553E+04
     37.197  0.2219E+02  0.4569E+04
     37.930  0.1042E+02  0.4576E+04
     38.664  0.1048E+02  0.4584E+04
     39.398  0.9003E+01  0.4591E+04
     40.131  0.3680E+01  0.4593E+04
     40.865  0.4229E+01  0.4597E+04
     41.598  0.8907E+00  0.4597E+04
     42.332  0.4615E+01  0.4601E+04
     43.065  0.0000E+00  0.4601E+04
     43.799  0.0000E+00  0.4601E+04
     44.532  0.0000E+00  0.4601E+04
     45.266  0.0000E+00  0.4601E+04
     45.999  0.0000E+00  0.4601E+04
     46.733  0.0000E+00  0.4601E+04
     47.466  0.0000E+00  0.4601E+04
     48.200  0.0000E+00  0.4601E+04
     48.934  0.0000E+00  0.4601E+04
     49.667  0.0000E+00  0.4601E+04
     50.401  0.0000E+00  0.4601E+04
     51.134  0.0000E+00  0.4601E+04
     51.868  0.0000E+00  0.4601E+04
     52.601  0.0000E+00  0.4601E+04
     53.335  0.0000E+00  0.4601E+04
     54.068  0.0000E+00  0.4601E+04
     54.802  0.0000E+00  0.4601E+04
     55.535  0.0000E+00  0.4601E+04
     56.269  0.0000E+00  0.4601E+04
     57.002  0.0000E+00  0.4601E+04
     57.736  0.0000E+00  0.4601E+04
     58.470  0.0000E+00  0.4601E+04
     59.203  0.0000E+00  0.4601E+04
     59.937  0.0000E+00  0.4601E+04
     60.670  0.0000E+00  0.4601E+04
     61.404  0.0000E+00  0.4601E+04
     62.137  0.0000E+00  0.4601E+04
     62.871  0.0000E+00  0.4601E+04
     63.604  0.0000E+00  0.4601E+04
     64.338  0.0000E+00  0.4601E+04
     65.071  0.0000E+00  0.4601E+04
     65.805  0.0000E+00  0.4601E+04
     66.538  0.0000E+00  0.4601E+04
     67.272  0.0000E+00  0.4601E+04
     68.005  0.0000E+00  0.4601E+04
     68.739  0.0000E+00  0.4601E+04
     69.473  0.0000E+00  0.4601E+04
     70.206  0.0000E+00  0.4601E+04
     70.940  0.0000E+00  0.4601E+04
     71.673  0.0000E+00  0.4601E+04
     72.407  0.0000E+00  0.4601E+04
     73.140  0.0000E+00  0.4601E+04
     73.874  0.0000E+00  0.4601E+04
     74.607  0.0000E+00  0.4601E+04
     75.341  0.0000E+00  0.4601E+04
     76.074  0.0000E+00  0.4601E+04
     76.808  0.0000E+00  0.4601E+04
     77.541  0.0000E+00  0.4601E+04
     78.275  0.0000E+00  0.4601E+04
     79.009  0.0000E+00  0.4601E+04
     79.742  0.0000E+00  0.4601E+04
     80.476  0.0000E+00  0.4601E+04
     81.209  0.0000E+00  0.4601E+04
     81.943  0.0000E+00  0.4601E+04
     82.676  0.0000E+00  0.4601E+04
     83.410  0.0000E+00  0.4601E+04
     84.143  0.0000E+00  0.4601E+04
     84.877  0.0000E+00  0.4601E+04
     85.610  0.0000E+00  0.4601E+04
     86.344  0.0000E+00  0.4601E+04
     87.077  0.0000E+00  0.4601E+04
     87.811  0.0000E+00  0.4601E+04
     88.545  0.0000E+00  0.4601E+04
     89.278  0.0000E+00  0.4601E+04
     90.012  0.0000E+00  0.4601E+04
     90.745  0.0000E+00  0.4601E+04
     91.479  0.0000E+00  0.4601E+04
     92.212  0.0000E+00  0.4601E+04
     92.946  0.0000E+00  0.4601E+04
     93.679  0.0000E+00  0.4601E+04
     94.413  0.0000E+00  0.4601E+04
     95.146  0.0000E+00  0.4601E+04
     95.880  0.0000E+00  0.4601E+04
     96.613  0.0000E+00  0.4601E+04
     97.347  0.0000E+00  0.4601E+04
     98.081  0.0000E+00  0.4601E+04
     98.814  0.0000E+00  0.4601E+04
     99.548  0.0000E+00  0.4601E+04
    100.281  0.0000E+00  0.4601E+04
    101.015  0.0000E+00  0.4601E+04
    101.748  0.0000E+00  0.4601E+04
    102.482  0.0000E+00  0.4601E+04
    103.215  0.0000E+00  0.4601E+04
    103.949  0.0000E+00  0.4601E+04
    104.682  0.0000E+00  0.4601E+04
    105.416  0.0000E+00  0.4601E+04
    106.149  0.0000E+00  0.4601E+04
    106.883  0.0000E+00  0.4601E+04
    107.616  0.0000E+00  0.4601E+04
    108.350  0.0000E+00  0.4601E+04
    109.084  0.0000E+00  0.4601E+04
    109.817  0.0000E+00  0.4601E+04
    110.551  0.0000E+00  0.4601E+04
    111.284  0.0000E+00  0.4601E+04
    112.018  0.0000E+00  0.4601E+04
    112.751  0.0000E+00  0.4601E+04
    113.485  0.0000E+00  0.4601E+04
    114.218  0.0000E+00  0.4601E+04
    114.952  0.0000E+00  0.4601E+04
    115.685  0.0000E+00  0.4601E+04
    116.419  0.0000E+00  0.4601E+04
    117.152  0.0000E+00  0.4601E+04
    117.886  0.0000E+00  0.4601E+04
    118.620  0.0000E+00  0.4601E+04
    119.353  0.0000E+00  0.4601E+04
    120.087  0.0000E+00  0.4601E+04
    120.820  0.0000E+00  0.4601E+04
    121.554  0.0000E+00  0.4601E+04
    122.287  0.0000E+00  0.4601E+04
    123.021  0.0000E+00  0.4601E+04
    123.754  0.0000E+00  0.4601E+04
    124.488  0.0000E+00  0.4601E+04
    125.221  0.0000E+00  0.4601E+04
    125.955  0.0000E+00  0.4601E+04
    126.688  0.0000E+00  0.4601E+04
    127.422  0.0000E+00  0.4601E+04
    128.156  0.0000E+00  0.4601E+04
    128.889  0.0000E+00  0.4601E+04
    129.623  0.0000E+00  0.4601E+04
    130.356  0.0000E+00  0.4601E+04
    131.090  0.0000E+00  0.4601E+04
    131.823  0.0000E+00  0.4601E+04
    132.557  0.0000E+00  0.4601E+04
    133.290  0.0000E+00  0.4601E+04
    134.024  0.0000E+00  0.4601E+04
    134.757  0.0000E+00  0.4601E+04
    135.491  0.0000E+00  0.4601E+04
    136.224  0.0000E+00  0.4601E+04
    136.958  0.0000E+00  0.4601E+04
    137.692  0.0000E+00  0.4601E+04
    138.425  0.0000E+00  0.4601E+04
    139.159  0.0000E+00  0.4601E+04
    139.892  0.0000E+00  0.4601E+04
    140.626 -0.3129E-52  0.4601E+04
    141.359 -0.3420E-06  0.4601E+04
    142.093  0.7313E+00  0.4601E+04
    142.826  0.4850E+00  0.4601E+04
    143.560  0.0000E+00  0.4601E+04
    144.293  0.0000E+00  0.4601E+04
    145.027  0.0000E+00  0.4601E+04
    145.760  0.0000E+00  0.4601E+04
    146.494  0.0000E+00  0.4601E+04
    147.227  0.0000E+00  0.4601E+04
    147.961  0.0000E+00  0.4601E+04
    148.695  0.0000E+00  0.4601E+04
    149.428  0.0000E+00  0.4601E+04
    150.162  0.0000E+00  0.4601E+04
    150.895  0.0000E+00  0.4601E+04
    151.629  0.0000E+00  0.4601E+04
    152.362  0.0000E+00  0.4601E+04
    153.096  0.0000E+00  0.4601E+04
    153.829  0.0000E+00  0.4601E+04
    154.563  0.0000E+00  0.4601E+04
    155.296  0.0000E+00  0.4601E+04
    156.030  0.0000E+00  0.4601E+04
    156.763  0.0000E+00  0.4601E+04
    157.497  0.0000E+00  0.4601E+04
    158.231  0.0000E+00  0.4601E+04
    158.964  0.0000E+00  0.4601E+04
    159.698  0.0000E+00  0.4601E+04
    160.431  0.0000E+00  0.4601E+04
    161.165  0.0000E+00  0.4601E+04
    161.898  0.0000E+00  0.4601E+04
    162.632  0.0000E+00  0.4601E+04
    163.365  0.0000E+00  0.4601E+04
    164.099  0.0000E+00  0.4601E+04
    164.832 -0.4031E-47  0.4601E+04
    165.566 -0.7003E-05  0.4601E+04
    166.299  0.1033E+01  0.4602E+04
    167.033  0.2370E+01  0.4604E+04
    167.767  0.1349E+01  0.4605E+04
    168.500  0.1524E+01  0.4606E+04
    169.234  0.1010E+01  0.4607E+04
    169.967  0.1020E+00  0.4607E+04
    170.701  0.0000E+00  0.4607E+04
    171.434  0.0000E+00  0.4607E+04
    172.168  0.0000E+00  0.4607E+04
    172.901  0.0000E+00  0.4607E+04
    173.635  0.0000E+00  0.4607E+04
    174.368  0.0000E+00  0.4607E+04
    175.102  0.0000E+00  0.4607E+04
    175.835  0.0000E+00  0.4607E+04
    176.569  0.0000E+00  0.4607E+04
    177.303  0.0000E+00  0.4607E+04
    178.036  0.0000E+00  0.4607E+04
    178.770  0.0000E+00  0.4607E+04
    179.503  0.0000E+00  0.4607E+04
    180.237  0.0000E+00  0.4607E+04
    180.970  0.0000E+00  0.4607E+04
    181.704  0.0000E+00  0.4607E+04
    182.437  0.0000E+00  0.4607E+04
    183.171  0.0000E+00  0.4607E+04
    183.904  0.0000E+00  0.4607E+04
    184.638  0.0000E+00  0.4607E+04
    185.371  0.0000E+00  0.4607E+04
    186.105  0.0000E+00  0.4607E+04
    186.838  0.0000E+00  0.4607E+04
    187.572  0.0000E+00  0.4607E+04
    188.306 -0.2646E-71  0.4607E+04
    189.039 -0.2451E-13  0.4607E+04
    189.773  0.3196E+00  0.4607E+04
    190.506  0.6672E+00  0.4608E+04
    191.240  0.4362E+00  0.4608E+04
    191.973  0.2021E+00  0.4608E+04
    192.707  0.0000E+00  0.4608E+04
    193.440  0.0000E+00  0.4608E+04
    194.174  0.0000E+00  0.4608E+04
    194.907  0.0000E+00  0.4608E+04
    195.641  0.0000E+00  0.4608E+04
    196.374  0.0000E+00  0.4608E+04
    197.108  0.0000E+00  0.4608E+04
    197.842  0.0000E+00  0.4608E+04
    198.575  0.0000E+00  0.4608E+04
    199.309  0.0000E+00  0.4608E+04
    200.042  0.0000E+00  0.4608E+04
    200.776  0.0000E+00  0.4608E+04
    201.509  0.0000E+00  0.4608E+04
