   8   8   0   0
  0.1460329E+02  0.5501932E-09  0.5501932E-09  0.4456410E-09  0.5000000E-15
  1.000000000000000E-004
  CAR 
 Ir_Ru                                   
     29.44188286     -2.29484344  301      9.97921214      1.00000000
     -2.295  0.0000E+00  0.0000E+00
     -2.189  0.0000E+00  0.0000E+00
     -2.083  0.0000E+00  0.0000E+00
     -1.977  0.0000E+00  0.0000E+00
     -1.872  0.0000E+00  0.0000E+00
     -1.766  0.0000E+00  0.0000E+00
     -1.660  0.0000E+00  0.0000E+00
     -1.554  0.0000E+00  0.0000E+00
     -1.449  0.0000E+00  0.0000E+00
     -1.343  0.0000E+00  0.0000E+00
     -1.237  0.0000E+00  0.0000E+00
     -1.131  0.0000E+00  0.0000E+00
     -1.025  0.0000E+00  0.0000E+00
     -0.920  0.0000E+00  0.0000E+00
     -0.814  0.2145E-01  0.2751E-03
     -0.708  0.1591E+00  0.1136E-01
     -0.602  0.2153E+00  0.3039E-01
     -0.496  0.2793E+00  0.5708E-01
     -0.391  0.3121E+00  0.8803E-01
     -0.285  0.3594E+00  0.1235E+00
     -0.179  0.4071E+00  0.1642E+00
     -0.073  0.4405E+00  0.2090E+00
      0.033  0.4761E+00  0.2574E+00
      0.138  0.5163E+00  0.3099E+00
      0.244  0.5608E+00  0.3668E+00
      0.350  0.5971E+00  0.4282E+00
      0.456  0.6347E+00  0.4933E+00
      0.561  0.6758E+00  0.5626E+00
      0.667  0.7202E+00  0.6364E+00
      0.773  0.7665E+00  0.7150E+00
      0.879  0.8130E+00  0.7985E+00
      0.985  0.9591E+00  0.8902E+00
      1.090  0.9850E+00  0.9934E+00
      1.196  0.9511E+00  0.1097E+01
      1.302  0.9479E+00  0.1196E+01
      1.408  0.1170E+01  0.1301E+01
      1.514  0.1170E+01  0.1424E+01
      1.619  0.1263E+01  0.1560E+01
      1.725  0.1339E+01  0.1698E+01
      1.831  0.1479E+01  0.1847E+01
      1.937  0.1635E+01  0.2011E+01
      2.043  0.1877E+01  0.2196E+01
      2.148  0.2446E+01  0.2440E+01
      2.254  0.4123E+01  0.2762E+01
      2.360  0.6879E+01  0.3382E+01
      2.466  0.6719E+01  0.4082E+01
      2.571  0.5931E+01  0.4735E+01
      2.677  0.7050E+01  0.5440E+01
      2.783  0.6559E+01  0.6136E+01
      2.889  0.8009E+01  0.6922E+01
      2.995  0.8576E+01  0.7830E+01
      3.100  0.8353E+01  0.8729E+01
      3.206  0.8823E+01  0.9644E+01
      3.312  0.9053E+01  0.1059E+02
      3.418  0.1027E+02  0.1159E+02
      3.524  0.1058E+02  0.1274E+02
      3.629  0.7750E+01  0.1370E+02
      3.735  0.8147E+01  0.1454E+02
      3.841  0.7700E+01  0.1540E+02
      3.947  0.6408E+01  0.1612E+02
      4.053  0.4882E+01  0.1672E+02
      4.158  0.1388E+02  0.1751E+02
      4.264  0.1161E+02  0.1889E+02
      4.370  0.9233E+01  0.2007E+02
      4.476  0.7401E+01  0.2095E+02
      4.581  0.6963E+01  0.2176E+02
      4.687  0.8469E+01  0.2256E+02
      4.793  0.1239E+02  0.2359E+02
      4.899  0.1054E+02  0.2469E+02
      5.005  0.1263E+02  0.2596E+02
      5.110  0.1120E+02  0.2732E+02
      5.216  0.9882E+01  0.2840E+02
      5.322  0.7700E+01  0.2938E+02
      5.428  0.4490E+01  0.2999E+02
      5.534  0.4144E+01  0.3044E+02
      5.639  0.6475E+01  0.3094E+02
      5.745  0.1031E+02  0.3191E+02
      5.851  0.1634E+02  0.3329E+02
      5.957  0.1614E+02  0.3497E+02
      6.062  0.1275E+02  0.3637E+02
      6.168  0.1351E+02  0.3769E+02
      6.274  0.1117E+02  0.3901E+02
      6.380  0.1186E+02  0.4022E+02
      6.486  0.1284E+02  0.4153E+02
      6.591  0.1175E+02  0.4291E+02
      6.697  0.1414E+02  0.4417E+02
      6.803  0.1244E+02  0.4554E+02
      6.909  0.1086E+02  0.4678E+02
      7.015  0.1407E+02  0.4809E+02
      7.120  0.1479E+02  0.4968E+02
      7.226  0.1262E+02  0.5118E+02
      7.332  0.1006E+02  0.5235E+02
      7.438  0.9114E+01  0.5336E+02
      7.544  0.1100E+02  0.5441E+02
      7.649  0.8002E+01  0.5537E+02
      7.755  0.7616E+01  0.5623E+02
      7.861  0.7489E+01  0.5701E+02
      7.967  0.7986E+01  0.5787E+02
      8.072  0.6779E+01  0.5866E+02
      8.178  0.6812E+01  0.5938E+02
      8.284  0.7208E+01  0.6013E+02
      8.390  0.5719E+01  0.6081E+02
      8.496  0.8426E+01  0.6150E+02
      8.601  0.6371E+01  0.6223E+02
      8.707  0.5661E+01  0.6286E+02
      8.813  0.5362E+01  0.6345E+02
      8.919  0.4962E+01  0.6398E+02
      9.025  0.6752E+01  0.6460E+02
      9.130  0.7103E+01  0.6536E+02
      9.236  0.6314E+01  0.6608E+02
      9.342  0.6417E+01  0.6673E+02
      9.448  0.7335E+01  0.6750E+02
      9.554  0.5981E+01  0.6814E+02
      9.659  0.8346E+01  0.6892E+02
      9.765  0.9801E+01  0.6988E+02
      9.871  0.1018E+02  0.7100E+02
      9.977  0.8615E+01  0.7198E+02
     10.082  0.9960E+01  0.7291E+02
     10.188  0.1246E+02  0.7409E+02
     10.294  0.1300E+02  0.7544E+02
     10.400  0.1330E+02  0.7684E+02
     10.506  0.1278E+02  0.7822E+02
     10.611  0.1988E+02  0.7999E+02
     10.717  0.1305E+02  0.8151E+02
     10.823  0.1182E+02  0.8292E+02
     10.929  0.9651E+01  0.8407E+02
     11.035  0.4034E+01  0.8477E+02
     11.140  0.2360E+01  0.8507E+02
     11.246  0.2119E+01  0.8530E+02
     11.352  0.2265E+01  0.8554E+02
     11.458  0.2476E+01  0.8579E+02
     11.564  0.3021E+01  0.8606E+02
     11.669  0.2395E+01  0.8633E+02
     11.775  0.2243E+01  0.8658E+02
     11.881  0.2173E+01  0.8682E+02
     11.987  0.2341E+01  0.8705E+02
     12.092  0.2134E+01  0.8727E+02
     12.198  0.2190E+01  0.8750E+02
     12.304  0.2284E+01  0.8774E+02
     12.410  0.2328E+01  0.8798E+02
     12.516  0.2407E+01  0.8824E+02
     12.621  0.2606E+01  0.8850E+02
     12.727  0.2284E+01  0.8876E+02
     12.833  0.2190E+01  0.8899E+02
     12.939  0.2154E+01  0.8923E+02
     13.045  0.2020E+01  0.8945E+02
     13.150  0.1948E+01  0.8965E+02
     13.256  0.1800E+01  0.8986E+02
     13.362  0.1811E+01  0.9005E+02
     13.468  0.1848E+01  0.9024E+02
     13.574  0.1884E+01  0.9044E+02
     13.679  0.1911E+01  0.9065E+02
     13.785  0.1859E+01  0.9084E+02
     13.891  0.1878E+01  0.9104E+02
     13.997  0.1985E+01  0.9125E+02
     14.102  0.2000E+01  0.9146E+02
     14.208  0.2004E+01  0.9167E+02
     14.314  0.1927E+01  0.9188E+02
     14.420  0.2023E+01  0.9209E+02
     14.526  0.2326E+01  0.9231E+02
     14.631  0.2545E+01  0.9258E+02
     14.737  0.2605E+01  0.9284E+02
     14.843  0.2096E+01  0.9308E+02
     14.949  0.1966E+01  0.9329E+02
     15.055  0.1851E+01  0.9350E+02
     15.160  0.1798E+01  0.9369E+02
     15.266  0.1869E+01  0.9388E+02
     15.372  0.1744E+01  0.9407E+02
     15.478  0.1689E+01  0.9425E+02
     15.584  0.1629E+01  0.9443E+02
     15.689  0.1565E+01  0.9460E+02
     15.795  0.1511E+01  0.9476E+02
     15.901  0.1458E+01  0.9492E+02
     16.007  0.1405E+01  0.9507E+02
     16.112  0.1258E+01  0.9521E+02
     16.218  0.1138E+01  0.9534E+02
     16.324  0.1122E+01  0.9546E+02
     16.430  0.1264E+01  0.9558E+02
     16.536  0.1398E+01  0.9572E+02
     16.641  0.1343E+01  0.9588E+02
     16.747  0.1083E+01  0.9601E+02
     16.853  0.8881E+00  0.9611E+02
     16.959  0.9176E+00  0.9620E+02
     17.065  0.1001E+01  0.9630E+02
     17.170  0.1302E+01  0.9642E+02
     17.276  0.3011E+01  0.9663E+02
     17.382  0.3121E+01  0.9696E+02
     17.488  0.4370E+01  0.9736E+02
     17.594  0.5402E+01  0.9788E+02
     17.699  0.4398E+01  0.9838E+02
     17.805  0.4245E+01  0.9883E+02
     17.911  0.3771E+01  0.9926E+02
     18.017  0.3444E+01  0.9964E+02
     18.122  0.3187E+01  0.1000E+03
     18.228  0.3208E+01  0.1003E+03
     18.334  0.3244E+01  0.1007E+03
     18.440  0.3810E+01  0.1010E+03
     18.546  0.2922E+01  0.1014E+03
     18.651  0.2593E+01  0.1017E+03
     18.757  0.2570E+01  0.1019E+03
     18.863  0.2656E+01  0.1022E+03
     18.969  0.2645E+01  0.1025E+03
     19.075  0.2691E+01  0.1028E+03
     19.180  0.2746E+01  0.1031E+03
     19.286  0.2651E+01  0.1034E+03
     19.392  0.2687E+01  0.1036E+03
     19.498  0.2752E+01  0.1039E+03
     19.603  0.2837E+01  0.1042E+03
     19.709  0.3062E+01  0.1045E+03
     19.815  0.3383E+01  0.1049E+03
     19.921  0.3418E+01  0.1052E+03
     20.027  0.2801E+01  0.1056E+03
     20.132  0.2486E+01  0.1058E+03
     20.238  0.2349E+01  0.1061E+03
     20.344  0.2365E+01  0.1063E+03
     20.450  0.2534E+01  0.1066E+03
     20.556  0.2912E+01  0.1069E+03
     20.661  0.3120E+01  0.1072E+03
     20.767  0.3170E+01  0.1075E+03
     20.873  0.2801E+01  0.1079E+03
     20.979  0.2657E+01  0.1081E+03
     21.085  0.2763E+01  0.1084E+03
     21.190  0.2693E+01  0.1087E+03
     21.296  0.2769E+01  0.1090E+03
     21.402  0.2802E+01  0.1093E+03
     21.508  0.2883E+01  0.1096E+03
     21.613  0.2845E+01  0.1099E+03
     21.719  0.2776E+01  0.1102E+03
     21.825  0.2759E+01  0.1105E+03
     21.931  0.2737E+01  0.1108E+03
     22.037  0.2646E+01  0.1111E+03
     22.142  0.2790E+01  0.1114E+03
     22.248  0.2898E+01  0.1117E+03
     22.354  0.2946E+01  0.1120E+03
     22.460  0.3033E+01  0.1123E+03
     22.566  0.3102E+01  0.1126E+03
     22.671  0.2525E+01  0.1129E+03
     22.777  0.2229E+01  0.1132E+03
     22.883  0.2212E+01  0.1134E+03
     22.989  0.2643E+01  0.1137E+03
     23.095  0.2990E+01  0.1140E+03
     23.200  0.2889E+01  0.1143E+03
     23.306  0.3039E+01  0.1146E+03
     23.412  0.3222E+01  0.1149E+03
     23.518  0.3343E+01  0.1152E+03
     23.623  0.3555E+01  0.1156E+03
     23.729  0.3896E+01  0.1160E+03
     23.835  0.4352E+01  0.1164E+03
     23.941  0.4702E+01  0.1169E+03
     24.047  0.5007E+01  0.1174E+03
     24.152  0.4796E+01  0.1180E+03
     24.258  0.4154E+01  0.1185E+03
     24.364  0.4071E+01  0.1189E+03
     24.470  0.4428E+01  0.1193E+03
     24.576  0.5367E+01  0.1198E+03
     24.681  0.6253E+01  0.1205E+03
     24.787  0.6634E+01  0.1212E+03
     24.893  0.6539E+01  0.1219E+03
     24.999  0.6513E+01  0.1225E+03
     25.105  0.4720E+01  0.1231E+03
     25.210  0.4098E+01  0.1236E+03
     25.316  0.4035E+01  0.1240E+03
     25.422  0.5320E+01  0.1245E+03
     25.528  0.4569E+01  0.1250E+03
     25.633  0.3992E+01  0.1255E+03
     25.739  0.3524E+01  0.1259E+03
     25.845  0.2907E+01  0.1262E+03
     25.951  0.3102E+01  0.1265E+03
     26.057  0.2770E+01  0.1268E+03
     26.162  0.2519E+01  0.1271E+03
     26.268  0.2475E+01  0.1274E+03
     26.374  0.1781E+01  0.1276E+03
     26.480  0.9768E+00  0.1277E+03
     26.586  0.5754E+00  0.1278E+03
     26.691  0.3816E+00  0.1279E+03
     26.797  0.2565E+00  0.1279E+03
     26.903  0.1879E+00  0.1279E+03
     27.009  0.1535E+00  0.1279E+03
     27.115  0.1262E+00  0.1280E+03
     27.220  0.9817E-01  0.1280E+03
     27.326  0.7925E-01  0.1280E+03
     27.432  0.6457E-01  0.1280E+03
     27.538  0.5095E-01  0.1280E+03
     27.643  0.3746E-01  0.1280E+03
     27.749  0.1906E-01  0.1280E+03
     27.855  0.1966E-02  0.1280E+03
     27.961  0.1398E-03  0.1280E+03
     28.067  0.0000E+00  0.1280E+03
     28.172  0.0000E+00  0.1280E+03
     28.278  0.0000E+00  0.1280E+03
     28.384  0.0000E+00  0.1280E+03
     28.490  0.0000E+00  0.1280E+03
     28.596  0.0000E+00  0.1280E+03
     28.701  0.0000E+00  0.1280E+03
     28.807  0.0000E+00  0.1280E+03
     28.913  0.0000E+00  0.1280E+03
     29.019  0.0000E+00  0.1280E+03
     29.125  0.0000E+00  0.1280E+03
     29.230  0.0000E+00  0.1280E+03
     29.336  0.0000E+00  0.1280E+03
     29.442  0.0000E+00  0.1280E+03
