<?xml version="1.0" encoding="ISO-8859-1"?>
<modeling>
 <generator>
  <i name="program" type="string">vasp </i>
  <i name="version" type="string">5.4.1  </i>
  <i name="subversion" type="string">24Jun15 (build Dec 12 2017 15:24:27) complex                          parallel </i>
  <i name="platform" type="string">IFC91_ompi </i>
  <i name="date" type="string">2020 04 03 </i>
  <i name="time" type="string">13:53:39 </i>
 </generator>
 <incar>
  <i type="string" name="SYSTEM"> Ir_Ru</i>
  <i type="int" name="ISTART">     0</i>
  <i type="string" name="PREC">accurate</i>
  <i type="string" name="ALGO"> Very_Fast</i>
  <i type="int" name="ICHARG">     2</i>
  <i type="int" name="NELMIN">     5</i>
  <i type="int" name="IBRION">    -1</i>
  <i name="EDIFFG">      0.00001000</i>
  <i type="int" name="ISIF">     2</i>
  <i type="int" name="ISMEAR">    -5</i>
  <i name="SIGMA">      0.10000000</i>
  <v type="int" name="KPOINT_BSE">    -1     0     0     0</v>
 </incar>
 <kpoints>
  <generation param="Gamma">
   <v type="int" name="divisions">      10       10       12 </v>
   <v name="usershift">      0.00000000       0.00000000       0.00000000 </v>
   <v name="genvec1">      0.10000000       0.00000000       0.00000000 </v>
   <v name="genvec2">     -0.00000000       0.10000000       0.00000000 </v>
   <v name="genvec3">      0.00000000       0.00000000       0.08333333 </v>
   <v name="shift">      0.00000000       0.00000000       0.00000000 </v>
  </generation>
  <varray name="kpointlist" >
   <v>       0.00000000       0.00000000       0.00000000 </v>
   <v>       0.10000000       0.00000000       0.00000000 </v>
   <v>       0.20000000       0.00000000       0.00000000 </v>
   <v>       0.30000000       0.00000000       0.00000000 </v>
   <v>       0.40000000       0.00000000       0.00000000 </v>
   <v>       0.50000000       0.00000000       0.00000000 </v>
   <v>       0.10000000       0.10000000       0.00000000 </v>
   <v>       0.20000000       0.10000000       0.00000000 </v>
   <v>       0.30000000       0.10000000       0.00000000 </v>
   <v>       0.40000000       0.10000000       0.00000000 </v>
   <v>       0.50000000       0.10000000       0.00000000 </v>
   <v>      -0.40000000       0.10000000       0.00000000 </v>
   <v>      -0.30000000       0.10000000       0.00000000 </v>
   <v>      -0.20000000       0.10000000       0.00000000 </v>
   <v>      -0.10000000       0.10000000       0.00000000 </v>
   <v>       0.20000000       0.20000000       0.00000000 </v>
   <v>       0.30000000       0.20000000       0.00000000 </v>
   <v>       0.40000000       0.20000000       0.00000000 </v>
   <v>       0.50000000       0.20000000       0.00000000 </v>
   <v>      -0.40000000       0.20000000       0.00000000 </v>
   <v>      -0.30000000       0.20000000       0.00000000 </v>
   <v>      -0.20000000       0.20000000       0.00000000 </v>
   <v>       0.30000000       0.30000000       0.00000000 </v>
   <v>       0.40000000       0.30000000       0.00000000 </v>
   <v>       0.50000000       0.30000000       0.00000000 </v>
   <v>      -0.40000000       0.30000000       0.00000000 </v>
   <v>      -0.30000000       0.30000000       0.00000000 </v>
   <v>       0.40000000       0.40000000       0.00000000 </v>
   <v>       0.50000000       0.40000000       0.00000000 </v>
   <v>      -0.40000000       0.40000000       0.00000000 </v>
   <v>       0.50000000       0.50000000       0.00000000 </v>
   <v>       0.00000000       0.00000000       0.08333333 </v>
   <v>       0.10000000       0.00000000       0.08333333 </v>
   <v>       0.20000000       0.00000000       0.08333333 </v>
   <v>       0.30000000       0.00000000       0.08333333 </v>
   <v>       0.40000000       0.00000000       0.08333333 </v>
   <v>       0.50000000       0.00000000       0.08333333 </v>
   <v>       0.10000000       0.10000000       0.08333333 </v>
   <v>       0.20000000       0.10000000       0.08333333 </v>
   <v>       0.30000000       0.10000000       0.08333333 </v>
   <v>       0.40000000       0.10000000       0.08333333 </v>
   <v>       0.50000000       0.10000000       0.08333333 </v>
   <v>      -0.40000000       0.10000000       0.08333333 </v>
   <v>      -0.30000000       0.10000000       0.08333333 </v>
   <v>      -0.20000000       0.10000000       0.08333333 </v>
   <v>      -0.10000000       0.10000000       0.08333333 </v>
   <v>       0.20000000       0.20000000       0.08333333 </v>
   <v>       0.30000000       0.20000000       0.08333333 </v>
   <v>       0.40000000       0.20000000       0.08333333 </v>
   <v>       0.50000000       0.20000000       0.08333333 </v>
   <v>      -0.40000000       0.20000000       0.08333333 </v>
   <v>      -0.30000000       0.20000000       0.08333333 </v>
   <v>      -0.20000000       0.20000000       0.08333333 </v>
   <v>       0.30000000       0.30000000       0.08333333 </v>
   <v>       0.40000000       0.30000000       0.08333333 </v>
   <v>       0.50000000       0.30000000       0.08333333 </v>
   <v>      -0.40000000       0.30000000       0.08333333 </v>
   <v>      -0.30000000       0.30000000       0.08333333 </v>
   <v>       0.40000000       0.40000000       0.08333333 </v>
   <v>       0.50000000       0.40000000       0.08333333 </v>
   <v>      -0.40000000       0.40000000       0.08333333 </v>
   <v>       0.50000000       0.50000000       0.08333333 </v>
   <v>       0.00000000       0.00000000       0.16666667 </v>
   <v>       0.10000000       0.00000000       0.16666667 </v>
   <v>       0.20000000       0.00000000       0.16666667 </v>
   <v>       0.30000000       0.00000000       0.16666667 </v>
   <v>       0.40000000       0.00000000       0.16666667 </v>
   <v>       0.50000000       0.00000000       0.16666667 </v>
   <v>       0.10000000       0.10000000       0.16666667 </v>
   <v>       0.20000000       0.10000000       0.16666667 </v>
   <v>       0.30000000       0.10000000       0.16666667 </v>
   <v>       0.40000000       0.10000000       0.16666667 </v>
   <v>       0.50000000       0.10000000       0.16666667 </v>
   <v>      -0.40000000       0.10000000       0.16666667 </v>
   <v>      -0.30000000       0.10000000       0.16666667 </v>
   <v>      -0.20000000       0.10000000       0.16666667 </v>
   <v>      -0.10000000       0.10000000       0.16666667 </v>
   <v>       0.20000000       0.20000000       0.16666667 </v>
   <v>       0.30000000       0.20000000       0.16666667 </v>
   <v>       0.40000000       0.20000000       0.16666667 </v>
   <v>       0.50000000       0.20000000       0.16666667 </v>
   <v>      -0.40000000       0.20000000       0.16666667 </v>
   <v>      -0.30000000       0.20000000       0.16666667 </v>
   <v>      -0.20000000       0.20000000       0.16666667 </v>
   <v>       0.30000000       0.30000000       0.16666667 </v>
   <v>       0.40000000       0.30000000       0.16666667 </v>
   <v>       0.50000000       0.30000000       0.16666667 </v>
   <v>      -0.40000000       0.30000000       0.16666667 </v>
   <v>      -0.30000000       0.30000000       0.16666667 </v>
   <v>       0.40000000       0.40000000       0.16666667 </v>
   <v>       0.50000000       0.40000000       0.16666667 </v>
   <v>      -0.40000000       0.40000000       0.16666667 </v>
   <v>       0.50000000       0.50000000       0.16666667 </v>
   <v>       0.00000000       0.00000000       0.25000000 </v>
   <v>       0.10000000       0.00000000       0.25000000 </v>
   <v>       0.20000000       0.00000000       0.25000000 </v>
   <v>       0.30000000       0.00000000       0.25000000 </v>
   <v>       0.40000000       0.00000000       0.25000000 </v>
   <v>       0.50000000       0.00000000       0.25000000 </v>
   <v>       0.10000000       0.10000000       0.25000000 </v>
   <v>       0.20000000       0.10000000       0.25000000 </v>
   <v>       0.30000000       0.10000000       0.25000000 </v>
   <v>       0.40000000       0.10000000       0.25000000 </v>
   <v>       0.50000000       0.10000000       0.25000000 </v>
   <v>      -0.40000000       0.10000000       0.25000000 </v>
   <v>      -0.30000000       0.10000000       0.25000000 </v>
   <v>      -0.20000000       0.10000000       0.25000000 </v>
   <v>      -0.10000000       0.10000000       0.25000000 </v>
   <v>       0.20000000       0.20000000       0.25000000 </v>
   <v>       0.30000000       0.20000000       0.25000000 </v>
   <v>       0.40000000       0.20000000       0.25000000 </v>
   <v>       0.50000000       0.20000000       0.25000000 </v>
   <v>      -0.40000000       0.20000000       0.25000000 </v>
   <v>      -0.30000000       0.20000000       0.25000000 </v>
   <v>      -0.20000000       0.20000000       0.25000000 </v>
   <v>       0.30000000       0.30000000       0.25000000 </v>
   <v>       0.40000000       0.30000000       0.25000000 </v>
   <v>       0.50000000       0.30000000       0.25000000 </v>
   <v>      -0.40000000       0.30000000       0.25000000 </v>
   <v>      -0.30000000       0.30000000       0.25000000 </v>
   <v>       0.40000000       0.40000000       0.25000000 </v>
   <v>       0.50000000       0.40000000       0.25000000 </v>
   <v>      -0.40000000       0.40000000       0.25000000 </v>
   <v>       0.50000000       0.50000000       0.25000000 </v>
   <v>       0.00000000       0.00000000       0.33333333 </v>
   <v>       0.10000000       0.00000000       0.33333333 </v>
   <v>       0.20000000       0.00000000       0.33333333 </v>
   <v>       0.30000000       0.00000000       0.33333333 </v>
   <v>       0.40000000       0.00000000       0.33333333 </v>
   <v>       0.50000000       0.00000000       0.33333333 </v>
   <v>       0.10000000       0.10000000       0.33333333 </v>
   <v>       0.20000000       0.10000000       0.33333333 </v>
   <v>       0.30000000       0.10000000       0.33333333 </v>
   <v>       0.40000000       0.10000000       0.33333333 </v>
   <v>       0.50000000       0.10000000       0.33333333 </v>
   <v>      -0.40000000       0.10000000       0.33333333 </v>
   <v>      -0.30000000       0.10000000       0.33333333 </v>
   <v>      -0.20000000       0.10000000       0.33333333 </v>
   <v>      -0.10000000       0.10000000       0.33333333 </v>
   <v>       0.20000000       0.20000000       0.33333333 </v>
   <v>       0.30000000       0.20000000       0.33333333 </v>
   <v>       0.40000000       0.20000000       0.33333333 </v>
   <v>       0.50000000       0.20000000       0.33333333 </v>
   <v>      -0.40000000       0.20000000       0.33333333 </v>
   <v>      -0.30000000       0.20000000       0.33333333 </v>
   <v>      -0.20000000       0.20000000       0.33333333 </v>
   <v>       0.30000000       0.30000000       0.33333333 </v>
   <v>       0.40000000       0.30000000       0.33333333 </v>
   <v>       0.50000000       0.30000000       0.33333333 </v>
   <v>      -0.40000000       0.30000000       0.33333333 </v>
   <v>      -0.30000000       0.30000000       0.33333333 </v>
   <v>       0.40000000       0.40000000       0.33333333 </v>
   <v>       0.50000000       0.40000000       0.33333333 </v>
   <v>      -0.40000000       0.40000000       0.33333333 </v>
   <v>       0.50000000       0.50000000       0.33333333 </v>
   <v>       0.00000000       0.00000000       0.41666667 </v>
   <v>       0.10000000       0.00000000       0.41666667 </v>
   <v>       0.20000000       0.00000000       0.41666667 </v>
   <v>       0.30000000       0.00000000       0.41666667 </v>
   <v>       0.40000000       0.00000000       0.41666667 </v>
   <v>       0.50000000       0.00000000       0.41666667 </v>
   <v>       0.10000000       0.10000000       0.41666667 </v>
   <v>       0.20000000       0.10000000       0.41666667 </v>
   <v>       0.30000000       0.10000000       0.41666667 </v>
   <v>       0.40000000       0.10000000       0.41666667 </v>
   <v>       0.50000000       0.10000000       0.41666667 </v>
   <v>      -0.40000000       0.10000000       0.41666667 </v>
   <v>      -0.30000000       0.10000000       0.41666667 </v>
   <v>      -0.20000000       0.10000000       0.41666667 </v>
   <v>      -0.10000000       0.10000000       0.41666667 </v>
   <v>       0.20000000       0.20000000       0.41666667 </v>
   <v>       0.30000000       0.20000000       0.41666667 </v>
   <v>       0.40000000       0.20000000       0.41666667 </v>
   <v>       0.50000000       0.20000000       0.41666667 </v>
   <v>      -0.40000000       0.20000000       0.41666667 </v>
   <v>      -0.30000000       0.20000000       0.41666667 </v>
   <v>      -0.20000000       0.20000000       0.41666667 </v>
   <v>       0.30000000       0.30000000       0.41666667 </v>
   <v>       0.40000000       0.30000000       0.41666667 </v>
   <v>       0.50000000       0.30000000       0.41666667 </v>
   <v>      -0.40000000       0.30000000       0.41666667 </v>
   <v>      -0.30000000       0.30000000       0.41666667 </v>
   <v>       0.40000000       0.40000000       0.41666667 </v>
   <v>       0.50000000       0.40000000       0.41666667 </v>
   <v>      -0.40000000       0.40000000       0.41666667 </v>
   <v>       0.50000000       0.50000000       0.41666667 </v>
   <v>       0.00000000       0.00000000       0.50000000 </v>
   <v>       0.10000000       0.00000000       0.50000000 </v>
   <v>       0.20000000       0.00000000       0.50000000 </v>
   <v>       0.30000000       0.00000000       0.50000000 </v>
   <v>       0.40000000       0.00000000       0.50000000 </v>
   <v>       0.50000000       0.00000000       0.50000000 </v>
   <v>       0.10000000       0.10000000       0.50000000 </v>
   <v>       0.20000000       0.10000000       0.50000000 </v>
   <v>       0.30000000       0.10000000       0.50000000 </v>
   <v>       0.40000000       0.10000000       0.50000000 </v>
   <v>       0.50000000       0.10000000       0.50000000 </v>
   <v>      -0.40000000       0.10000000       0.50000000 </v>
   <v>      -0.30000000       0.10000000       0.50000000 </v>
   <v>      -0.20000000       0.10000000       0.50000000 </v>
   <v>      -0.10000000       0.10000000       0.50000000 </v>
   <v>       0.20000000       0.20000000       0.50000000 </v>
   <v>       0.30000000       0.20000000       0.50000000 </v>
   <v>       0.40000000       0.20000000       0.50000000 </v>
   <v>       0.50000000       0.20000000       0.50000000 </v>
   <v>      -0.40000000       0.20000000       0.50000000 </v>
   <v>      -0.30000000       0.20000000       0.50000000 </v>
   <v>      -0.20000000       0.20000000       0.50000000 </v>
   <v>       0.30000000       0.30000000       0.50000000 </v>
   <v>       0.40000000       0.30000000       0.50000000 </v>
   <v>       0.50000000       0.30000000       0.50000000 </v>
   <v>      -0.40000000       0.30000000       0.50000000 </v>
   <v>      -0.30000000       0.30000000       0.50000000 </v>
   <v>       0.40000000       0.40000000       0.50000000 </v>
   <v>       0.50000000       0.40000000       0.50000000 </v>
   <v>      -0.40000000       0.40000000       0.50000000 </v>
   <v>       0.50000000       0.50000000       0.50000000 </v>
  </varray>
  <varray name="weights" >
   <v>       0.00083333 </v>
   <v>       0.00333333 </v>
   <v>       0.00333333 </v>
   <v>       0.00333333 </v>
   <v>       0.00333333 </v>
   <v>       0.00166667 </v>
   <v>       0.00166667 </v>
   <v>       0.00333333 </v>
   <v>       0.00333333 </v>
   <v>       0.00333333 </v>
   <v>       0.00333333 </v>
   <v>       0.00333333 </v>
   <v>       0.00333333 </v>
   <v>       0.00333333 </v>
   <v>       0.00166667 </v>
   <v>       0.00166667 </v>
   <v>       0.00333333 </v>
   <v>       0.00333333 </v>
   <v>       0.00333333 </v>
   <v>       0.00333333 </v>
   <v>       0.00333333 </v>
   <v>       0.00166667 </v>
   <v>       0.00166667 </v>
   <v>       0.00333333 </v>
   <v>       0.00333333 </v>
   <v>       0.00333333 </v>
   <v>       0.00166667 </v>
   <v>       0.00166667 </v>
   <v>       0.00333333 </v>
   <v>       0.00166667 </v>
   <v>       0.00083333 </v>
   <v>       0.00166667 </v>
   <v>       0.00666667 </v>
   <v>       0.00666667 </v>
   <v>       0.00666667 </v>
   <v>       0.00666667 </v>
   <v>       0.00333333 </v>
   <v>       0.00333333 </v>
   <v>       0.00666667 </v>
   <v>       0.00666667 </v>
   <v>       0.00666667 </v>
   <v>       0.00666667 </v>
   <v>       0.00666667 </v>
   <v>       0.00666667 </v>
   <v>       0.00666667 </v>
   <v>       0.00333333 </v>
   <v>       0.00333333 </v>
   <v>       0.00666667 </v>
   <v>       0.00666667 </v>
   <v>       0.00666667 </v>
   <v>       0.00666667 </v>
   <v>       0.00666667 </v>
   <v>       0.00333333 </v>
   <v>       0.00333333 </v>
   <v>       0.00666667 </v>
   <v>       0.00666667 </v>
   <v>       0.00666667 </v>
   <v>       0.00333333 </v>
   <v>       0.00333333 </v>
   <v>       0.00666667 </v>
   <v>       0.00333333 </v>
   <v>       0.00166667 </v>
   <v>       0.00166667 </v>
   <v>       0.00666667 </v>
   <v>       0.00666667 </v>
   <v>       0.00666667 </v>
   <v>       0.00666667 </v>
   <v>       0.00333333 </v>
   <v>       0.00333333 </v>
   <v>       0.00666667 </v>
   <v>       0.00666667 </v>
   <v>       0.00666667 </v>
   <v>       0.00666667 </v>
   <v>       0.00666667 </v>
   <v>       0.00666667 </v>
   <v>       0.00666667 </v>
   <v>       0.00333333 </v>
   <v>       0.00333333 </v>
   <v>       0.00666667 </v>
   <v>       0.00666667 </v>
   <v>       0.00666667 </v>
   <v>       0.00666667 </v>
   <v>       0.00666667 </v>
   <v>       0.00333333 </v>
   <v>       0.00333333 </v>
   <v>       0.00666667 </v>
   <v>       0.00666667 </v>
   <v>       0.00666667 </v>
   <v>       0.00333333 </v>
   <v>       0.00333333 </v>
   <v>       0.00666667 </v>
   <v>       0.00333333 </v>
   <v>       0.00166667 </v>
   <v>       0.00166667 </v>
   <v>       0.00666667 </v>
   <v>       0.00666667 </v>
   <v>       0.00666667 </v>
   <v>       0.00666667 </v>
   <v>       0.00333333 </v>
   <v>       0.00333333 </v>
   <v>       0.00666667 </v>
   <v>       0.00666667 </v>
   <v>       0.00666667 </v>
   <v>       0.00666667 </v>
   <v>       0.00666667 </v>
   <v>       0.00666667 </v>
   <v>       0.00666667 </v>
   <v>       0.00333333 </v>
   <v>       0.00333333 </v>
   <v>       0.00666667 </v>
   <v>       0.00666667 </v>
   <v>       0.00666667 </v>
   <v>       0.00666667 </v>
   <v>       0.00666667 </v>
   <v>       0.00333333 </v>
   <v>       0.00333333 </v>
   <v>       0.00666667 </v>
   <v>       0.00666667 </v>
   <v>       0.00666667 </v>
   <v>       0.00333333 </v>
   <v>       0.00333333 </v>
   <v>       0.00666667 </v>
   <v>       0.00333333 </v>
   <v>       0.00166667 </v>
   <v>       0.00166667 </v>
   <v>       0.00666667 </v>
   <v>       0.00666667 </v>
   <v>       0.00666667 </v>
   <v>       0.00666667 </v>
   <v>       0.00333333 </v>
   <v>       0.00333333 </v>
   <v>       0.00666667 </v>
   <v>       0.00666667 </v>
   <v>       0.00666667 </v>
   <v>       0.00666667 </v>
   <v>       0.00666667 </v>
   <v>       0.00666667 </v>
   <v>       0.00666667 </v>
   <v>       0.00333333 </v>
   <v>       0.00333333 </v>
   <v>       0.00666667 </v>
   <v>       0.00666667 </v>
   <v>       0.00666667 </v>
   <v>       0.00666667 </v>
   <v>       0.00666667 </v>
   <v>       0.00333333 </v>
   <v>       0.00333333 </v>
   <v>       0.00666667 </v>
   <v>       0.00666667 </v>
   <v>       0.00666667 </v>
   <v>       0.00333333 </v>
   <v>       0.00333333 </v>
   <v>       0.00666667 </v>
   <v>       0.00333333 </v>
   <v>       0.00166667 </v>
   <v>       0.00166667 </v>
   <v>       0.00666667 </v>
   <v>       0.00666667 </v>
   <v>       0.00666667 </v>
   <v>       0.00666667 </v>
   <v>       0.00333333 </v>
   <v>       0.00333333 </v>
   <v>       0.00666667 </v>
   <v>       0.00666667 </v>
   <v>       0.00666667 </v>
   <v>       0.00666667 </v>
   <v>       0.00666667 </v>
   <v>       0.00666667 </v>
   <v>       0.00666667 </v>
   <v>       0.00333333 </v>
   <v>       0.00333333 </v>
   <v>       0.00666667 </v>
   <v>       0.00666667 </v>
   <v>       0.00666667 </v>
   <v>       0.00666667 </v>
   <v>       0.00666667 </v>
   <v>       0.00333333 </v>
   <v>       0.00333333 </v>
   <v>       0.00666667 </v>
   <v>       0.00666667 </v>
   <v>       0.00666667 </v>
   <v>       0.00333333 </v>
   <v>       0.00333333 </v>
   <v>       0.00666667 </v>
   <v>       0.00333333 </v>
   <v>       0.00166667 </v>
   <v>       0.00083333 </v>
   <v>       0.00333333 </v>
   <v>       0.00333333 </v>
   <v>       0.00333333 </v>
   <v>       0.00333333 </v>
   <v>       0.00166667 </v>
   <v>       0.00166667 </v>
   <v>       0.00333333 </v>
   <v>       0.00333333 </v>
   <v>       0.00333333 </v>
   <v>       0.00333333 </v>
   <v>       0.00333333 </v>
   <v>       0.00333333 </v>
   <v>       0.00333333 </v>
   <v>       0.00166667 </v>
   <v>       0.00166667 </v>
   <v>       0.00333333 </v>
   <v>       0.00333333 </v>
   <v>       0.00333333 </v>
   <v>       0.00333333 </v>
   <v>       0.00333333 </v>
   <v>       0.00166667 </v>
   <v>       0.00166667 </v>
   <v>       0.00333333 </v>
   <v>       0.00333333 </v>
   <v>       0.00333333 </v>
   <v>       0.00166667 </v>
   <v>       0.00166667 </v>
   <v>       0.00333333 </v>
   <v>       0.00166667 </v>
   <v>       0.00083333 </v>
  </varray>
  <varray name="tetrahedronlist"  type="int" >
   <v type="int" >        4        2        2        7       33 </v>
   <v type="int" >        4        1        2        2       33 </v>
   <v type="int" >        4        1        2       32       33 </v>
   <v type="int" >        4        2        7       33       38 </v>
   <v type="int" >        4        2       33       33       38 </v>
   <v type="int" >        4        2       32       33       33 </v>
   <v type="int" >        4        3        7        8       38 </v>
   <v type="int" >        4        2        3        7       38 </v>
   <v type="int" >        4        2        3       33       38 </v>
   <v type="int" >        4        3        8       38       39 </v>
   <v type="int" >        4        3       34       38       39 </v>
   <v type="int" >        4        3       33       34       38 </v>
   <v type="int" >        4        4        8        9       39 </v>
   <v type="int" >        4        3        4        8       39 </v>
   <v type="int" >        4        3        4       34       39 </v>
   <v type="int" >        4        4        9       39       40 </v>
   <v type="int" >        4        4       35       39       40 </v>
   <v type="int" >        4        4       34       35       39 </v>
   <v type="int" >        4        5        9       10       40 </v>
   <v type="int" >        4        4        5        9       40 </v>
   <v type="int" >        4        4        5       35       40 </v>
   <v type="int" >        4        5       10       40       41 </v>
   <v type="int" >        4        5       36       40       41 </v>
   <v type="int" >        4        5       35       36       40 </v>
   <v type="int" >        4        6       10       11       41 </v>
   <v type="int" >        4        5        6       10       41 </v>
   <v type="int" >        4        5        6       36       41 </v>
   <v type="int" >        4        6       11       41       42 </v>
   <v type="int" >        4        6       37       41       42 </v>
   <v type="int" >        4        6       36       37       41 </v>
   <v type="int" >        4        5       11       12       42 </v>
   <v type="int" >        4        5        6       11       42 </v>
   <v type="int" >        4        5        6       37       42 </v>
   <v type="int" >        4        5       12       42       43 </v>
   <v type="int" >        4        5       36       42       43 </v>
   <v type="int" >        4        5       36       37       42 </v>
   <v type="int" >        4        4       12       13       43 </v>
   <v type="int" >        4        4        5       12       43 </v>
   <v type="int" >        4        4        5       36       43 </v>
   <v type="int" >        4        4       13       43       44 </v>
   <v type="int" >        4        4       35       43       44 </v>
   <v type="int" >        4        4       35       36       43 </v>
   <v type="int" >        4        3       13       14       44 </v>
   <v type="int" >        4        3        4       13       44 </v>
   <v type="int" >        4        3        4       35       44 </v>
   <v type="int" >        4        3       14       44       45 </v>
   <v type="int" >        4        3       34       44       45 </v>
   <v type="int" >        4        3       34       35       44 </v>
   <v type="int" >        4        2       14       15       45 </v>
   <v type="int" >        4        2        3       14       45 </v>
   <v type="int" >        4        2        3       34       45 </v>
   <v type="int" >        4        2       15       45       46 </v>
   <v type="int" >        4        2       33       45       46 </v>
   <v type="int" >        4        2       33       34       45 </v>
   <v type="int" >        4        1        2       15       46 </v>
   <v type="int" >        4        1        2       33       46 </v>
   <v type="int" >        4        1       32       33       46 </v>
   <v type="int" >        4        3        7        8       34 </v>
   <v type="int" >        4        2        3        7       34 </v>
   <v type="int" >        4        2        7       33       34 </v>
   <v type="int" >        4        7        8       34       39 </v>
   <v type="int" >        4        7       34       38       39 </v>
   <v type="int" >        4        7       33       34       38 </v>
   <v type="int" >        4        8        8       16       39 </v>
   <v type="int" >        4        7        8        8       39 </v>
   <v type="int" >        4        7        8       38       39 </v>
   <v type="int" >        4        8       16       39       47 </v>
   <v type="int" >        4        8       39       39       47 </v>
   <v type="int" >        4        8       38       39       39 </v>
   <v type="int" >        4        9       16       17       47 </v>
   <v type="int" >        4        8        9       16       47 </v>
   <v type="int" >        4        8        9       39       47 </v>
   <v type="int" >        4        9       17       47       48 </v>
   <v type="int" >        4        9       40       47       48 </v>
   <v type="int" >        4        9       39       40       47 </v>
   <v type="int" >        4       10       17       18       48 </v>
   <v type="int" >        4        9       10       17       48 </v>
   <v type="int" >        4        9       10       40       48 </v>
   <v type="int" >        4       10       18       48       49 </v>
   <v type="int" >        4       10       41       48       49 </v>
   <v type="int" >        4       10       40       41       48 </v>
   <v type="int" >        4       11       18       19       49 </v>
   <v type="int" >        4       10       11       18       49 </v>
   <v type="int" >        4       10       11       41       49 </v>
   <v type="int" >        4       11       19       49       50 </v>
   <v type="int" >        4       11       42       49       50 </v>
   <v type="int" >        4       11       41       42       49 </v>
   <v type="int" >        4       12       19       20       50 </v>
   <v type="int" >        4       11       12       19       50 </v>
   <v type="int" >        4       11       12       42       50 </v>
   <v type="int" >        4       12       20       50       51 </v>
   <v type="int" >        4       12       43       50       51 </v>
   <v type="int" >        4       12       42       43       50 </v>
   <v type="int" >        4       13       20       21       51 </v>
   <v type="int" >        4       12       13       20       51 </v>
   <v type="int" >        4       12       13       43       51 </v>
   <v type="int" >        4       13       21       51       52 </v>
   <v type="int" >        4       13       44       51       52 </v>
   <v type="int" >        4       13       43       44       51 </v>
   <v type="int" >        4       14       21       22       52 </v>
   <v type="int" >        4       13       14       21       52 </v>
   <v type="int" >        4       13       14       44       52 </v>
   <v type="int" >        4       14       22       52       53 </v>
   <v type="int" >        4       14       45       52       53 </v>
   <v type="int" >        4       14       44       45       52 </v>
   <v type="int" >        4       14       15       22       53 </v>
   <v type="int" >        4       14       15       45       53 </v>
   <v type="int" >        4       15       45       46       53 </v>
   <v type="int" >        4        4        8        9       35 </v>
   <v type="int" >        4        3        4        8       35 </v>
   <v type="int" >        4        3        8       34       35 </v>
   <v type="int" >        4        8        9       35       40 </v>
   <v type="int" >        4        8       35       39       40 </v>
   <v type="int" >        4        8       34       35       39 </v>
   <v type="int" >        4        9       16       17       40 </v>
   <v type="int" >        4        8        9       16       40 </v>
   <v type="int" >        4        8       16       39       40 </v>
   <v type="int" >        4       16       17       40       48 </v>
   <v type="int" >        4       16       40       47       48 </v>
   <v type="int" >        4       16       39       40       47 </v>
   <v type="int" >        4       17       17       23       48 </v>
   <v type="int" >        4       16       17       17       48 </v>
   <v type="int" >        4       16       17       47       48 </v>
   <v type="int" >        4       17       23       48       54 </v>
   <v type="int" >        4       17       48       48       54 </v>
   <v type="int" >        4       17       47       48       48 </v>
   <v type="int" >        4       18       23       24       54 </v>
   <v type="int" >        4       17       18       23       54 </v>
   <v type="int" >        4       17       18       48       54 </v>
   <v type="int" >        4       18       24       54       55 </v>
   <v type="int" >        4       18       49       54       55 </v>
   <v type="int" >        4       18       48       49       54 </v>
   <v type="int" >        4       19       24       25       55 </v>
   <v type="int" >        4       18       19       24       55 </v>
   <v type="int" >        4       18       19       49       55 </v>
   <v type="int" >        4       19       25       55       56 </v>
   <v type="int" >        4       19       50       55       56 </v>
   <v type="int" >        4       19       49       50       55 </v>
   <v type="int" >        4       20       25       26       56 </v>
   <v type="int" >        4       19       20       25       56 </v>
   <v type="int" >        4       19       20       50       56 </v>
   <v type="int" >        4       20       26       56       57 </v>
   <v type="int" >        4       20       51       56       57 </v>
   <v type="int" >        4       20       50       51       56 </v>
   <v type="int" >        4       21       26       27       57 </v>
   <v type="int" >        4       20       21       26       57 </v>
   <v type="int" >        4       20       21       51       57 </v>
   <v type="int" >        4       21       27       57       58 </v>
   <v type="int" >        4       21       52       57       58 </v>
   <v type="int" >        4       21       51       52       57 </v>
   <v type="int" >        4       21       22       27       58 </v>
   <v type="int" >        4       21       22       52       58 </v>
   <v type="int" >        4       22       52       53       58 </v>
   <v type="int" >        4        5        9       10       36 </v>
   <v type="int" >        4        4        5        9       36 </v>
   <v type="int" >        4        4        9       35       36 </v>
   <v type="int" >        4        9       10       36       41 </v>
   <v type="int" >        4        9       36       40       41 </v>
   <v type="int" >        4        9       35       36       40 </v>
   <v type="int" >        4       10       17       18       41 </v>
   <v type="int" >        4        9       10       17       41 </v>
   <v type="int" >        4        9       17       40       41 </v>
   <v type="int" >        4       17       18       41       49 </v>
   <v type="int" >        4       17       41       48       49 </v>
   <v type="int" >        4       17       40       41       48 </v>
   <v type="int" >        4       18       23       24       49 </v>
   <v type="int" >        4       17       18       23       49 </v>
   <v type="int" >        4       17       23       48       49 </v>
   <v type="int" >        4       23       24       49       55 </v>
   <v type="int" >        4       23       49       54       55 </v>
   <v type="int" >        4       23       48       49       54 </v>
   <v type="int" >        4       24       24       28       55 </v>
   <v type="int" >        4       23       24       24       55 </v>
   <v type="int" >        4       23       24       54       55 </v>
   <v type="int" >        4       24       28       55       59 </v>
   <v type="int" >        4       24       55       55       59 </v>
   <v type="int" >        4       24       54       55       55 </v>
   <v type="int" >        4       25       28       29       59 </v>
   <v type="int" >        4       24       25       28       59 </v>
   <v type="int" >        4       24       25       55       59 </v>
   <v type="int" >        4       25       29       59       60 </v>
   <v type="int" >        4       25       56       59       60 </v>
   <v type="int" >        4       25       55       56       59 </v>
   <v type="int" >        4       26       29       30       60 </v>
   <v type="int" >        4       25       26       29       60 </v>
   <v type="int" >        4       25       26       56       60 </v>
   <v type="int" >        4       26       30       60       61 </v>
   <v type="int" >        4       26       57       60       61 </v>
   <v type="int" >        4       26       56       57       60 </v>
   <v type="int" >        4       26       27       30       61 </v>
   <v type="int" >        4       26       27       57       61 </v>
   <v type="int" >        4       27       57       58       61 </v>
   <v type="int" >        4        6       10       11       37 </v>
   <v type="int" >        4        5        6       10       37 </v>
   <v type="int" >        4        5       10       36       37 </v>
   <v type="int" >        4       10       11       37       42 </v>
   <v type="int" >        4       10       37       41       42 </v>
   <v type="int" >        4       10       36       37       41 </v>
   <v type="int" >        4       11       18       19       42 </v>
   <v type="int" >        4       10       11       18       42 </v>
   <v type="int" >        4       10       18       41       42 </v>
   <v type="int" >        4       18       19       42       50 </v>
   <v type="int" >        4       18       42       49       50 </v>
   <v type="int" >        4       18       41       42       49 </v>
   <v type="int" >        4       19       24       25       50 </v>
   <v type="int" >        4       18       19       24       50 </v>
   <v type="int" >        4       18       24       49       50 </v>
   <v type="int" >        4       24       25       50       56 </v>
   <v type="int" >        4       24       50       55       56 </v>
   <v type="int" >        4       24       49       50       55 </v>
   <v type="int" >        4       25       28       29       56 </v>
   <v type="int" >        4       24       25       28       56 </v>
   <v type="int" >        4       24       28       55       56 </v>
   <v type="int" >        4       28       29       56       60 </v>
   <v type="int" >        4       28       56       59       60 </v>
   <v type="int" >        4       28       55       56       59 </v>
   <v type="int" >        4       29       29       31       60 </v>
   <v type="int" >        4       28       29       29       60 </v>
   <v type="int" >        4       28       29       59       60 </v>
   <v type="int" >        4       29       31       60       62 </v>
   <v type="int" >        4       29       60       60       62 </v>
   <v type="int" >        4       29       59       60       60 </v>
   <v type="int" >        4       29       30       31       62 </v>
   <v type="int" >        4       29       30       60       62 </v>
   <v type="int" >        4       30       60       61       62 </v>
   <v type="int" >        4        5       11       12       36 </v>
   <v type="int" >        4        5        6       11       36 </v>
   <v type="int" >        4        6       11       36       37 </v>
   <v type="int" >        4       11       12       36       43 </v>
   <v type="int" >        4       11       36       42       43 </v>
   <v type="int" >        4       11       36       37       42 </v>
   <v type="int" >        4       12       19       20       43 </v>
   <v type="int" >        4       11       12       19       43 </v>
   <v type="int" >        4       11       19       42       43 </v>
   <v type="int" >        4       19       20       43       51 </v>
   <v type="int" >        4       19       43       50       51 </v>
   <v type="int" >        4       19       42       43       50 </v>
   <v type="int" >        4       20       25       26       51 </v>
   <v type="int" >        4       19       20       25       51 </v>
   <v type="int" >        4       19       25       50       51 </v>
   <v type="int" >        4       25       26       51       57 </v>
   <v type="int" >        4       25       51       56       57 </v>
   <v type="int" >        4       25       50       51       56 </v>
   <v type="int" >        4       26       29       30       57 </v>
   <v type="int" >        4       25       26       29       57 </v>
   <v type="int" >        4       25       29       56       57 </v>
   <v type="int" >        4       29       30       57       61 </v>
   <v type="int" >        4       29       57       60       61 </v>
   <v type="int" >        4       29       56       57       60 </v>
   <v type="int" >        4       29       30       31       61 </v>
   <v type="int" >        4       29       31       60       61 </v>
   <v type="int" >        4       31       60       61       62 </v>
   <v type="int" >        4        4       12       13       35 </v>
   <v type="int" >        4        4        5       12       35 </v>
   <v type="int" >        4        5       12       35       36 </v>
   <v type="int" >        4       12       13       35       44 </v>
   <v type="int" >        4       12       35       43       44 </v>
   <v type="int" >        4       12       35       36       43 </v>
   <v type="int" >        4       13       20       21       44 </v>
   <v type="int" >        4       12       13       20       44 </v>
   <v type="int" >        4       12       20       43       44 </v>
   <v type="int" >        4       20       21       44       52 </v>
   <v type="int" >        4       20       44       51       52 </v>
   <v type="int" >        4       20       43       44       51 </v>
   <v type="int" >        4       21       26       27       52 </v>
   <v type="int" >        4       20       21       26       52 </v>
   <v type="int" >        4       20       26       51       52 </v>
   <v type="int" >        4       26       27       52       58 </v>
   <v type="int" >        4       26       52       57       58 </v>
   <v type="int" >        4       26       51       52       57 </v>
   <v type="int" >        4       26       27       30       58 </v>
   <v type="int" >        4       26       30       57       58 </v>
   <v type="int" >        4       30       57       58       61 </v>
   <v type="int" >        4        3       13       14       34 </v>
   <v type="int" >        4        3        4       13       34 </v>
   <v type="int" >        4        4       13       34       35 </v>
   <v type="int" >        4       13       14       34       45 </v>
   <v type="int" >        4       13       34       44       45 </v>
   <v type="int" >        4       13       34       35       44 </v>
   <v type="int" >        4       14       21       22       45 </v>
   <v type="int" >        4       13       14       21       45 </v>
   <v type="int" >        4       13       21       44       45 </v>
   <v type="int" >        4       21       22       45       53 </v>
   <v type="int" >        4       21       45       52       53 </v>
   <v type="int" >        4       21       44       45       52 </v>
   <v type="int" >        4       21       22       27       53 </v>
   <v type="int" >        4       21       27       52       53 </v>
   <v type="int" >        4       27       52       53       58 </v>
   <v type="int" >        4        2       14       15       33 </v>
   <v type="int" >        4        2        3       14       33 </v>
   <v type="int" >        4        3       14       33       34 </v>
   <v type="int" >        4       14       15       33       46 </v>
   <v type="int" >        4       14       33       45       46 </v>
   <v type="int" >        4       14       33       34       45 </v>
   <v type="int" >        4       14       15       22       46 </v>
   <v type="int" >        4       14       22       45       46 </v>
   <v type="int" >        4       22       45       46       53 </v>
   <v type="int" >        4        1        2       15       32 </v>
   <v type="int" >        4        2       15       32       33 </v>
   <v type="int" >        4       15       32       33       46 </v>
   <v type="int" >        4       33       33       38       64 </v>
   <v type="int" >        4       32       33       33       64 </v>
   <v type="int" >        4       32       33       63       64 </v>
   <v type="int" >        4       33       38       64       69 </v>
   <v type="int" >        4       33       64       64       69 </v>
   <v type="int" >        4       33       63       64       64 </v>
   <v type="int" >        4       34       38       39       69 </v>
   <v type="int" >        4       33       34       38       69 </v>
   <v type="int" >        4       33       34       64       69 </v>
   <v type="int" >        4       34       39       69       70 </v>
   <v type="int" >        4       34       65       69       70 </v>
   <v type="int" >        4       34       64       65       69 </v>
   <v type="int" >        4       35       39       40       70 </v>
   <v type="int" >        4       34       35       39       70 </v>
   <v type="int" >        4       34       35       65       70 </v>
   <v type="int" >        4       35       40       70       71 </v>
   <v type="int" >        4       35       66       70       71 </v>
   <v type="int" >        4       35       65       66       70 </v>
   <v type="int" >        4       36       40       41       71 </v>
   <v type="int" >        4       35       36       40       71 </v>
   <v type="int" >        4       35       36       66       71 </v>
   <v type="int" >        4       36       41       71       72 </v>
   <v type="int" >        4       36       67       71       72 </v>
   <v type="int" >        4       36       66       67       71 </v>
   <v type="int" >        4       37       41       42       72 </v>
   <v type="int" >        4       36       37       41       72 </v>
   <v type="int" >        4       36       37       67       72 </v>
   <v type="int" >        4       37       42       72       73 </v>
   <v type="int" >        4       37       68       72       73 </v>
   <v type="int" >        4       37       67       68       72 </v>
   <v type="int" >        4       36       42       43       73 </v>
   <v type="int" >        4       36       37       42       73 </v>
   <v type="int" >        4       36       37       68       73 </v>
   <v type="int" >        4       36       43       73       74 </v>
   <v type="int" >        4       36       67       73       74 </v>
   <v type="int" >        4       36       67       68       73 </v>
   <v type="int" >        4       35       43       44       74 </v>
   <v type="int" >        4       35       36       43       74 </v>
   <v type="int" >        4       35       36       67       74 </v>
   <v type="int" >        4       35       44       74       75 </v>
   <v type="int" >        4       35       66       74       75 </v>
   <v type="int" >        4       35       66       67       74 </v>
   <v type="int" >        4       34       44       45       75 </v>
   <v type="int" >        4       34       35       44       75 </v>
   <v type="int" >        4       34       35       66       75 </v>
   <v type="int" >        4       34       45       75       76 </v>
   <v type="int" >        4       34       65       75       76 </v>
   <v type="int" >        4       34       65       66       75 </v>
   <v type="int" >        4       33       45       46       76 </v>
   <v type="int" >        4       33       34       45       76 </v>
   <v type="int" >        4       33       34       65       76 </v>
   <v type="int" >        4       33       46       76       77 </v>
   <v type="int" >        4       33       64       76       77 </v>
   <v type="int" >        4       33       64       65       76 </v>
   <v type="int" >        4       32       33       46       77 </v>
   <v type="int" >        4       32       33       64       77 </v>
   <v type="int" >        4       32       63       64       77 </v>
   <v type="int" >        4       34       38       39       65 </v>
   <v type="int" >        4       33       34       38       65 </v>
   <v type="int" >        4       33       38       64       65 </v>
   <v type="int" >        4       38       39       65       70 </v>
   <v type="int" >        4       38       65       69       70 </v>
   <v type="int" >        4       38       64       65       69 </v>
   <v type="int" >        4       39       39       47       70 </v>
   <v type="int" >        4       38       39       39       70 </v>
   <v type="int" >        4       38       39       69       70 </v>
   <v type="int" >        4       39       47       70       78 </v>
   <v type="int" >        4       39       70       70       78 </v>
   <v type="int" >        4       39       69       70       70 </v>
   <v type="int" >        4       40       47       48       78 </v>
   <v type="int" >        4       39       40       47       78 </v>
   <v type="int" >        4       39       40       70       78 </v>
   <v type="int" >        4       40       48       78       79 </v>
   <v type="int" >        4       40       71       78       79 </v>
   <v type="int" >        4       40       70       71       78 </v>
   <v type="int" >        4       41       48       49       79 </v>
   <v type="int" >        4       40       41       48       79 </v>
   <v type="int" >        4       40       41       71       79 </v>
   <v type="int" >        4       41       49       79       80 </v>
   <v type="int" >        4       41       72       79       80 </v>
   <v type="int" >        4       41       71       72       79 </v>
   <v type="int" >        4       42       49       50       80 </v>
   <v type="int" >        4       41       42       49       80 </v>
   <v type="int" >        4       41       42       72       80 </v>
   <v type="int" >        4       42       50       80       81 </v>
   <v type="int" >        4       42       73       80       81 </v>
   <v type="int" >        4       42       72       73       80 </v>
   <v type="int" >        4       43       50       51       81 </v>
   <v type="int" >        4       42       43       50       81 </v>
   <v type="int" >        4       42       43       73       81 </v>
   <v type="int" >        4       43       51       81       82 </v>
   <v type="int" >        4       43       74       81       82 </v>
   <v type="int" >        4       43       73       74       81 </v>
   <v type="int" >        4       44       51       52       82 </v>
   <v type="int" >        4       43       44       51       82 </v>
   <v type="int" >        4       43       44       74       82 </v>
   <v type="int" >        4       44       52       82       83 </v>
   <v type="int" >        4       44       75       82       83 </v>
   <v type="int" >        4       44       74       75       82 </v>
   <v type="int" >        4       45       52       53       83 </v>
   <v type="int" >        4       44       45       52       83 </v>
   <v type="int" >        4       44       45       75       83 </v>
   <v type="int" >        4       45       53       83       84 </v>
   <v type="int" >        4       45       76       83       84 </v>
   <v type="int" >        4       45       75       76       83 </v>
   <v type="int" >        4       45       46       53       84 </v>
   <v type="int" >        4       45       46       76       84 </v>
   <v type="int" >        4       46       76       77       84 </v>
   <v type="int" >        4       35       39       40       66 </v>
   <v type="int" >        4       34       35       39       66 </v>
   <v type="int" >        4       34       39       65       66 </v>
   <v type="int" >        4       39       40       66       71 </v>
   <v type="int" >        4       39       66       70       71 </v>
   <v type="int" >        4       39       65       66       70 </v>
   <v type="int" >        4       40       47       48       71 </v>
   <v type="int" >        4       39       40       47       71 </v>
   <v type="int" >        4       39       47       70       71 </v>
   <v type="int" >        4       47       48       71       79 </v>
   <v type="int" >        4       47       71       78       79 </v>
   <v type="int" >        4       47       70       71       78 </v>
   <v type="int" >        4       48       48       54       79 </v>
   <v type="int" >        4       47       48       48       79 </v>
   <v type="int" >        4       47       48       78       79 </v>
   <v type="int" >        4       48       54       79       85 </v>
   <v type="int" >        4       48       79       79       85 </v>
   <v type="int" >        4       48       78       79       79 </v>
   <v type="int" >        4       49       54       55       85 </v>
   <v type="int" >        4       48       49       54       85 </v>
   <v type="int" >        4       48       49       79       85 </v>
   <v type="int" >        4       49       55       85       86 </v>
   <v type="int" >        4       49       80       85       86 </v>
   <v type="int" >        4       49       79       80       85 </v>
   <v type="int" >        4       50       55       56       86 </v>
   <v type="int" >        4       49       50       55       86 </v>
   <v type="int" >        4       49       50       80       86 </v>
   <v type="int" >        4       50       56       86       87 </v>
   <v type="int" >        4       50       81       86       87 </v>
   <v type="int" >        4       50       80       81       86 </v>
   <v type="int" >        4       51       56       57       87 </v>
   <v type="int" >        4       50       51       56       87 </v>
   <v type="int" >        4       50       51       81       87 </v>
   <v type="int" >        4       51       57       87       88 </v>
   <v type="int" >        4       51       82       87       88 </v>
   <v type="int" >        4       51       81       82       87 </v>
   <v type="int" >        4       52       57       58       88 </v>
   <v type="int" >        4       51       52       57       88 </v>
   <v type="int" >        4       51       52       82       88 </v>
   <v type="int" >        4       52       58       88       89 </v>
   <v type="int" >        4       52       83       88       89 </v>
   <v type="int" >        4       52       82       83       88 </v>
   <v type="int" >        4       52       53       58       89 </v>
   <v type="int" >        4       52       53       83       89 </v>
   <v type="int" >        4       53       83       84       89 </v>
   <v type="int" >        4       36       40       41       67 </v>
   <v type="int" >        4       35       36       40       67 </v>
   <v type="int" >        4       35       40       66       67 </v>
   <v type="int" >        4       40       41       67       72 </v>
   <v type="int" >        4       40       67       71       72 </v>
   <v type="int" >        4       40       66       67       71 </v>
   <v type="int" >        4       41       48       49       72 </v>
   <v type="int" >        4       40       41       48       72 </v>
   <v type="int" >        4       40       48       71       72 </v>
   <v type="int" >        4       48       49       72       80 </v>
   <v type="int" >        4       48       72       79       80 </v>
   <v type="int" >        4       48       71       72       79 </v>
   <v type="int" >        4       49       54       55       80 </v>
   <v type="int" >        4       48       49       54       80 </v>
   <v type="int" >        4       48       54       79       80 </v>
   <v type="int" >        4       54       55       80       86 </v>
   <v type="int" >        4       54       80       85       86 </v>
   <v type="int" >        4       54       79       80       85 </v>
   <v type="int" >        4       55       55       59       86 </v>
   <v type="int" >        4       54       55       55       86 </v>
   <v type="int" >        4       54       55       85       86 </v>
   <v type="int" >        4       55       59       86       90 </v>
   <v type="int" >        4       55       86       86       90 </v>
   <v type="int" >        4       55       85       86       86 </v>
   <v type="int" >        4       56       59       60       90 </v>
   <v type="int" >        4       55       56       59       90 </v>
   <v type="int" >        4       55       56       86       90 </v>
   <v type="int" >        4       56       60       90       91 </v>
   <v type="int" >        4       56       87       90       91 </v>
   <v type="int" >        4       56       86       87       90 </v>
   <v type="int" >        4       57       60       61       91 </v>
   <v type="int" >        4       56       57       60       91 </v>
   <v type="int" >        4       56       57       87       91 </v>
   <v type="int" >        4       57       61       91       92 </v>
   <v type="int" >        4       57       88       91       92 </v>
   <v type="int" >        4       57       87       88       91 </v>
   <v type="int" >        4       57       58       61       92 </v>
   <v type="int" >        4       57       58       88       92 </v>
   <v type="int" >        4       58       88       89       92 </v>
   <v type="int" >        4       37       41       42       68 </v>
   <v type="int" >        4       36       37       41       68 </v>
   <v type="int" >        4       36       41       67       68 </v>
   <v type="int" >        4       41       42       68       73 </v>
   <v type="int" >        4       41       68       72       73 </v>
   <v type="int" >        4       41       67       68       72 </v>
   <v type="int" >        4       42       49       50       73 </v>
   <v type="int" >        4       41       42       49       73 </v>
   <v type="int" >        4       41       49       72       73 </v>
   <v type="int" >        4       49       50       73       81 </v>
   <v type="int" >        4       49       73       80       81 </v>
   <v type="int" >        4       49       72       73       80 </v>
   <v type="int" >        4       50       55       56       81 </v>
   <v type="int" >        4       49       50       55       81 </v>
   <v type="int" >        4       49       55       80       81 </v>
   <v type="int" >        4       55       56       81       87 </v>
   <v type="int" >        4       55       81       86       87 </v>
   <v type="int" >        4       55       80       81       86 </v>
   <v type="int" >        4       56       59       60       87 </v>
   <v type="int" >        4       55       56       59       87 </v>
   <v type="int" >        4       55       59       86       87 </v>
   <v type="int" >        4       59       60       87       91 </v>
   <v type="int" >        4       59       87       90       91 </v>
   <v type="int" >        4       59       86       87       90 </v>
   <v type="int" >        4       60       60       62       91 </v>
   <v type="int" >        4       59       60       60       91 </v>
   <v type="int" >        4       59       60       90       91 </v>
   <v type="int" >        4       60       62       91       93 </v>
   <v type="int" >        4       60       91       91       93 </v>
   <v type="int" >        4       60       90       91       91 </v>
   <v type="int" >        4       60       61       62       93 </v>
   <v type="int" >        4       60       61       91       93 </v>
   <v type="int" >        4       61       91       92       93 </v>
   <v type="int" >        4       36       42       43       67 </v>
   <v type="int" >        4       36       37       42       67 </v>
   <v type="int" >        4       37       42       67       68 </v>
   <v type="int" >        4       42       43       67       74 </v>
   <v type="int" >        4       42       67       73       74 </v>
   <v type="int" >        4       42       67       68       73 </v>
   <v type="int" >        4       43       50       51       74 </v>
   <v type="int" >        4       42       43       50       74 </v>
   <v type="int" >        4       42       50       73       74 </v>
   <v type="int" >        4       50       51       74       82 </v>
   <v type="int" >        4       50       74       81       82 </v>
   <v type="int" >        4       50       73       74       81 </v>
   <v type="int" >        4       51       56       57       82 </v>
   <v type="int" >        4       50       51       56       82 </v>
   <v type="int" >        4       50       56       81       82 </v>
   <v type="int" >        4       56       57       82       88 </v>
   <v type="int" >        4       56       82       87       88 </v>
   <v type="int" >        4       56       81       82       87 </v>
   <v type="int" >        4       57       60       61       88 </v>
   <v type="int" >        4       56       57       60       88 </v>
   <v type="int" >        4       56       60       87       88 </v>
   <v type="int" >        4       60       61       88       92 </v>
   <v type="int" >        4       60       88       91       92 </v>
   <v type="int" >        4       60       87       88       91 </v>
   <v type="int" >        4       60       61       62       92 </v>
   <v type="int" >        4       60       62       91       92 </v>
   <v type="int" >        4       62       91       92       93 </v>
   <v type="int" >        4       35       43       44       66 </v>
   <v type="int" >        4       35       36       43       66 </v>
   <v type="int" >        4       36       43       66       67 </v>
   <v type="int" >        4       43       44       66       75 </v>
   <v type="int" >        4       43       66       74       75 </v>
   <v type="int" >        4       43       66       67       74 </v>
   <v type="int" >        4       44       51       52       75 </v>
   <v type="int" >        4       43       44       51       75 </v>
   <v type="int" >        4       43       51       74       75 </v>
   <v type="int" >        4       51       52       75       83 </v>
   <v type="int" >        4       51       75       82       83 </v>
   <v type="int" >        4       51       74       75       82 </v>
   <v type="int" >        4       52       57       58       83 </v>
   <v type="int" >        4       51       52       57       83 </v>
   <v type="int" >        4       51       57       82       83 </v>
   <v type="int" >        4       57       58       83       89 </v>
   <v type="int" >        4       57       83       88       89 </v>
   <v type="int" >        4       57       82       83       88 </v>
   <v type="int" >        4       57       58       61       89 </v>
   <v type="int" >        4       57       61       88       89 </v>
   <v type="int" >        4       61       88       89       92 </v>
   <v type="int" >        4       34       44       45       65 </v>
   <v type="int" >        4       34       35       44       65 </v>
   <v type="int" >        4       35       44       65       66 </v>
   <v type="int" >        4       44       45       65       76 </v>
   <v type="int" >        4       44       65       75       76 </v>
   <v type="int" >        4       44       65       66       75 </v>
   <v type="int" >        4       45       52       53       76 </v>
   <v type="int" >        4       44       45       52       76 </v>
   <v type="int" >        4       44       52       75       76 </v>
   <v type="int" >        4       52       53       76       84 </v>
   <v type="int" >        4       52       76       83       84 </v>
   <v type="int" >        4       52       75       76       83 </v>
   <v type="int" >        4       52       53       58       84 </v>
   <v type="int" >        4       52       58       83       84 </v>
   <v type="int" >        4       58       83       84       89 </v>
   <v type="int" >        4       33       45       46       64 </v>
   <v type="int" >        4       33       34       45       64 </v>
   <v type="int" >        4       34       45       64       65 </v>
   <v type="int" >        4       45       46       64       77 </v>
   <v type="int" >        4       45       64       76       77 </v>
   <v type="int" >        4       45       64       65       76 </v>
   <v type="int" >        4       45       46       53       77 </v>
   <v type="int" >        4       45       53       76       77 </v>
   <v type="int" >        4       53       76       77       84 </v>
   <v type="int" >        4       32       33       46       63 </v>
   <v type="int" >        4       33       46       63       64 </v>
   <v type="int" >        4       46       63       64       77 </v>
   <v type="int" >        4       64       64       69       95 </v>
   <v type="int" >        4       63       64       64       95 </v>
   <v type="int" >        4       63       64       94       95 </v>
   <v type="int" >        4       64       69       95      100 </v>
   <v type="int" >        4       64       95       95      100 </v>
   <v type="int" >        4       64       94       95       95 </v>
   <v type="int" >        4       65       69       70      100 </v>
   <v type="int" >        4       64       65       69      100 </v>
   <v type="int" >        4       64       65       95      100 </v>
   <v type="int" >        4       65       70      100      101 </v>
   <v type="int" >        4       65       96      100      101 </v>
   <v type="int" >        4       65       95       96      100 </v>
   <v type="int" >        4       66       70       71      101 </v>
   <v type="int" >        4       65       66       70      101 </v>
   <v type="int" >        4       65       66       96      101 </v>
   <v type="int" >        4       66       71      101      102 </v>
   <v type="int" >        4       66       97      101      102 </v>
   <v type="int" >        4       66       96       97      101 </v>
   <v type="int" >        4       67       71       72      102 </v>
   <v type="int" >        4       66       67       71      102 </v>
   <v type="int" >        4       66       67       97      102 </v>
   <v type="int" >        4       67       72      102      103 </v>
   <v type="int" >        4       67       98      102      103 </v>
   <v type="int" >        4       67       97       98      102 </v>
   <v type="int" >        4       68       72       73      103 </v>
   <v type="int" >        4       67       68       72      103 </v>
   <v type="int" >        4       67       68       98      103 </v>
   <v type="int" >        4       68       73      103      104 </v>
   <v type="int" >        4       68       99      103      104 </v>
   <v type="int" >        4       68       98       99      103 </v>
   <v type="int" >        4       67       73       74      104 </v>
   <v type="int" >        4       67       68       73      104 </v>
   <v type="int" >        4       67       68       99      104 </v>
   <v type="int" >        4       67       74      104      105 </v>
   <v type="int" >        4       67       98      104      105 </v>
   <v type="int" >        4       67       98       99      104 </v>
   <v type="int" >        4       66       74       75      105 </v>
   <v type="int" >        4       66       67       74      105 </v>
   <v type="int" >        4       66       67       98      105 </v>
   <v type="int" >        4       66       75      105      106 </v>
   <v type="int" >        4       66       97      105      106 </v>
   <v type="int" >        4       66       97       98      105 </v>
   <v type="int" >        4       65       75       76      106 </v>
   <v type="int" >        4       65       66       75      106 </v>
   <v type="int" >        4       65       66       97      106 </v>
   <v type="int" >        4       65       76      106      107 </v>
   <v type="int" >        4       65       96      106      107 </v>
   <v type="int" >        4       65       96       97      106 </v>
   <v type="int" >        4       64       76       77      107 </v>
   <v type="int" >        4       64       65       76      107 </v>
   <v type="int" >        4       64       65       96      107 </v>
   <v type="int" >        4       64       77      107      108 </v>
   <v type="int" >        4       64       95      107      108 </v>
   <v type="int" >        4       64       95       96      107 </v>
   <v type="int" >        4       63       64       77      108 </v>
   <v type="int" >        4       63       64       95      108 </v>
   <v type="int" >        4       63       94       95      108 </v>
   <v type="int" >        4       65       69       70       96 </v>
   <v type="int" >        4       64       65       69       96 </v>
   <v type="int" >        4       64       69       95       96 </v>
   <v type="int" >        4       69       70       96      101 </v>
   <v type="int" >        4       69       96      100      101 </v>
   <v type="int" >        4       69       95       96      100 </v>
   <v type="int" >        4       70       70       78      101 </v>
   <v type="int" >        4       69       70       70      101 </v>
   <v type="int" >        4       69       70      100      101 </v>
   <v type="int" >        4       70       78      101      109 </v>
   <v type="int" >        4       70      101      101      109 </v>
   <v type="int" >        4       70      100      101      101 </v>
   <v type="int" >        4       71       78       79      109 </v>
   <v type="int" >        4       70       71       78      109 </v>
   <v type="int" >        4       70       71      101      109 </v>
   <v type="int" >        4       71       79      109      110 </v>
   <v type="int" >        4       71      102      109      110 </v>
   <v type="int" >        4       71      101      102      109 </v>
   <v type="int" >        4       72       79       80      110 </v>
   <v type="int" >        4       71       72       79      110 </v>
   <v type="int" >        4       71       72      102      110 </v>
   <v type="int" >        4       72       80      110      111 </v>
   <v type="int" >        4       72      103      110      111 </v>
   <v type="int" >        4       72      102      103      110 </v>
   <v type="int" >        4       73       80       81      111 </v>
   <v type="int" >        4       72       73       80      111 </v>
   <v type="int" >        4       72       73      103      111 </v>
   <v type="int" >        4       73       81      111      112 </v>
   <v type="int" >        4       73      104      111      112 </v>
   <v type="int" >        4       73      103      104      111 </v>
   <v type="int" >        4       74       81       82      112 </v>
   <v type="int" >        4       73       74       81      112 </v>
   <v type="int" >        4       73       74      104      112 </v>
   <v type="int" >        4       74       82      112      113 </v>
   <v type="int" >        4       74      105      112      113 </v>
   <v type="int" >        4       74      104      105      112 </v>
   <v type="int" >        4       75       82       83      113 </v>
   <v type="int" >        4       74       75       82      113 </v>
   <v type="int" >        4       74       75      105      113 </v>
   <v type="int" >        4       75       83      113      114 </v>
   <v type="int" >        4       75      106      113      114 </v>
   <v type="int" >        4       75      105      106      113 </v>
   <v type="int" >        4       76       83       84      114 </v>
   <v type="int" >        4       75       76       83      114 </v>
   <v type="int" >        4       75       76      106      114 </v>
   <v type="int" >        4       76       84      114      115 </v>
   <v type="int" >        4       76      107      114      115 </v>
   <v type="int" >        4       76      106      107      114 </v>
   <v type="int" >        4       76       77       84      115 </v>
   <v type="int" >        4       76       77      107      115 </v>
   <v type="int" >        4       77      107      108      115 </v>
   <v type="int" >        4       66       70       71       97 </v>
   <v type="int" >        4       65       66       70       97 </v>
   <v type="int" >        4       65       70       96       97 </v>
   <v type="int" >        4       70       71       97      102 </v>
   <v type="int" >        4       70       97      101      102 </v>
   <v type="int" >        4       70       96       97      101 </v>
   <v type="int" >        4       71       78       79      102 </v>
   <v type="int" >        4       70       71       78      102 </v>
   <v type="int" >        4       70       78      101      102 </v>
   <v type="int" >        4       78       79      102      110 </v>
   <v type="int" >        4       78      102      109      110 </v>
   <v type="int" >        4       78      101      102      109 </v>
   <v type="int" >        4       79       79       85      110 </v>
   <v type="int" >        4       78       79       79      110 </v>
   <v type="int" >        4       78       79      109      110 </v>
   <v type="int" >        4       79       85      110      116 </v>
   <v type="int" >        4       79      110      110      116 </v>
   <v type="int" >        4       79      109      110      110 </v>
   <v type="int" >        4       80       85       86      116 </v>
   <v type="int" >        4       79       80       85      116 </v>
   <v type="int" >        4       79       80      110      116 </v>
   <v type="int" >        4       80       86      116      117 </v>
   <v type="int" >        4       80      111      116      117 </v>
   <v type="int" >        4       80      110      111      116 </v>
   <v type="int" >        4       81       86       87      117 </v>
   <v type="int" >        4       80       81       86      117 </v>
   <v type="int" >        4       80       81      111      117 </v>
   <v type="int" >        4       81       87      117      118 </v>
   <v type="int" >        4       81      112      117      118 </v>
   <v type="int" >        4       81      111      112      117 </v>
   <v type="int" >        4       82       87       88      118 </v>
   <v type="int" >        4       81       82       87      118 </v>
   <v type="int" >        4       81       82      112      118 </v>
   <v type="int" >        4       82       88      118      119 </v>
   <v type="int" >        4       82      113      118      119 </v>
   <v type="int" >        4       82      112      113      118 </v>
   <v type="int" >        4       83       88       89      119 </v>
   <v type="int" >        4       82       83       88      119 </v>
   <v type="int" >        4       82       83      113      119 </v>
   <v type="int" >        4       83       89      119      120 </v>
   <v type="int" >        4       83      114      119      120 </v>
   <v type="int" >        4       83      113      114      119 </v>
   <v type="int" >        4       83       84       89      120 </v>
   <v type="int" >        4       83       84      114      120 </v>
   <v type="int" >        4       84      114      115      120 </v>
   <v type="int" >        4       67       71       72       98 </v>
   <v type="int" >        4       66       67       71       98 </v>
   <v type="int" >        4       66       71       97       98 </v>
   <v type="int" >        4       71       72       98      103 </v>
   <v type="int" >        4       71       98      102      103 </v>
   <v type="int" >        4       71       97       98      102 </v>
   <v type="int" >        4       72       79       80      103 </v>
   <v type="int" >        4       71       72       79      103 </v>
   <v type="int" >        4       71       79      102      103 </v>
   <v type="int" >        4       79       80      103      111 </v>
   <v type="int" >        4       79      103      110      111 </v>
   <v type="int" >        4       79      102      103      110 </v>
   <v type="int" >        4       80       85       86      111 </v>
   <v type="int" >        4       79       80       85      111 </v>
   <v type="int" >        4       79       85      110      111 </v>
   <v type="int" >        4       85       86      111      117 </v>
   <v type="int" >        4       85      111      116      117 </v>
   <v type="int" >        4       85      110      111      116 </v>
   <v type="int" >        4       86       86       90      117 </v>
   <v type="int" >        4       85       86       86      117 </v>
   <v type="int" >        4       85       86      116      117 </v>
   <v type="int" >        4       86       90      117      121 </v>
   <v type="int" >        4       86      117      117      121 </v>
   <v type="int" >        4       86      116      117      117 </v>
   <v type="int" >        4       87       90       91      121 </v>
   <v type="int" >        4       86       87       90      121 </v>
   <v type="int" >        4       86       87      117      121 </v>
   <v type="int" >        4       87       91      121      122 </v>
   <v type="int" >        4       87      118      121      122 </v>
   <v type="int" >        4       87      117      118      121 </v>
   <v type="int" >        4       88       91       92      122 </v>
   <v type="int" >        4       87       88       91      122 </v>
   <v type="int" >        4       87       88      118      122 </v>
   <v type="int" >        4       88       92      122      123 </v>
   <v type="int" >        4       88      119      122      123 </v>
   <v type="int" >        4       88      118      119      122 </v>
   <v type="int" >        4       88       89       92      123 </v>
   <v type="int" >        4       88       89      119      123 </v>
   <v type="int" >        4       89      119      120      123 </v>
   <v type="int" >        4       68       72       73       99 </v>
   <v type="int" >        4       67       68       72       99 </v>
   <v type="int" >        4       67       72       98       99 </v>
   <v type="int" >        4       72       73       99      104 </v>
   <v type="int" >        4       72       99      103      104 </v>
   <v type="int" >        4       72       98       99      103 </v>
   <v type="int" >        4       73       80       81      104 </v>
   <v type="int" >        4       72       73       80      104 </v>
   <v type="int" >        4       72       80      103      104 </v>
   <v type="int" >        4       80       81      104      112 </v>
   <v type="int" >        4       80      104      111      112 </v>
   <v type="int" >        4       80      103      104      111 </v>
   <v type="int" >        4       81       86       87      112 </v>
   <v type="int" >        4       80       81       86      112 </v>
   <v type="int" >        4       80       86      111      112 </v>
   <v type="int" >        4       86       87      112      118 </v>
   <v type="int" >        4       86      112      117      118 </v>
   <v type="int" >        4       86      111      112      117 </v>
   <v type="int" >        4       87       90       91      118 </v>
   <v type="int" >        4       86       87       90      118 </v>
   <v type="int" >        4       86       90      117      118 </v>
   <v type="int" >        4       90       91      118      122 </v>
   <v type="int" >        4       90      118      121      122 </v>
   <v type="int" >        4       90      117      118      121 </v>
   <v type="int" >        4       91       91       93      122 </v>
   <v type="int" >        4       90       91       91      122 </v>
   <v type="int" >        4       90       91      121      122 </v>
   <v type="int" >        4       91       93      122      124 </v>
   <v type="int" >        4       91      122      122      124 </v>
   <v type="int" >        4       91      121      122      122 </v>
   <v type="int" >        4       91       92       93      124 </v>
   <v type="int" >        4       91       92      122      124 </v>
   <v type="int" >        4       92      122      123      124 </v>
   <v type="int" >        4       67       73       74       98 </v>
   <v type="int" >        4       67       68       73       98 </v>
   <v type="int" >        4       68       73       98       99 </v>
   <v type="int" >        4       73       74       98      105 </v>
   <v type="int" >        4       73       98      104      105 </v>
   <v type="int" >        4       73       98       99      104 </v>
   <v type="int" >        4       74       81       82      105 </v>
   <v type="int" >        4       73       74       81      105 </v>
   <v type="int" >        4       73       81      104      105 </v>
   <v type="int" >        4       81       82      105      113 </v>
   <v type="int" >        4       81      105      112      113 </v>
   <v type="int" >        4       81      104      105      112 </v>
   <v type="int" >        4       82       87       88      113 </v>
   <v type="int" >        4       81       82       87      113 </v>
   <v type="int" >        4       81       87      112      113 </v>
   <v type="int" >        4       87       88      113      119 </v>
   <v type="int" >        4       87      113      118      119 </v>
   <v type="int" >        4       87      112      113      118 </v>
   <v type="int" >        4       88       91       92      119 </v>
   <v type="int" >        4       87       88       91      119 </v>
   <v type="int" >        4       87       91      118      119 </v>
[...]
       <r>    7.7237    1.0000 </r>
       <r>    9.4300    1.0000 </r>
       <r>    9.4300    1.0000 </r>
       <r>    9.7248    1.0013 </r>
       <r>    9.7248    1.0055 </r>
       <r>   10.0775    0.0749 </r>
       <r>   10.0775   -0.0092 </r>
       <r>   10.5758    0.0000 </r>
       <r>   10.5758    0.0000 </r>
       <r>   10.6879    0.0000 </r>
       <r>   10.6879    0.0000 </r>
       <r>   10.6879    0.0000 </r>
       <r>   10.6879    0.0000 </r>
       <r>   13.3707    0.0000 </r>
       <r>   13.3707    0.0000 </r>
       <r>   13.3707    0.0000 </r>
       <r>   13.3707    0.0000 </r>
       <r>   19.3463    0.0000 </r>
       <r>   19.3463    0.0000 </r>
       <r>   19.3463    0.0000 </r>
       <r>   19.3463    0.0000 </r>
       <r>   22.1608    0.0000 </r>
       <r>   22.1608    0.0000 </r>
       <r>   22.7264    0.0000 </r>
       <r>   22.7264    0.0000 </r>
       <r>   22.7264    0.0000 </r>
       <r>   22.7264    0.0000 </r>
       <r>   23.9306    0.0000 </r>
       <r>   23.9306    0.0000 </r>
       <r>   25.5030    0.0000 </r>
       <r>   25.5086    0.0000 </r>
       <r>   26.1233    0.0000 </r>
       <r>   26.4135    0.0000 </r>
      </set>
      <set comment="kpoint 217">
       <r>    2.7323    1.0000 </r>
       <r>    2.7323    1.0000 </r>
       <r>    2.7323    1.0000 </r>
       <r>    2.7323    1.0000 </r>
       <r>    3.4323    1.0000 </r>
       <r>    3.4323    1.0000 </r>
       <r>    3.4323    1.0000 </r>
       <r>    3.4323    1.0000 </r>
       <r>    4.7543    1.0000 </r>
       <r>    4.7543    1.0000 </r>
       <r>    4.7543    1.0000 </r>
       <r>    4.7543    1.0000 </r>
       <r>    5.0835    1.0000 </r>
       <r>    5.0835    1.0000 </r>
       <r>    5.0835    1.0000 </r>
       <r>    5.0835    1.0000 </r>
       <r>    5.9709    1.0000 </r>
       <r>    5.9709    1.0000 </r>
       <r>    5.9709    1.0000 </r>
       <r>    5.9709    1.0000 </r>
       <r>    6.2394    1.0000 </r>
       <r>    6.2394    1.0000 </r>
       <r>    6.2394    1.0000 </r>
       <r>    6.2394    1.0000 </r>
       <r>    7.4528    1.0000 </r>
       <r>    7.4528    1.0000 </r>
       <r>    7.4528    1.0000 </r>
       <r>    7.4528    1.0000 </r>
       <r>    7.4712    1.0000 </r>
       <r>    7.4712    1.0000 </r>
       <r>    7.4712    1.0000 </r>
       <r>    7.4712    1.0000 </r>
       <r>    9.5070    1.0000 </r>
       <r>    9.5070    1.0000 </r>
       <r>    9.5070    1.0000 </r>
       <r>    9.5070    1.0000 </r>
       <r>   10.3199   -0.1363 </r>
       <r>   10.3199   -0.1566 </r>
       <r>   10.3199    0.0000 </r>
       <r>   10.3199    0.0000 </r>
       <r>   10.7129    0.0000 </r>
       <r>   10.7129    0.0000 </r>
       <r>   10.7129    0.0000 </r>
       <r>   10.7129    0.0000 </r>
       <r>   13.4589    0.0000 </r>
       <r>   13.4589    0.0000 </r>
       <r>   13.4589    0.0000 </r>
       <r>   13.4589    0.0000 </r>
       <r>   19.6982    0.0000 </r>
       <r>   19.6982    0.0000 </r>
       <r>   19.6982    0.0000 </r>
       <r>   19.6982    0.0000 </r>
       <r>   22.2928    0.0000 </r>
       <r>   22.2928    0.0000 </r>
       <r>   22.2928    0.0000 </r>
       <r>   22.2928    0.0000 </r>
       <r>   23.3164    0.0000 </r>
       <r>   23.3164    0.0000 </r>
       <r>   23.3164    0.0000 </r>
       <r>   23.3164    0.0000 </r>
       <r>   25.7104    0.0000 </r>
       <r>   25.7117    0.0000 </r>
       <r>   25.7135    0.0000 </r>
       <r>   26.5545    0.0000 </r>
      </set>
     </set>
    </set>
   </array>
  </eigenvalues>
  <separator name="orbital magnetization" >
   <v name="MAGDIPOLOUT">      0.00000000      0.00000000      0.00000000</v>
  </separator>
  <dos>
   <i name="efermi">      9.97921214 </i>
   <total>
    <array>
     <dimension dim="1">gridpoints</dimension>
     <dimension dim="2">spin</dimension>
     <field>energy</field>
     <field>total</field>
     <field>integrated</field>
     <set>
      <set comment="spin 1">
       <r>    -2.2948     0.0000     0.0000 </r>
       <r>    -2.1891     0.0000     0.0000 </r>
       <r>    -2.0833     0.0000     0.0000 </r>
       <r>    -1.9775     0.0000     0.0000 </r>
       <r>    -1.8717     0.0000     0.0000 </r>
       <r>    -1.7659     0.0000     0.0000 </r>
       <r>    -1.6601     0.0000     0.0000 </r>
       <r>    -1.5543     0.0000     0.0000 </r>
       <r>    -1.4485     0.0000     0.0000 </r>
       <r>    -1.3427     0.0000     0.0000 </r>
       <r>    -1.2370     0.0000     0.0000 </r>
       <r>    -1.1312     0.0000     0.0000 </r>
       <r>    -1.0254     0.0000     0.0000 </r>
       <r>    -0.9196     0.0000     0.0000 </r>
       <r>    -0.8138     0.0215     0.0003 </r>
       <r>    -0.7080     0.1591     0.0114 </r>
       <r>    -0.6022     0.2153     0.0304 </r>
       <r>    -0.4964     0.2793     0.0571 </r>
       <r>    -0.3906     0.3121     0.0880 </r>
       <r>    -0.2849     0.3594     0.1235 </r>
       <r>    -0.1791     0.4071     0.1642 </r>
       <r>    -0.0733     0.4405     0.2090 </r>
       <r>     0.0325     0.4761     0.2574 </r>
       <r>     0.1383     0.5163     0.3099 </r>
       <r>     0.2441     0.5608     0.3668 </r>
       <r>     0.3499     0.5971     0.4282 </r>
       <r>     0.4557     0.6347     0.4933 </r>
       <r>     0.5615     0.6758     0.5626 </r>
       <r>     0.6673     0.7202     0.6364 </r>
       <r>     0.7730     0.7665     0.7150 </r>
       <r>     0.8788     0.8130     0.7985 </r>
       <r>     0.9846     0.9591     0.8902 </r>
       <r>     1.0904     0.9850     0.9934 </r>
       <r>     1.1962     0.9511     1.0966 </r>
       <r>     1.3020     0.9479     1.1963 </r>
       <r>     1.4078     1.1696     1.3006 </r>
       <r>     1.5136     1.1699     1.4240 </r>
       <r>     1.6194     1.2630     1.5599 </r>
       <r>     1.7251     1.3393     1.6983 </r>
       <r>     1.8309     1.4786     1.8472 </r>
       <r>     1.9367     1.6354     2.0111 </r>
       <r>     2.0425     1.8774     2.1964 </r>
       <r>     2.1483     2.4461     2.4402 </r>
       <r>     2.2541     4.1232     2.7624 </r>
       <r>     2.3599     6.8788     3.3817 </r>
       <r>     2.4657     6.7194     4.0815 </r>
       <r>     2.5715     5.9313     4.7350 </r>
       <r>     2.6772     7.0500     5.4396 </r>
       <r>     2.7830     6.5592     6.1357 </r>
       <r>     2.8888     8.0091     6.9215 </r>
       <r>     2.9946     8.5759     7.8302 </r>
       <r>     3.1004     8.3534     8.7290 </r>
       <r>     3.2062     8.8229     9.6442 </r>
       <r>     3.3120     9.0530    10.5879 </r>
       <r>     3.4178    10.2689    11.5893 </r>
       <r>     3.5236    10.5773    12.7441 </r>
       <r>     3.6293     7.7503    13.6998 </r>
       <r>     3.7351     8.1471    14.5352 </r>
       <r>     3.8409     7.7004    15.3963 </r>
       <r>     3.9467     6.4076    16.1247 </r>
       <r>     4.0525     4.8820    16.7190 </r>
       <r>     4.1583    13.8818    17.5061 </r>
       <r>     4.2641    11.6123    18.8893 </r>
       <r>     4.3699     9.2334    20.0688 </r>
       <r>     4.4757     7.4007    20.9505 </r>
       <r>     4.5814     6.9625    21.7552 </r>
       <r>     4.6872     8.4695    22.5563 </r>
       <r>     4.7930    12.3872    23.5863 </r>
       <r>     4.8988    10.5389    24.6891 </r>
       <r>     5.0046    12.6274    25.9563 </r>
       <r>     5.1104    11.2022    27.3162 </r>
       <r>     5.2162     9.8818    28.3999 </r>
       <r>     5.3220     7.7003    29.3824 </r>
       <r>     5.4278     4.4896    29.9946 </r>
       <r>     5.5335     4.1441    30.4424 </r>
       <r>     5.6393     6.4755    30.9352 </r>
       <r>     5.7451    10.3106    31.9143 </r>
       <r>     5.8509    16.3403    33.2938 </r>
       <r>     5.9567    16.1444    34.9662 </r>
       <r>     6.0625    12.7504    36.3723 </r>
       <r>     6.1683    13.5124    37.6906 </r>
       <r>     6.2741    11.1716    39.0134 </r>
       <r>     6.3799    11.8591    40.2208 </r>
       <r>     6.4857    12.8420    41.5271 </r>
       <r>     6.5914    11.7471    42.9118 </r>
       <r>     6.6972    14.1444    44.1733 </r>
       <r>     6.8030    12.4386    45.5436 </r>
       <r>     6.9088    10.8606    46.7790 </r>
       <r>     7.0146    14.0714    48.0939 </r>
       <r>     7.1204    14.7878    49.6780 </r>
       <r>     7.2262    12.6233    51.1822 </r>
       <r>     7.3320    10.0640    52.3509 </r>
       <r>     7.4378     9.1136    53.3603 </r>
       <r>     7.5435    11.0045    54.4086 </r>
       <r>     7.6493     8.0022    55.3712 </r>
       <r>     7.7551     7.6156    56.2321 </r>
       <r>     7.8609     7.4891    57.0102 </r>
       <r>     7.9667     7.9863    57.8668 </r>
       <r>     8.0725     6.7792    58.6640 </r>
       <r>     8.1783     6.8120    59.3774 </r>
       <r>     8.2841     7.2079    60.1340 </r>
       <r>     8.3899     5.7185    60.8123 </r>
       <r>     8.4956     8.4263    61.4955 </r>
       <r>     8.6014     6.3707    62.2305 </r>
       <r>     8.7072     5.6614    62.8599 </r>
       <r>     8.8130     5.3618    63.4510 </r>
       <r>     8.9188     4.9618    63.9796 </r>
       <r>     9.0246     6.7520    64.6008 </r>
       <r>     9.1304     7.1025    65.3634 </r>
       <r>     9.2362     6.3140    66.0752 </r>
       <r>     9.3420     6.4172    66.7276 </r>
       <r>     9.4477     7.3350    67.5023 </r>
       <r>     9.5535     5.9813    68.1364 </r>
       <r>     9.6593     8.3457    68.9229 </r>
       <r>     9.7651     9.8007    69.8757 </r>
       <r>     9.8709    10.1846    70.9964 </r>
       <r>     9.9767     8.6147    71.9783 </r>
       <r>    10.0825     9.9601    72.9124 </r>
       <r>    10.1883    12.4633    74.0937 </r>
       <r>    10.2941    12.9990    75.4369 </r>
       <r>    10.3998    13.2986    76.8373 </r>
       <r>    10.5056    12.7822    78.2209 </r>
       <r>    10.6114    19.8772    79.9870 </r>
       <r>    10.7172    13.0549    81.5078 </r>
       <r>    10.8230    11.8189    82.9247 </r>
       <r>    10.9288     9.6511    84.0653 </r>
       <r>    11.0346     4.0341    84.7660 </r>
       <r>    11.1404     2.3598    85.0725 </r>
       <r>    11.2462     2.1192    85.3044 </r>
       <r>    11.3519     2.2654    85.5354 </r>
       <r>    11.4577     2.4759    85.7852 </r>
       <r>    11.5635     3.0208    86.0594 </r>
       <r>    11.6693     2.3952    86.3332 </r>
       <r>    11.7751     2.2432    86.5812 </r>
       <r>    11.8809     2.1727    86.8161 </r>
       <r>    11.9867     2.3412    87.0463 </r>
       <r>    12.0925     2.1342    87.2737 </r>
       <r>    12.1983     2.1900    87.5021 </r>
       <r>    12.3041     2.2837    87.7386 </r>
       <r>    12.4098     2.3283    87.9831 </r>
       <r>    12.5156     2.4073    88.2396 </r>
       <r>    12.6214     2.6061    88.4994 </r>
       <r>    12.7272     2.2842    88.7603 </r>
       <r>    12.8330     2.1898    88.9949 </r>
       <r>    12.9388     2.1535    89.2255 </r>
       <r>    13.0446     2.0204    89.4465 </r>
       <r>    13.1504     1.9481    89.6545 </r>
       <r>    13.2562     1.8000    89.8609 </r>
       <r>    13.3619     1.8109    90.0521 </r>
       <r>    13.4677     1.8485    90.2447 </r>
       <r>    13.5735     1.8839    90.4437 </r>
       <r>    13.6793     1.9115    90.6454 </r>
       <r>    13.7851     1.8593    90.8449 </r>
       <r>    13.8909     1.8782    91.0413 </r>
       <r>    13.9967     1.9852    91.2469 </r>
       <r>    14.1025     1.9996    91.4592 </r>
       <r>    14.2083     2.0041    91.6712 </r>
       <r>    14.3140     1.9267    91.8770 </r>
       <r>    14.4198     2.0232    92.0859 </r>
       <r>    14.5256     2.3257    92.3144 </r>
       <r>    14.6314     2.5451    92.5750 </r>
       <r>    14.7372     2.6052    92.8411 </r>
       <r>    14.8430     2.0962    93.0803 </r>
       <r>    14.9488     1.9663    93.2949 </r>
       <r>    15.0546     1.8508    93.4955 </r>
       <r>    15.1604     1.7983    93.6882 </r>
       <r>    15.2661     1.8691    93.8787 </r>
       <r>    15.3719     1.7445    94.0720 </r>
       <r>    15.4777     1.6887    94.2536 </r>
       <r>    15.5835     1.6289    94.4292 </r>
       <r>    15.6893     1.5652    94.5980 </r>
       <r>    15.7951     1.5111    94.7606 </r>
       <r>    15.9009     1.4582    94.9189 </r>
       <r>    16.0067     1.4052    95.0700 </r>
       <r>    16.1125     1.2576    95.2139 </r>
       <r>    16.2182     1.1379    95.3395 </r>
       <r>    16.3240     1.1220    95.4586 </r>
       <r>    16.4298     1.2641    95.5842 </r>
       <r>    16.5356     1.3982    95.7224 </r>
       <r>    16.6414     1.3434    95.8799 </r>
       <r>    16.7472     1.0828    96.0073 </r>
       <r>    16.8530     0.8881    96.1092 </r>
       <r>    16.9588     0.9176    96.2031 </r>
       <r>    17.0646     1.0006    96.3031 </r>
       <r>    17.1703     1.3021    96.4185 </r>
       <r>    17.2761     3.0115    96.6275 </r>
       <r>    17.3819     3.1213    96.9564 </r>
       <r>    17.4877     4.3700    97.3637 </r>
       <r>    17.5935     5.4021    97.8821 </r>
       <r>    17.6993     4.3985    98.3792 </r>
       <r>    17.8051     4.2451    98.8335 </r>
       <r>    17.9109     3.7705    99.2607 </r>
       <r>    18.0167     3.4440    99.6411 </r>
       <r>    18.1225     3.1875    99.9999 </r>
       <r>    18.2282     3.2081   100.3346 </r>
       <r>    18.3340     3.2437   100.6708 </r>
       <r>    18.4398     3.8097   101.0353 </r>
       <r>    18.5456     2.9221   101.3866 </r>
       <r>    18.6514     2.5935   101.6694 </r>
       <r>    18.7572     2.5704   101.9423 </r>
       <r>    18.8630     2.6564   102.2197 </r>
       <r>    18.9688     2.6451   102.5017 </r>
       <r>    19.0746     2.6913   102.7820 </r>
       <r>    19.1803     2.7464   103.0736 </r>
       <r>    19.2861     2.6512   103.3571 </r>
       <r>    19.3919     2.6875   103.6392 </r>
       <r>    19.4977     2.7521   103.9264 </r>
       <r>    19.6035     2.8368   104.2215 </r>
       <r>    19.7093     3.0617   104.5327 </r>
       <r>    19.8151     3.3832   104.8742 </r>
       <r>    19.9209     3.4177   105.2380 </r>
       <r>    20.0267     2.8012   105.5657 </r>
       <r>    20.1324     2.4864   105.8434 </r>
       <r>    20.2382     2.3493   106.0966 </r>
       <r>    20.3440     2.3652   106.3449 </r>
       <r>    20.4498     2.5345   106.6031 </r>
       <r>    20.5556     2.9119   106.8914 </r>
       <r>    20.6614     3.1205   107.2113 </r>
       <r>    20.7672     3.1705   107.5482 </r>
       <r>    20.8730     2.8014   107.8616 </r>
       <r>    20.9788     2.6570   108.1477 </r>
       <r>    21.0845     2.7627   108.4352 </r>
       <r>    21.1903     2.6925   108.7219 </r>
       <r>    21.2961     2.7693   109.0115 </r>
       <r>    21.4019     2.8024   109.3044 </r>
       <r>    21.5077     2.8829   109.6091 </r>
       <r>    21.6135     2.8454   109.9115 </r>
       <r>    21.7193     2.7758   110.2057 </r>
       <r>    21.8251     2.7593   110.4978 </r>
       <r>    21.9309     2.7371   110.7871 </r>
       <r>    22.0366     2.6456   111.0727 </r>
       <r>    22.1424     2.7896   111.3561 </r>
       <r>    22.2482     2.8975   111.6679 </r>
       <r>    22.3540     2.9464   111.9768 </r>
       <r>    22.4598     3.0332   112.2924 </r>
       <r>    22.5656     3.1023   112.6198 </r>
       <r>    22.6714     2.5253   112.9216 </r>
       <r>    22.7772     2.2291   113.1735 </r>
       <r>    22.8830     2.2118   113.4016 </r>
       <r>    22.9887     2.6432   113.6567 </r>
       <r>    23.0945     2.9901   113.9577 </r>
       <r>    23.2003     2.8892   114.2690 </r>
       <r>    23.3061     3.0393   114.5797 </r>
       <r>    23.4119     3.2222   114.9088 </r>
       <r>    23.5177     3.3428   115.2495 </r>
       <r>    23.6235     3.5550   115.6095 </r>
       <r>    23.7293     3.8961   116.0068 </r>
       <r>    23.8351     4.3521   116.4451 </r>
       <r>    23.9409     4.7021   116.9243 </r>
       <r>    24.0466     5.0072   117.4400 </r>
       <r>    24.1524     4.7957   117.9535 </r>
       <r>    24.2582     4.1536   118.4525 </r>
       <r>    24.3640     4.0707   118.8749 </r>
       <r>    24.4698     4.4280   119.3226 </r>
       <r>    24.5756     5.3666   119.8351 </r>
       <r>    24.6814     6.2535   120.4597 </r>
       <r>    24.7872     6.6340   121.1619 </r>
       <r>    24.8930     6.5391   121.8511 </r>
       <r>    24.9987     6.5129   122.5477 </r>
       <r>    25.1045     4.7199   123.1353 </r>
       <r>    25.2103     4.0983   123.5929 </r>
       <r>    25.3161     4.0351   124.0146 </r>
       <r>    25.4219     5.3198   124.4918 </r>
       <r>    25.5277     4.5694   125.0296 </r>
       <r>    25.6335     3.9919   125.4794 </r>
       <r>    25.7393     3.5240   125.8752 </r>
       <r>    25.8451     2.9067   126.2176 </r>
       <r>    25.9508     3.1021   126.5172 </r>
       <r>    26.0566     2.7697   126.8280 </r>
       <r>    26.1624     2.5188   127.1004 </r>
       <r>    26.2682     2.4755   127.3672 </r>
       <r>    26.3740     1.7814   127.5977 </r>
       <r>    26.4798     0.9768   127.7391 </r>
       <r>    26.5856     0.5754   127.8177 </r>
       <r>    26.6914     0.3816   127.8676 </r>
       <r>    26.7972     0.2565   127.9008 </r>
       <r>    26.9029     0.1879   127.9239 </r>
       <r>    27.0087     0.1535   127.9418 </r>
       <r>    27.1145     0.1262   127.9566 </r>
       <r>    27.2203     0.0982   127.9684 </r>
       <r>    27.3261     0.0793   127.9777 </r>
       <r>    27.4319     0.0646   127.9853 </r>
       <r>    27.5377     0.0510   127.9914 </r>
       <r>    27.6435     0.0375   127.9961 </r>
       <r>    27.7493     0.0191   127.9994 </r>
       <r>    27.8550     0.0020   127.9999 </r>
       <r>    27.9608     0.0001   128.0000 </r>
       <r>    28.0666     0.0000   128.0000 </r>
       <r>    28.1724     0.0000   128.0000 </r>
       <r>    28.2782     0.0000   128.0000 </r>
       <r>    28.3840     0.0000   128.0000 </r>
       <r>    28.4898     0.0000   128.0000 </r>
       <r>    28.5956     0.0000   128.0000 </r>
       <r>    28.7014     0.0000   128.0000 </r>
       <r>    28.8071     0.0000   128.0000 </r>
       <r>    28.9129     0.0000   128.0000 </r>
       <r>    29.0187     0.0000   128.0000 </r>
       <r>    29.1245     0.0000   128.0000 </r>
       <r>    29.2303     0.0000   128.0000 </r>
       <r>    29.3361     0.0000   128.0000 </r>
       <r>    29.4419     0.0000   128.0000 </r>
      </set>
     </set>
    </array>
   </total>
  </dos>
 </calculation>
 <structure name="finalpos" >
  <crystal>
   <varray name="basis" >
    <v>       5.50193187      -0.00006119       0.00000000 </v>
    <v>      -2.75101893       4.76478207       0.00000000 </v>
    <v>       0.00000000       0.00000000       4.45641044 </v>
   </varray>
   <i name="volume">    116.82630585 </i>
   <varray name="rec_basis" >
    <v>       0.18175551       0.10493929       0.00000000 </v>
    <v>       0.00000233       0.20987453       0.00000000 </v>
    <v>       0.00000000       0.00000000       0.22439585 </v>
   </varray>
  </crystal>
  <varray name="positions" >
   <v>       0.33331361       0.66668639       0.25000000 </v>
   <v>       0.66668639       0.33331361       0.75000000 </v>
   <v>       0.83331361       0.66668639       0.25000000 </v>
   <v>       0.83331361       0.16668639       0.25000000 </v>
   <v>       0.33331361       0.16668639       0.25000000 </v>
   <v>       0.16668639       0.33331361       0.75000000 </v>
   <v>       0.66668639       0.83331361       0.75000000 </v>
   <v>       0.16668639       0.83331361       0.75000000 </v>
  </varray>
 </structure>
</modeling>
