       N       E                     dE             d eps       ncg     rms          rms(c)
RMM:   1     0.136790596702E+05    0.13679E+05   -0.47218E+05 25080   0.725E+02
RMM:   2     0.131337865109E+04   -0.12366E+05   -0.13120E+05 25080   0.260E+02
RMM:   3    -0.104565822983E+04   -0.23590E+04   -0.22855E+04 25080   0.111E+02
RMM:   4    -0.184599111301E+04   -0.80033E+03   -0.57406E+03 25080   0.768E+01
RMM:   5    -0.212910660380E+04   -0.28312E+03   -0.24896E+03 25080   0.451E+01
RMM:   6    -0.227482763567E+04   -0.14572E+03   -0.12952E+03 25080   0.349E+01
RMM:   7    -0.235269012076E+04   -0.77862E+02   -0.73853E+02 25080   0.235E+01
RMM:   8    -0.240018805199E+04   -0.47498E+02   -0.44556E+02 25080   0.195E+01
RMM:   9    -0.247908554558E+04   -0.78897E+02   -0.77977E+02 71880   0.137E+01
RMM:  10    -0.248863521126E+04   -0.95497E+01   -0.11973E+02 79663   0.282E+00
RMM:  11    -0.249087710954E+04   -0.22419E+01   -0.17851E+01 77273   0.686E-01
RMM:  12    -0.249118298536E+04   -0.30588E+00   -0.19790E+00 79531   0.198E-01    0.782E+01
RMM:  13    -0.241365343592E+04    0.77530E+02   -0.68488E+02 57179   0.246E+01    0.583E+01
RMM:  14    -0.236778170592E+04    0.45872E+02   -0.34128E+02 51444   0.174E+01    0.416E+01
RMM:  15    -0.233561254673E+04    0.32169E+02   -0.11843E+02 53319   0.101E+01    0.255E+01
RMM:  16    -0.232132278708E+04    0.14290E+02   -0.25845E+01 56030   0.434E+00    0.439E+00
RMM:  17    -0.232149782633E+04   -0.17504E+00   -0.64583E+00 73699   0.130E+00    0.435E+00
RMM:  18    -0.232113293267E+04    0.36489E+00   -0.11704E+00 64677   0.691E-01    0.344E+00
RMM:  19    -0.232075019833E+04    0.38273E+00   -0.65141E-01 59784   0.746E-01    0.166E+00
RMM:  20    -0.232069628347E+04    0.53915E-01   -0.24244E-01 63328   0.357E-01    0.152E+00
RMM:  21    -0.232065945060E+04    0.36833E-01   -0.11082E-01 62662   0.234E-01    0.121E+00
RMM:  22    -0.232063458049E+04    0.24870E-01   -0.47152E-02 61240   0.158E-01    0.710E-01
RMM:  23    -0.232062938416E+04    0.51963E-02   -0.13335E-02 67127   0.676E-02    0.491E-01
RMM:  24    -0.232062577537E+04    0.36088E-02   -0.10473E-02 62417   0.761E-02    0.246E-01
RMM:  25    -0.232062670968E+04   -0.93432E-03   -0.13200E-02 66145   0.794E-02    0.256E-01
RMM:  26    -0.232062686955E+04   -0.15986E-03   -0.32842E-03 74787   0.291E-02    0.266E-01
RMM:  27    -0.232062597483E+04    0.89472E-03   -0.68922E-04 60160   0.201E-02    0.177E-01
RMM:  28    -0.232062543315E+04    0.54168E-03   -0.95587E-04 64089   0.223E-02    0.818E-02
RMM:  29    -0.232062531088E+04    0.12227E-03   -0.59393E-04 69981   0.158E-02    0.287E-02
RMM:  30    -0.232062529150E+04    0.19387E-04   -0.11805E-04 71013   0.628E-03
   1 F= -.23206253E+04 E0= -.23206253E+04  d E =-.111994E-03
