 256 256   0   0
  0.1418917E+02  0.1588033E-08  0.1692661E-08  0.1693229E-08  0.5000000E-15
  1.000000000000000E-004
  CAR 
 Ir_Ru                                   
     14.25369341     -1.29170140  301      9.45687729      1.00000000
     -1.292  0.0000E+00  0.0000E+00
     -1.240  0.0000E+00  0.0000E+00
     -1.188  0.0000E+00  0.0000E+00
     -1.136 -0.2697E-30 -0.1397E-31
     -1.084 -0.1224E-26 -0.6345E-28
     -1.033 -0.3235E-23 -0.1677E-24
     -0.981 -0.4971E-20 -0.2577E-21
     -0.929 -0.4439E-17 -0.2303E-18
     -0.877 -0.2242E-14 -0.1164E-15
     -0.825 -0.6682E-12 -0.3474E-13
     -0.774 -0.1154E-09 -0.6015E-11
     -0.722 -0.1149E-07 -0.6012E-09
     -0.670 -0.6559E-06 -0.3459E-07
     -0.618 -0.2138E-04 -0.1142E-05
     -0.566 -0.3948E-03 -0.2160E-04
     -0.514 -0.4091E-02 -0.2336E-03
     -0.463 -0.2354E-01 -0.1453E-02
     -0.411 -0.7377E-01 -0.5276E-02
     -0.359 -0.1031E+00 -0.1062E-01
     -0.307  0.1876E+00 -0.8985E-03
     -0.255  0.1578E+01  0.8088E-01
     -0.204  0.4317E+01  0.3046E+00
     -0.152  0.6329E+01  0.6325E+00
     -0.100  0.6427E+01  0.9655E+00
     -0.048  0.6917E+01  0.1324E+01
      0.004  0.8783E+01  0.1779E+01
      0.056  0.1109E+02  0.2354E+01
      0.107  0.1353E+02  0.3055E+01
      0.159  0.1438E+02  0.3800E+01
      0.211  0.1183E+02  0.4413E+01
      0.263  0.1002E+02  0.4933E+01
      0.315  0.1399E+02  0.5658E+01
      0.366  0.2014E+02  0.6701E+01
      0.418  0.2249E+02  0.7867E+01
      0.470  0.2267E+02  0.9041E+01
      0.522  0.2348E+02  0.1026E+02
      0.574  0.2263E+02  0.1143E+02
      0.626  0.2049E+02  0.1249E+02
      0.677  0.2093E+02  0.1358E+02
      0.729  0.2057E+02  0.1464E+02
      0.781  0.1500E+02  0.1542E+02
      0.833  0.9091E+01  0.1589E+02
      0.885  0.7936E+01  0.1630E+02
      0.936  0.1138E+02  0.1689E+02
      0.988  0.1837E+02  0.1784E+02
      1.040  0.2733E+02  0.1926E+02
      1.092  0.3319E+02  0.2098E+02
      1.144  0.3324E+02  0.2270E+02
      1.196  0.2918E+02  0.2421E+02
      1.247  0.2321E+02  0.2542E+02
      1.299  0.1955E+02  0.2643E+02
      1.351  0.2136E+02  0.2754E+02
      1.403  0.2677E+02  0.2892E+02
      1.455  0.3026E+02  0.3049E+02
      1.506  0.2992E+02  0.3204E+02
      1.558  0.2932E+02  0.3356E+02
      1.610  0.3031E+02  0.3513E+02
      1.662  0.3110E+02  0.3674E+02
      1.714  0.3190E+02  0.3840E+02
      1.766  0.3471E+02  0.4020E+02
      1.817  0.3867E+02  0.4220E+02
      1.869  0.4471E+02  0.4452E+02
      1.921  0.5381E+02  0.4731E+02
      1.973  0.5931E+02  0.5038E+02
      2.025  0.5545E+02  0.5325E+02
      2.076  0.5046E+02  0.5587E+02
      2.128  0.5969E+02  0.5896E+02
      2.180  0.8422E+02  0.6332E+02
      2.232  0.1070E+03  0.6887E+02
      2.284  0.1189E+03  0.7503E+02
      2.336  0.1252E+03  0.8152E+02
      2.387  0.1309E+03  0.8830E+02
      2.439  0.1368E+03  0.9539E+02
      2.491  0.1458E+03  0.1029E+03
      2.543  0.1623E+03  0.1114E+03
      2.595  0.1812E+03  0.1207E+03
      2.646  0.1939E+03  0.1308E+03
      2.698  0.2050E+03  0.1414E+03
      2.750  0.2217E+03  0.1529E+03
      2.802  0.2308E+03  0.1649E+03
      2.854  0.2253E+03  0.1765E+03
      2.906  0.2264E+03  0.1883E+03
      2.957  0.2430E+03  0.2009E+03
      3.009  0.2571E+03  0.2142E+03
      3.061  0.2600E+03  0.2277E+03
      3.113  0.2603E+03  0.2411E+03
      3.165  0.2633E+03  0.2548E+03
      3.216  0.2715E+03  0.2689E+03
      3.268  0.2859E+03  0.2837E+03
      3.320  0.3049E+03  0.2995E+03
      3.372  0.3228E+03  0.3162E+03
      3.424  0.3308E+03  0.3333E+03
      3.476  0.3288E+03  0.3504E+03
      3.527  0.3223E+03  0.3671E+03
      3.579  0.3185E+03  0.3836E+03
      3.631  0.3170E+03  0.4000E+03
      3.683  0.3118E+03  0.4162E+03
      3.735  0.3057E+03  0.4320E+03
      3.786  0.3015E+03  0.4476E+03
      3.838  0.2974E+03  0.4630E+03
      3.890  0.2937E+03  0.4783E+03
      3.942  0.2896E+03  0.4933E+03
      3.994  0.2783E+03  0.5077E+03
      4.046  0.2669E+03  0.5215E+03
      4.097  0.2731E+03  0.5357E+03
      4.149  0.2917E+03  0.5508E+03
      4.201  0.3022E+03  0.5664E+03
      4.253  0.3047E+03  0.5822E+03
      4.305  0.3111E+03  0.5984E+03
      4.356  0.3184E+03  0.6149E+03
      4.408  0.3211E+03  0.6315E+03
      4.460  0.3233E+03  0.6482E+03
      4.512  0.3220E+03  0.6649E+03
      4.564  0.3118E+03  0.6811E+03
      4.616  0.2988E+03  0.6966E+03
      4.667  0.2934E+03  0.7118E+03
      4.719  0.2971E+03  0.7272E+03
      4.771  0.3044E+03  0.7429E+03
      4.823  0.3154E+03  0.7593E+03
      4.875  0.3295E+03  0.7764E+03
      4.926  0.3370E+03  0.7938E+03
      4.978  0.3434E+03  0.8116E+03
      5.030  0.3561E+03  0.8301E+03
      5.082  0.3650E+03  0.8490E+03
      5.134  0.3650E+03  0.8679E+03
      5.186  0.3575E+03  0.8864E+03
      5.237  0.3392E+03  0.9040E+03
      5.289  0.3087E+03  0.9200E+03
      5.341  0.2689E+03  0.9339E+03
      5.393  0.2255E+03  0.9456E+03
      5.445  0.1891E+03  0.9554E+03
      5.496  0.1726E+03  0.9644E+03
      5.548  0.1842E+03  0.9739E+03
      5.600  0.2193E+03  0.9853E+03
      5.652  0.2664E+03  0.9991E+03
      5.704  0.3168E+03  0.1015E+04
      5.756  0.3609E+03  0.1034E+04
      5.807  0.3911E+03  0.1054E+04
      5.859  0.4083E+03  0.1076E+04
      5.911  0.4179E+03  0.1097E+04
      5.963  0.4245E+03  0.1119E+04
      6.015  0.4283E+03  0.1141E+04
      6.066  0.4199E+03  0.1163E+04
      6.118  0.3968E+03  0.1184E+04
      6.170  0.3750E+03  0.1203E+04
      6.222  0.3629E+03  0.1222E+04
      6.274  0.3564E+03  0.1240E+04
      6.326  0.3553E+03  0.1259E+04
      6.377  0.3658E+03  0.1278E+04
      6.429  0.3802E+03  0.1298E+04
      6.481  0.3842E+03  0.1317E+04
      6.533  0.3891E+03  0.1338E+04
      6.585  0.4060E+03  0.1359E+04
      6.636  0.4219E+03  0.1381E+04
      6.688  0.4279E+03  0.1403E+04
      6.740  0.4265E+03  0.1425E+04
      6.792  0.4168E+03  0.1446E+04
      6.844  0.3971E+03  0.1467E+04
      6.896  0.3766E+03  0.1486E+04
      6.947  0.3672E+03  0.1506E+04
      6.999  0.3641E+03  0.1524E+04
      7.051  0.3656E+03  0.1543E+04
      7.103  0.3849E+03  0.1563E+04
      7.155  0.4107E+03  0.1585E+04
      7.206  0.4216E+03  0.1606E+04
      7.258  0.4228E+03  0.1628E+04
      7.310  0.4169E+03  0.1650E+04
      7.362  0.3949E+03  0.1670E+04
      7.414  0.3650E+03  0.1689E+04
      7.466  0.3435E+03  0.1707E+04
      7.517  0.3337E+03  0.1724E+04
      7.569  0.3299E+03  0.1741E+04
      7.621  0.3208E+03  0.1758E+04
      7.673  0.3011E+03  0.1774E+04
      7.725  0.2811E+03  0.1788E+04
      7.776  0.2703E+03  0.1802E+04
      7.828  0.2648E+03  0.1816E+04
      7.880  0.2592E+03  0.1829E+04
      7.932  0.2507E+03  0.1842E+04
      7.984  0.2435E+03  0.1855E+04
      8.036  0.2432E+03  0.1868E+04
      8.087  0.2410E+03  0.1880E+04
      8.139  0.2332E+03  0.1892E+04
      8.191  0.2287E+03  0.1904E+04
      8.243  0.2319E+03  0.1916E+04
      8.295  0.2369E+03  0.1928E+04
      8.346  0.2390E+03  0.1941E+04
      8.398  0.2380E+03  0.1953E+04
      8.450  0.2314E+03  0.1965E+04
      8.502  0.2209E+03  0.1977E+04
      8.554  0.2133E+03  0.1988E+04
      8.606  0.2086E+03  0.1998E+04
      8.657  0.2020E+03  0.2009E+04
      8.709  0.1937E+03  0.2019E+04
      8.761  0.1852E+03  0.2028E+04
      8.813  0.1796E+03  0.2038E+04
      8.865  0.1840E+03  0.2047E+04
      8.916  0.2052E+03  0.2058E+04
      8.968  0.2310E+03  0.2070E+04
      9.020  0.2381E+03  0.2082E+04
      9.072  0.2276E+03  0.2094E+04
      9.124  0.2116E+03  0.2105E+04
      9.176  0.1923E+03  0.2115E+04
      9.227  0.1789E+03  0.2124E+04
      9.279  0.1896E+03  0.2134E+04
      9.331  0.2201E+03  0.2145E+04
      9.383  0.2411E+03  0.2158E+04
      9.435  0.2432E+03  0.2171E+04
      9.486  0.2441E+03  0.2183E+04
      9.538  0.2451E+03  0.2196E+04
      9.590  0.2438E+03  0.2209E+04
      9.642  0.2629E+03  0.2222E+04
      9.694  0.3057E+03  0.2238E+04
      9.746  0.3340E+03  0.2255E+04
      9.797  0.3304E+03  0.2272E+04
      9.849  0.3186E+03  0.2289E+04
      9.901  0.3150E+03  0.2305E+04
      9.953  0.3187E+03  0.2322E+04
     10.005  0.3346E+03  0.2339E+04
     10.056  0.3678E+03  0.2358E+04
     10.108  0.4044E+03  0.2379E+04
     10.160  0.4252E+03  0.2401E+04
     10.212  0.4337E+03  0.2424E+04
     10.264  0.4441E+03  0.2447E+04
     10.316  0.4607E+03  0.2471E+04
     10.367  0.4795E+03  0.2495E+04
     10.419  0.4928E+03  0.2521E+04
     10.471  0.4918E+03  0.2546E+04
     10.523  0.4644E+03  0.2570E+04
     10.575  0.4109E+03  0.2592E+04
     10.626  0.3467E+03  0.2610E+04
     10.678  0.2715E+03  0.2624E+04
     10.730  0.1759E+03  0.2633E+04
     10.782  0.7829E+02  0.2637E+04
     10.834  0.1486E+02  0.2638E+04
     10.886 -0.4923E+01  0.2637E+04
     10.937 -0.3452E+01  0.2637E+04
     10.989 -0.2162E+00  0.2637E+04
     11.041  0.4642E+00  0.2637E+04
     11.093  0.1286E+00  0.2637E+04
     11.145 -0.4274E-01  0.2637E+04
     11.196 -0.2834E-01  0.2637E+04
     11.248 -0.5800E-02  0.2637E+04
     11.300 -0.5774E-03  0.2637E+04
     11.352 -0.3080E-04  0.2637E+04
     11.404 -0.9133E-06  0.2637E+04
     11.456 -0.1533E-07  0.2637E+04
     11.507 -0.4732E-09  0.2637E+04
     11.559 -0.3305E-07  0.2637E+04
     11.611 -0.1921E-05  0.2637E+04
     11.663 -0.6342E-04  0.2637E+04
     11.715 -0.1168E-02  0.2637E+04
     11.766 -0.1158E-01  0.2637E+04
     11.818 -0.5609E-01  0.2637E+04
     11.870 -0.8427E-01  0.2637E+04
     11.922  0.2701E+00  0.2637E+04
     11.974  0.1222E+01  0.2637E+04
     12.026  0.1859E+01  0.2637E+04
     12.077  0.1555E+01  0.2638E+04
     12.129  0.9922E+00  0.2638E+04
     12.181  0.5225E+00  0.2638E+04
     12.233  0.4824E+00  0.2638E+04
     12.285  0.1351E+01  0.2638E+04
     12.336  0.2870E+01  0.2638E+04
     12.388  0.3966E+01  0.2638E+04
     12.440  0.3421E+01  0.2638E+04
     12.492  0.1893E+01  0.2638E+04
     12.544  0.1508E+01  0.2638E+04
     12.596  0.2309E+01  0.2639E+04
     12.647  0.2752E+01  0.2639E+04
     12.699  0.2982E+01  0.2639E+04
     12.751  0.3343E+01  0.2639E+04
     12.803  0.3416E+01  0.2639E+04
     12.855  0.3284E+01  0.2639E+04
     12.906  0.2844E+01  0.2640E+04
     12.958  0.1865E+01  0.2640E+04
     13.010  0.1047E+01  0.2640E+04
     13.062  0.8104E+00  0.2640E+04
     13.114  0.6364E+00  0.2640E+04
     13.166  0.7413E+00  0.2640E+04
     13.217  0.1337E+01  0.2640E+04
     13.269  0.1487E+01  0.2640E+04
     13.321  0.8183E+00  0.2640E+04
     13.373  0.1397E+00  0.2640E+04
     13.425 -0.6409E-01  0.2640E+04
     13.476 -0.3671E-01  0.2640E+04
     13.528 -0.7450E-02  0.2640E+04
     13.580 -0.7593E-03  0.2640E+04
     13.632 -0.4202E-04  0.2640E+04
     13.684 -0.1301E-05  0.2640E+04
     13.736 -0.2288E-07  0.2640E+04
     13.787 -0.2304E-09  0.2640E+04
     13.839 -0.1335E-11  0.2640E+04
     13.891 -0.4761E-14  0.2640E+04
     13.943  0.0000E+00  0.2640E+04
     13.995  0.0000E+00  0.2640E+04
     14.046  0.0000E+00  0.2640E+04
     14.098  0.0000E+00  0.2640E+04
     14.150  0.0000E+00  0.2640E+04
     14.202  0.0000E+00  0.2640E+04
     14.254  0.0000E+00  0.2640E+04
