  96  96   0   0
  0.1439516E+02  0.1183914E-08  0.1183913E-08  0.1183900E-08  0.5000000E-15
  1.000000000000000E-004
  CAR 
 Ir_Ru                                   
     15.46049881     -1.53556521  301      9.75771178      1.00000000
     -1.536  0.0000E+00  0.0000E+00
     -1.479  0.0000E+00  0.0000E+00
     -1.422  0.0000E+00  0.0000E+00
     -1.366 -0.7925E-30 -0.4490E-31
     -1.309 -0.6507E-26 -0.3687E-27
     -1.252 -0.2797E-22 -0.1585E-23
     -1.196 -0.6286E-19 -0.3563E-20
     -1.139 -0.7380E-16 -0.4185E-17
     -1.082 -0.4370E-13 -0.2480E-14
     -1.026 -0.1382E-10 -0.7854E-12
     -0.969 -0.2262E-08 -0.1289E-09
     -0.912 -0.1908E-06 -0.1094E-07
     -0.856 -0.8260E-05 -0.4789E-06
     -0.799 -0.1831E-03 -0.1085E-04
     -0.742 -0.2097E-02 -0.1297E-03
     -0.686 -0.1279E-01 -0.8542E-03
     -0.629 -0.4028E-01 -0.3136E-02
     -0.572 -0.1486E-01 -0.3978E-02
     -0.516  0.3793E+00  0.1751E-01
     -0.459  0.1240E+01  0.8777E-01
     -0.402  0.1738E+01  0.1862E+00
     -0.346  0.1958E+01  0.2971E+00
     -0.289  0.2892E+01  0.4609E+00
     -0.233  0.3507E+01  0.6596E+00
     -0.176  0.3299E+01  0.8465E+00
     -0.119  0.3588E+01  0.1050E+01
     -0.063  0.3819E+01  0.1266E+01
     -0.006  0.3853E+01  0.1484E+01
      0.051  0.4725E+01  0.1752E+01
      0.107  0.5519E+01  0.2065E+01
      0.164  0.5367E+01  0.2369E+01
      0.221  0.5675E+01  0.2690E+01
      0.277  0.5843E+01  0.3021E+01
      0.334  0.4852E+01  0.3296E+01
      0.391  0.4860E+01  0.3572E+01
      0.447  0.6309E+01  0.3929E+01
      0.504  0.7985E+01  0.4381E+01
      0.561  0.9039E+01  0.4894E+01
      0.617  0.8437E+01  0.5371E+01
      0.674  0.7249E+01  0.5782E+01
      0.731  0.6913E+01  0.6174E+01
      0.787  0.5999E+01  0.6514E+01
      0.844  0.6029E+01  0.6855E+01
      0.901  0.9299E+01  0.7382E+01
      0.957  0.1269E+02  0.8101E+01
      1.014  0.1310E+02  0.8843E+01
      1.070  0.1173E+02  0.9508E+01
      1.127  0.9953E+01  0.1007E+02
      1.184  0.8496E+01  0.1055E+02
      1.240  0.8735E+01  0.1105E+02
      1.297  0.1087E+02  0.1166E+02
      1.354  0.1417E+02  0.1247E+02
      1.410  0.1658E+02  0.1341E+02
      1.467  0.1661E+02  0.1435E+02
      1.524  0.1426E+02  0.1515E+02
      1.580  0.9652E+01  0.1570E+02
      1.637  0.7315E+01  0.1612E+02
      1.694  0.1024E+02  0.1670E+02
      1.750  0.1428E+02  0.1750E+02
      1.807  0.1645E+02  0.1844E+02
      1.864  0.1861E+02  0.1949E+02
      1.920  0.1770E+02  0.2049E+02
      1.977  0.1426E+02  0.2130E+02
      2.034  0.1676E+02  0.2225E+02
      2.090  0.2360E+02  0.2359E+02
      2.147  0.2931E+02  0.2525E+02
      2.204  0.3310E+02  0.2712E+02
      2.260  0.3895E+02  0.2933E+02
      2.317  0.5451E+02  0.3242E+02
      2.374  0.7341E+02  0.3658E+02
      2.430  0.7914E+02  0.4106E+02
      2.487  0.7422E+02  0.4527E+02
      2.543  0.7000E+02  0.4923E+02
      2.600  0.6651E+02  0.5300E+02
      2.657  0.6614E+02  0.5675E+02
      2.713  0.7140E+02  0.6079E+02
      2.770  0.7824E+02  0.6522E+02
      2.827  0.8569E+02  0.7008E+02
      2.883  0.9139E+02  0.7526E+02
      2.940  0.9330E+02  0.8054E+02
      2.997  0.1002E+03  0.8622E+02
      3.053  0.1116E+03  0.9254E+02
      3.110  0.1117E+03  0.9887E+02
      3.167  0.1047E+03  0.1048E+03
      3.223  0.1059E+03  0.1108E+03
      3.280  0.1110E+03  0.1171E+03
      3.337  0.1152E+03  0.1236E+03
      3.393  0.1242E+03  0.1307E+03
      3.450  0.1311E+03  0.1381E+03
      3.507  0.1243E+03  0.1451E+03
      3.563  0.1120E+03  0.1515E+03
      3.620  0.1073E+03  0.1575E+03
      3.677  0.1043E+03  0.1635E+03
      3.733  0.1015E+03  0.1692E+03
      3.790  0.9798E+02  0.1748E+03
      3.847  0.9276E+02  0.1800E+03
      3.903  0.9306E+02  0.1853E+03
      3.960  0.9082E+02  0.1904E+03
      4.016  0.9095E+02  0.1956E+03
      4.073  0.1040E+03  0.2015E+03
      4.130  0.1154E+03  0.2080E+03
      4.186  0.1258E+03  0.2151E+03
      4.243  0.1390E+03  0.2230E+03
      4.300  0.1419E+03  0.2311E+03
      4.356  0.1337E+03  0.2386E+03
      4.413  0.1224E+03  0.2456E+03
      4.470  0.1100E+03  0.2518E+03
      4.526  0.9661E+02  0.2573E+03
      4.583  0.9062E+02  0.2624E+03
      4.640  0.9278E+02  0.2677E+03
      4.696  0.9957E+02  0.2733E+03
      4.753  0.1159E+03  0.2799E+03
      4.810  0.1304E+03  0.2873E+03
      4.866  0.1323E+03  0.2948E+03
      4.923  0.1340E+03  0.3023E+03
      4.980  0.1357E+03  0.3100E+03
      5.036  0.1329E+03  0.3176E+03
      5.093  0.1355E+03  0.3252E+03
      5.150  0.1363E+03  0.3330E+03
      5.206  0.1198E+03  0.3398E+03
      5.263  0.9240E+02  0.3450E+03
      5.320  0.7930E+02  0.3495E+03
      5.376  0.8068E+02  0.3540E+03
      5.433  0.7623E+02  0.3584E+03
      5.489  0.6474E+02  0.3620E+03
      5.546  0.5729E+02  0.3653E+03
      5.603  0.6315E+02  0.3689E+03
      5.659  0.8854E+02  0.3739E+03
      5.716  0.1259E+03  0.3810E+03
      5.773  0.1565E+03  0.3899E+03
      5.829  0.1659E+03  0.3993E+03
      5.886  0.1629E+03  0.4085E+03
      5.943  0.1645E+03  0.4178E+03
      5.999  0.1594E+03  0.4268E+03
      6.056  0.1422E+03  0.4349E+03
      6.113  0.1320E+03  0.4424E+03
      6.169  0.1419E+03  0.4504E+03
      6.226  0.1529E+03  0.4591E+03
      6.283  0.1515E+03  0.4677E+03
      6.339  0.1464E+03  0.4760E+03
      6.396  0.1406E+03  0.4839E+03
      6.453  0.1345E+03  0.4916E+03
      6.509  0.1354E+03  0.4992E+03
      6.566  0.1471E+03  0.5076E+03
      6.623  0.1613E+03  0.5167E+03
      6.679  0.1656E+03  0.5261E+03
      6.736  0.1604E+03  0.5352E+03
      6.793  0.1623E+03  0.5444E+03
      6.849  0.1684E+03  0.5539E+03
      6.906  0.1540E+03  0.5626E+03
      6.962  0.1346E+03  0.5702E+03
      7.019  0.1394E+03  0.5781E+03
      7.076  0.1579E+03  0.5871E+03
      7.132  0.1686E+03  0.5966E+03
      7.189  0.1606E+03  0.6057E+03
      7.246  0.1389E+03  0.6136E+03
      7.302  0.1184E+03  0.6203E+03
      7.359  0.1109E+03  0.6266E+03
      7.416  0.1188E+03  0.6333E+03
      7.472  0.1295E+03  0.6407E+03
      7.529  0.1277E+03  0.6479E+03
      7.586  0.1238E+03  0.6549E+03
      7.642  0.1239E+03  0.6619E+03
      7.699  0.1176E+03  0.6686E+03
      7.756  0.1033E+03  0.6745E+03
      7.812  0.8991E+02  0.6795E+03
      7.869  0.8940E+02  0.6846E+03
      7.926  0.9535E+02  0.6900E+03
      7.982  0.9535E+02  0.6954E+03
      8.039  0.9581E+02  0.7008E+03
      8.096  0.9807E+02  0.7064E+03
      8.152  0.9025E+02  0.7115E+03
      8.209  0.7930E+02  0.7160E+03
      8.265  0.7872E+02  0.7205E+03
      8.322  0.8393E+02  0.7252E+03
      8.379  0.8477E+02  0.7300E+03
      8.435  0.7738E+02  0.7344E+03
      8.492  0.7217E+02  0.7385E+03
      8.549  0.7707E+02  0.7429E+03
      8.605  0.8302E+02  0.7476E+03
      8.662  0.8250E+02  0.7522E+03
      8.719  0.7458E+02  0.7565E+03
      8.775  0.6187E+02  0.7600E+03
      8.832  0.5913E+02  0.7633E+03
      8.889  0.6546E+02  0.7670E+03
      8.945  0.7314E+02  0.7712E+03
      9.002  0.8206E+02  0.7758E+03
      9.059  0.8204E+02  0.7805E+03
      9.115  0.6924E+02  0.7844E+03
      9.172  0.5946E+02  0.7878E+03
      9.229  0.6688E+02  0.7915E+03
      9.285  0.7813E+02  0.7960E+03
      9.342  0.8183E+02  0.8006E+03
      9.399  0.8697E+02  0.8055E+03
      9.455  0.9536E+02  0.8109E+03
      9.512  0.1013E+03  0.8167E+03
      9.569  0.9813E+02  0.8222E+03
      9.625  0.8761E+02  0.8272E+03
      9.682  0.8727E+02  0.8322E+03
      9.738  0.1008E+03  0.8379E+03
      9.795  0.1151E+03  0.8444E+03
      9.852  0.1189E+03  0.8511E+03
      9.908  0.1153E+03  0.8577E+03
      9.965  0.1217E+03  0.8645E+03
     10.022  0.1363E+03  0.8723E+03
     10.078  0.1432E+03  0.8804E+03
     10.135  0.1406E+03  0.8883E+03
     10.192  0.1394E+03  0.8962E+03
     10.248  0.1438E+03  0.9044E+03
     10.305  0.1518E+03  0.9130E+03
     10.362  0.1630E+03  0.9222E+03
     10.418  0.1778E+03  0.9323E+03
     10.475  0.1943E+03  0.9433E+03
     10.532  0.2052E+03  0.9549E+03
     10.588  0.1948E+03  0.9660E+03
     10.645  0.1714E+03  0.9757E+03
     10.702  0.1600E+03  0.9847E+03
     10.758  0.1492E+03  0.9932E+03
     10.815  0.1226E+03  0.1000E+04
     10.872  0.9191E+02  0.1005E+04
     10.928  0.6527E+02  0.1009E+04
     10.985  0.4229E+02  0.1011E+04
     11.042  0.2551E+02  0.1013E+04
     11.098  0.1654E+02  0.1014E+04
     11.155  0.1208E+02  0.1015E+04
     11.211  0.8697E+01  0.1015E+04
     11.268  0.6503E+01  0.1015E+04
     11.325  0.6044E+01  0.1016E+04
     11.381  0.5781E+01  0.1016E+04
     11.438  0.4269E+01  0.1016E+04
     11.495  0.3113E+01  0.1016E+04
     11.551  0.3499E+01  0.1017E+04
     11.608  0.3407E+01  0.1017E+04
     11.665  0.2170E+01  0.1017E+04
     11.721  0.1224E+01  0.1017E+04
     11.778  0.1473E+01  0.1017E+04
     11.835  0.2460E+01  0.1017E+04
     11.891  0.2873E+01  0.1017E+04
     11.948  0.2417E+01  0.1018E+04
     12.005  0.2200E+01  0.1018E+04
     12.061  0.2981E+01  0.1018E+04
     12.118  0.4173E+01  0.1018E+04
     12.175  0.4833E+01  0.1018E+04
     12.231  0.4577E+01  0.1019E+04
     12.288  0.4147E+01  0.1019E+04
     12.345  0.3980E+01  0.1019E+04
     12.401  0.3983E+01  0.1019E+04
     12.458  0.4524E+01  0.1020E+04
     12.515  0.5092E+01  0.1020E+04
     12.571  0.4895E+01  0.1020E+04
     12.628  0.3802E+01  0.1020E+04
     12.684  0.2771E+01  0.1021E+04
     12.741  0.2810E+01  0.1021E+04
     12.798  0.3498E+01  0.1021E+04
     12.854  0.4055E+01  0.1021E+04
     12.911  0.3829E+01  0.1021E+04
     12.968  0.3564E+01  0.1022E+04
     13.024  0.3915E+01  0.1022E+04
     13.081  0.4260E+01  0.1022E+04
     13.138  0.4419E+01  0.1022E+04
     13.194  0.4019E+01  0.1022E+04
     13.251  0.3029E+01  0.1023E+04
     13.308  0.2169E+01  0.1023E+04
     13.364  0.1949E+01  0.1023E+04
     13.421  0.1944E+01  0.1023E+04
     13.478  0.1482E+01  0.1023E+04
     13.534  0.8042E+00  0.1023E+04
     13.591  0.6754E+00  0.1023E+04
     13.648  0.1593E+01  0.1023E+04
     13.704  0.2452E+01  0.1023E+04
     13.761  0.2022E+01  0.1023E+04
     13.818  0.1231E+01  0.1024E+04
     13.874  0.8172E+00  0.1024E+04
     13.931  0.5254E+00  0.1024E+04
     13.988  0.3568E+00  0.1024E+04
     14.044  0.5263E+00  0.1024E+04
     14.101  0.9204E+00  0.1024E+04
     14.157  0.1023E+01  0.1024E+04
     14.214  0.7945E+00  0.1024E+04
     14.271  0.6878E+00  0.1024E+04
     14.327  0.7110E+00  0.1024E+04
     14.384  0.6180E+00  0.1024E+04
     14.441  0.5370E+00  0.1024E+04
     14.497  0.3950E+00  0.1024E+04
     14.554  0.1330E+00  0.1024E+04
     14.611 -0.1015E-01  0.1024E+04
     14.667 -0.1688E-01  0.1024E+04
     14.724 -0.3825E-02  0.1024E+04
     14.781 -0.3657E-03  0.1024E+04
     14.837 -0.1683E-04  0.1024E+04
     14.894 -0.3886E-06  0.1024E+04
     14.951 -0.4585E-08  0.1024E+04
     15.007 -0.2789E-10  0.1024E+04
     15.064 -0.8792E-13  0.1024E+04
     15.121 -0.1254E-15  0.1024E+04
     15.177  0.0000E+00  0.1024E+04
     15.234  0.0000E+00  0.1024E+04
     15.291  0.0000E+00  0.1024E+04
     15.347  0.0000E+00  0.1024E+04
     15.404  0.0000E+00  0.1024E+04
     15.460  0.0000E+00  0.1024E+04
