  32  32   0   0
  0.1409598E+02  0.5478971E-09  0.5478279E-09  0.1735641E-08  0.5000000E-15
  1.000000000000000E-004
  CAR 
 Ir_Ru                                   
     19.76468599     -1.24964922  301      9.28337004      1.00000000
     -1.250  0.0000E+00  0.0000E+00
     -1.180  0.0000E+00  0.0000E+00
     -1.110  0.0000E+00  0.0000E+00
     -1.040  0.0000E+00  0.0000E+00
     -0.969  0.0000E+00  0.0000E+00
     -0.899  0.0000E+00  0.0000E+00
     -0.829  0.0000E+00  0.0000E+00
     -0.759  0.0000E+00  0.0000E+00
     -0.689  0.0000E+00  0.0000E+00
     -0.619  0.0000E+00  0.0000E+00
     -0.549  0.0000E+00  0.0000E+00
     -0.479  0.0000E+00  0.0000E+00
     -0.409  0.0000E+00  0.0000E+00
     -0.339  0.0000E+00  0.0000E+00
     -0.269  0.0000E+00  0.0000E+00
     -0.199  0.5692E+00  0.1126E-01
     -0.129  0.7043E+00  0.7279E-01
     -0.059  0.7974E+00  0.1254E+00
      0.011  0.8905E+00  0.1845E+00
      0.081  0.8476E+00  0.2466E+00
      0.151  0.8250E+00  0.3041E+00
      0.221  0.8648E+00  0.3632E+00
      0.291  0.9047E+00  0.4252E+00
      0.361  0.1205E+01  0.4947E+00
      0.431  0.1655E+01  0.5996E+00
      0.502  0.1756E+01  0.7219E+00
      0.572  0.1852E+01  0.8471E+00
      0.642  0.1893E+01  0.9790E+00
      0.712  0.1897E+01  0.1111E+01
      0.782  0.1956E+01  0.1246E+01
      0.852  0.2029E+01  0.1386E+01
      0.922  0.2130E+01  0.1531E+01
      0.992  0.2407E+01  0.1689E+01
      1.062  0.2704E+01  0.1868E+01
      1.132  0.3250E+01  0.2074E+01
      1.202  0.3429E+01  0.2312E+01
      1.272  0.3569E+01  0.2581E+01
      1.342  0.3777E+01  0.2858E+01
      1.412  0.3807E+01  0.3126E+01
      1.482  0.3546E+01  0.3381E+01
      1.552  0.4034E+01  0.3638E+01
      1.622  0.4323E+01  0.3934E+01
      1.692  0.5604E+01  0.4266E+01
      1.762  0.4454E+01  0.4576E+01
      1.832  0.3752E+01  0.4848E+01
      1.903  0.4332E+01  0.5127E+01
      1.973  0.8398E+01  0.5552E+01
      2.043  0.5562E+01  0.6063E+01
      2.113  0.7871E+01  0.6511E+01
      2.183  0.1311E+02  0.7192E+01
      2.253  0.1452E+02  0.8180E+01
      2.323  0.1290E+02  0.9108E+01
      2.393  0.1613E+02  0.1015E+02
      2.463  0.1711E+02  0.1136E+02
      2.533  0.1842E+02  0.1254E+02
      2.603  0.1838E+02  0.1384E+02
      2.673  0.2078E+02  0.1519E+02
      2.743  0.2458E+02  0.1677E+02
      2.813  0.2576E+02  0.1858E+02
      2.883  0.3195E+02  0.2050E+02
      2.953  0.2846E+02  0.2262E+02
      3.023  0.3214E+02  0.2485E+02
      3.093  0.3738E+02  0.2723E+02
      3.163  0.3624E+02  0.2989E+02
      3.233  0.3862E+02  0.3268E+02
      3.303  0.4172E+02  0.3555E+02
      3.374  0.4389E+02  0.3853E+02
      3.444  0.4016E+02  0.4145E+02
      3.514  0.3982E+02  0.4428E+02
      3.584  0.4008E+02  0.4712E+02
      3.654  0.4125E+02  0.4996E+02
      3.724  0.3968E+02  0.5279E+02
      3.794  0.3867E+02  0.5555E+02
      3.864  0.3732E+02  0.5822E+02
      3.934  0.3664E+02  0.6074E+02
      4.004  0.3412E+02  0.6312E+02
      4.074  0.3685E+02  0.6557E+02
      4.144  0.3964E+02  0.6825E+02
      4.214  0.4366E+02  0.7131E+02
      4.284  0.4387E+02  0.7438E+02
      4.354  0.4085E+02  0.7741E+02
      4.424  0.4189E+02  0.8026E+02
      4.494  0.3579E+02  0.8296E+02
      4.564  0.3686E+02  0.8533E+02
      4.634  0.3090E+02  0.8782E+02
      4.704  0.3596E+02  0.8997E+02
      4.774  0.4181E+02  0.9285E+02
      4.845  0.4300E+02  0.9580E+02
      4.915  0.4215E+02  0.9877E+02
      4.985  0.4281E+02  0.1018E+03
      5.055  0.4150E+02  0.1049E+03
      5.125  0.4570E+02  0.1080E+03
      5.195  0.3580E+02  0.1110E+03
      5.265  0.3453E+02  0.1134E+03
      5.335  0.3388E+02  0.1159E+03
      5.405  0.2954E+02  0.1181E+03
      5.475  0.2917E+02  0.1201E+03
      5.545  0.2602E+02  0.1221E+03
      5.615  0.3511E+02  0.1242E+03
      5.685  0.4238E+02  0.1269E+03
      5.755  0.4735E+02  0.1299E+03
      5.825  0.4990E+02  0.1332E+03
      5.895  0.5154E+02  0.1367E+03
      5.965  0.5314E+02  0.1403E+03
      6.035  0.5136E+02  0.1439E+03
      6.105  0.4765E+02  0.1474E+03
      6.175  0.4476E+02  0.1508E+03
      6.245  0.4489E+02  0.1540E+03
      6.316  0.5480E+02  0.1572E+03
      6.386  0.4799E+02  0.1605E+03
      6.456  0.5044E+02  0.1638E+03
      6.526  0.5784E+02  0.1672E+03
      6.596  0.5430E+02  0.1709E+03
      6.666  0.5464E+02  0.1748E+03
      6.736  0.5630E+02  0.1785E+03
      6.806  0.4701E+02  0.1820E+03
      6.876  0.4701E+02  0.1853E+03
      6.946  0.4796E+02  0.1886E+03
      7.016  0.4585E+02  0.1919E+03
      7.086  0.4685E+02  0.1952E+03
      7.156  0.5128E+02  0.1987E+03
      7.226  0.5339E+02  0.2024E+03
      7.296  0.4753E+02  0.2058E+03
      7.366  0.4886E+02  0.2090E+03
      7.436  0.4524E+02  0.2123E+03
      7.506  0.4061E+02  0.2152E+03
      7.576  0.4280E+02  0.2182E+03
      7.646  0.3245E+02  0.2208E+03
      7.716  0.3891E+02  0.2232E+03
      7.787  0.3732E+02  0.2259E+03
      7.857  0.3387E+02  0.2283E+03
      7.927  0.3212E+02  0.2308E+03
      7.997  0.2686E+02  0.2329E+03
      8.067  0.2677E+02  0.2348E+03
      8.137  0.2963E+02  0.2368E+03
      8.207  0.3126E+02  0.2389E+03
      8.277  0.2862E+02  0.2410E+03
      8.347  0.2460E+02  0.2429E+03
      8.417  0.3499E+02  0.2450E+03
      8.487  0.2876E+02  0.2471E+03
      8.557  0.2545E+02  0.2489E+03
      8.627  0.2526E+02  0.2507E+03
      8.697  0.2318E+02  0.2524E+03
      8.767  0.2444E+02  0.2540E+03
      8.837  0.2549E+02  0.2558E+03
      8.907  0.2592E+02  0.2576E+03
      8.977  0.2957E+02  0.2595E+03
      9.047  0.3075E+02  0.2617E+03
      9.117  0.2630E+02  0.2636E+03
      9.187  0.2536E+02  0.2654E+03
      9.258  0.2546E+02  0.2673E+03
      9.328  0.2780E+02  0.2692E+03
      9.398  0.3033E+02  0.2712E+03
      9.468  0.2980E+02  0.2734E+03
      9.538  0.3425E+02  0.2756E+03
      9.608  0.4339E+02  0.2783E+03
      9.678  0.4004E+02  0.2812E+03
      9.748  0.4518E+02  0.2844E+03
      9.818  0.4067E+02  0.2871E+03
      9.888  0.3814E+02  0.2899E+03
      9.958  0.5006E+02  0.2927E+03
     10.028  0.5389E+02  0.2962E+03
     10.098  0.5409E+02  0.3001E+03
     10.168  0.5233E+02  0.3037E+03
     10.238  0.6036E+02  0.3075E+03
     10.308  0.6554E+02  0.3121E+03
     10.378  0.6407E+02  0.3165E+03
     10.448  0.5733E+02  0.3208E+03
     10.518  0.5846E+02  0.3251E+03
     10.588  0.5227E+02  0.3286E+03
     10.658  0.5811E+02  0.3322E+03
     10.729  0.3141E+02  0.3352E+03
     10.799  0.1541E+02  0.3370E+03
     10.869  0.1165E+02  0.3379E+03
     10.939  0.1135E+02  0.3387E+03
     11.009  0.1047E+02  0.3395E+03
     11.079  0.9162E+01  0.3402E+03
     11.149  0.7117E+01  0.3407E+03
     11.219  0.6285E+01  0.3412E+03
     11.289  0.8287E+01  0.3417E+03
     11.359  0.9245E+01  0.3423E+03
     11.429  0.8964E+01  0.3430E+03
     11.499  0.9471E+01  0.3436E+03
     11.569  0.9101E+01  0.3443E+03
     11.639  0.9944E+01  0.3450E+03
     11.709  0.8968E+01  0.3456E+03
     11.779  0.8740E+01  0.3463E+03
     11.849  0.9214E+01  0.3469E+03
     11.919  0.8441E+01  0.3475E+03
     11.989  0.8263E+01  0.3481E+03
     12.059  0.8259E+01  0.3487E+03
     12.129  0.8130E+01  0.3493E+03
     12.200  0.8184E+01  0.3498E+03
     12.270  0.7701E+01  0.3504E+03
     12.340  0.8860E+01  0.3510E+03
     12.410  0.8073E+01  0.3516E+03
     12.480  0.8653E+01  0.3521E+03
     12.550  0.8730E+01  0.3528E+03
     12.620  0.7990E+01  0.3533E+03
     12.690  0.8147E+01  0.3539E+03
     12.760  0.8034E+01  0.3545E+03
     12.830  0.8025E+01  0.3550E+03
     12.900  0.8007E+01  0.3556E+03
     12.970  0.7396E+01  0.3561E+03
     13.040  0.7065E+01  0.3566E+03
     13.110  0.6944E+01  0.3571E+03
     13.180  0.6858E+01  0.3576E+03
     13.250  0.7491E+01  0.3581E+03
     13.320  0.7865E+01  0.3586E+03
     13.390  0.7843E+01  0.3592E+03
     13.460  0.7876E+01  0.3597E+03
     13.530  0.7446E+01  0.3603E+03
     13.600  0.6820E+01  0.3608E+03
     13.671  0.6719E+01  0.3613E+03
     13.741  0.6835E+01  0.3617E+03
     13.811  0.7016E+01  0.3622E+03
     13.881  0.7168E+01  0.3627E+03
     13.951  0.7361E+01  0.3632E+03
     14.021  0.7681E+01  0.3637E+03
     14.091  0.8070E+01  0.3643E+03
     14.161  0.8571E+01  0.3649E+03
     14.231  0.7411E+01  0.3654E+03
     14.301  0.7604E+01  0.3660E+03
     14.371  0.7450E+01  0.3665E+03
     14.441  0.7199E+01  0.3670E+03
     14.511  0.6679E+01  0.3675E+03
     14.581  0.6572E+01  0.3680E+03
     14.651  0.6613E+01  0.3684E+03
     14.721  0.6684E+01  0.3689E+03
     14.791  0.6808E+01  0.3694E+03
     14.861  0.7008E+01  0.3699E+03
     14.931  0.7605E+01  0.3704E+03
     15.001  0.7273E+01  0.3709E+03
     15.071  0.7266E+01  0.3714E+03
     15.142  0.7577E+01  0.3719E+03
     15.212  0.7658E+01  0.3725E+03
     15.282  0.7961E+01  0.3730E+03
     15.352  0.7392E+01  0.3736E+03
     15.422  0.6845E+01  0.3741E+03
     15.492  0.6425E+01  0.3745E+03
     15.562  0.6216E+01  0.3750E+03
     15.632  0.6097E+01  0.3754E+03
     15.702  0.6930E+01  0.3759E+03
     15.772  0.6088E+01  0.3763E+03
     15.842  0.6331E+01  0.3768E+03
     15.912  0.7838E+01  0.3772E+03
     15.982  0.6018E+01  0.3777E+03
     16.052  0.5521E+01  0.3781E+03
     16.122  0.4984E+01  0.3785E+03
     16.192  0.5084E+01  0.3788E+03
     16.262  0.5200E+01  0.3791E+03
     16.332  0.3277E+01  0.3794E+03
     16.402  0.3114E+01  0.3797E+03
     16.472  0.3366E+01  0.3799E+03
     16.542  0.5062E+01  0.3802E+03
     16.613  0.4801E+01  0.3806E+03
     16.683  0.4570E+01  0.3809E+03
     16.753  0.3416E+01  0.3812E+03
     16.823  0.3171E+01  0.3814E+03
     16.893  0.2806E+01  0.3816E+03
     16.963  0.2702E+01  0.3818E+03
     17.033  0.2443E+01  0.3820E+03
     17.103  0.2284E+01  0.3821E+03
     17.173  0.2292E+01  0.3823E+03
     17.243  0.2463E+01  0.3825E+03
     17.313  0.2611E+01  0.3827E+03
     17.383  0.2798E+01  0.3828E+03
     17.453  0.2889E+01  0.3830E+03
     17.523  0.2704E+01  0.3832E+03
     17.593  0.2252E+01  0.3834E+03
     17.663  0.1801E+01  0.3836E+03
     17.733  0.1334E+01  0.3837E+03
     17.803  0.1019E+01  0.3837E+03
     17.873  0.8052E+00  0.3838E+03
     17.943  0.6314E+00  0.3839E+03
     18.013  0.4890E+00  0.3839E+03
     18.084  0.3758E+00  0.3839E+03
     18.154  0.2668E+00  0.3840E+03
     18.224  0.1624E+00  0.3840E+03
     18.294  0.1237E+00  0.3840E+03
     18.364  0.9049E-01  0.3840E+03
     18.434  0.6285E-01  0.3840E+03
     18.504  0.4132E-01  0.3840E+03
     18.574  0.2502E-01  0.3840E+03
     18.644  0.1303E-01  0.3840E+03
     18.714  0.3100E-02  0.3840E+03
     18.784  0.0000E+00  0.3840E+03
     18.854  0.0000E+00  0.3840E+03
     18.924  0.0000E+00  0.3840E+03
     18.994  0.0000E+00  0.3840E+03
     19.064  0.0000E+00  0.3840E+03
     19.134  0.0000E+00  0.3840E+03
     19.204  0.0000E+00  0.3840E+03
     19.274  0.0000E+00  0.3840E+03
     19.344  0.0000E+00  0.3840E+03
     19.414  0.0000E+00  0.3840E+03
     19.484  0.0000E+00  0.3840E+03
     19.555  0.0000E+00  0.3840E+03
     19.625  0.0000E+00  0.3840E+03
     19.695  0.0000E+00  0.3840E+03
     19.765  0.0000E+00  0.3840E+03
