  32  32   0   0
  0.1394104E+02  0.6616594E-09  0.6616594E-09  0.1080793E-08  0.5000000E-15
  1.000000000000000E-004
  CAR 
 Ir_Ru                                   
     14.16962433     -0.54939031  301      8.73092886      1.00000000
     -0.549  0.0000E+00  0.0000E+00
     -0.500  0.0000E+00  0.0000E+00
     -0.451  0.0000E+00  0.0000E+00
     -0.402  0.0000E+00  0.0000E+00
     -0.353  0.0000E+00  0.0000E+00
     -0.304  0.0000E+00  0.0000E+00
     -0.255  0.0000E+00  0.0000E+00
     -0.206  0.0000E+00  0.0000E+00
     -0.157  0.0000E+00  0.0000E+00
     -0.108  0.0000E+00  0.0000E+00
     -0.059  0.0000E+00  0.0000E+00
     -0.010  0.0000E+00  0.0000E+00
      0.039  0.0000E+00  0.0000E+00
      0.088  0.0000E+00  0.0000E+00
      0.137  0.0000E+00  0.0000E+00
      0.187  0.0000E+00  0.0000E+00
      0.236  0.0000E+00  0.0000E+00
      0.285  0.0000E+00  0.0000E+00
      0.334  0.0000E+00  0.0000E+00
      0.383  0.0000E+00  0.0000E+00
      0.432  0.0000E+00  0.0000E+00
      0.481  0.7778E-01  0.7864E-03
      0.530  0.5140E+00  0.1399E-01
      0.579  0.7322E+00  0.4619E-01
      0.628  0.8749E+00  0.8479E-01
      0.677  0.1184E+01  0.1339E+00
      0.726  0.1511E+01  0.2007E+00
      0.775  0.1387E+01  0.2706E+00
      0.824  0.1415E+01  0.3393E+00
      0.873  0.1446E+01  0.4095E+00
      0.923  0.1471E+01  0.4811E+00
      0.972  0.1460E+01  0.5527E+00
      1.021  0.1493E+01  0.6252E+00
      1.070  0.1532E+01  0.6994E+00
      1.119  0.1561E+01  0.7753E+00
      1.168  0.1603E+01  0.8528E+00
      1.217  0.1817E+01  0.9346E+00
      1.266  0.2159E+01  0.1034E+01
      1.315  0.2236E+01  0.1141E+01
      1.364  0.2531E+01  0.1257E+01
      1.413  0.2925E+01  0.1390E+01
      1.462  0.2932E+01  0.1537E+01
      1.511  0.2956E+01  0.1680E+01
      1.560  0.2936E+01  0.1825E+01
      1.609  0.2787E+01  0.1967E+01
      1.658  0.2775E+01  0.2102E+01
      1.708  0.2643E+01  0.2235E+01
      1.757  0.2587E+01  0.2362E+01
      1.806  0.2851E+01  0.2496E+01
      1.855  0.3263E+01  0.2645E+01
      1.904  0.3957E+01  0.2821E+01
      1.953  0.5224E+01  0.3039E+01
      2.002  0.5954E+01  0.3329E+01
      2.051  0.5907E+01  0.3624E+01
      2.100  0.4869E+01  0.3902E+01
      2.149  0.4414E+01  0.4111E+01
      2.198  0.5822E+01  0.4357E+01
      2.247  0.6332E+01  0.4679E+01
      2.296  0.6748E+01  0.5022E+01
      2.345  0.8075E+01  0.5370E+01
      2.394  0.1125E+02  0.5846E+01
      2.443  0.1127E+02  0.6411E+01
      2.493  0.1247E+02  0.6982E+01
      2.542  0.1230E+02  0.7628E+01
      2.591  0.1203E+02  0.8230E+01
      2.640  0.1777E+02  0.8951E+01
      2.689  0.2032E+02  0.9913E+01
      2.738  0.1821E+02  0.1089E+02
      2.787  0.1825E+02  0.1179E+02
      2.836  0.2030E+02  0.1269E+02
      2.885  0.3092E+02  0.1404E+02
      2.934  0.2816E+02  0.1551E+02
      2.983  0.3337E+02  0.1693E+02
      3.032  0.4396E+02  0.1876E+02
      3.081  0.3308E+02  0.2061E+02
      3.130  0.3529E+02  0.2211E+02
      3.179  0.4313E+02  0.2415E+02
      3.228  0.4049E+02  0.2625E+02
      3.278  0.4376E+02  0.2836E+02
      3.327  0.5137E+02  0.3072E+02
      3.376  0.5191E+02  0.3318E+02
      3.425  0.5631E+02  0.3581E+02
      3.474  0.5506E+02  0.3862E+02
      3.523  0.5650E+02  0.4132E+02
      3.572  0.6563E+02  0.4413E+02
      3.621  0.5796E+02  0.4710E+02
      3.670  0.5629E+02  0.4963E+02
      3.719  0.4801E+02  0.5225E+02
      3.768  0.4513E+02  0.5451E+02
      3.817  0.5276E+02  0.5676E+02
      3.866  0.4721E+02  0.5917E+02
      3.915  0.4662E+02  0.6150E+02
      3.964  0.4484E+02  0.6362E+02
      4.014  0.4427E+02  0.6584E+02
      4.063  0.4105E+02  0.6798E+02
      4.112  0.3913E+02  0.6995E+02
      4.161  0.3849E+02  0.7184E+02
      4.210  0.3542E+02  0.7364E+02
      4.259  0.3740E+02  0.7548E+02
      4.308  0.3456E+02  0.7718E+02
      4.357  0.3249E+02  0.7884E+02
      4.406  0.3211E+02  0.8041E+02
      4.455  0.3312E+02  0.8204E+02
      4.504  0.3201E+02  0.8364E+02
      4.553  0.3437E+02  0.8530E+02
      4.602  0.3483E+02  0.8702E+02
      4.651  0.3871E+02  0.8882E+02
      4.700  0.3709E+02  0.9070E+02
      4.749  0.3791E+02  0.9257E+02
      4.799  0.3412E+02  0.9429E+02
      4.848  0.3739E+02  0.9601E+02
      4.897  0.3700E+02  0.9789E+02
      4.946  0.4366E+02  0.9984E+02
      4.995  0.4217E+02  0.1020E+03
      5.044  0.3655E+02  0.1039E+03
      5.093  0.3519E+02  0.1057E+03
      5.142  0.3185E+02  0.1074E+03
      5.191  0.3258E+02  0.1091E+03
      5.240  0.3519E+02  0.1109E+03
      5.289  0.2969E+02  0.1122E+03
      5.338  0.3935E+02  0.1140E+03
      5.387  0.3501E+02  0.1160E+03
      5.436  0.3520E+02  0.1177E+03
      5.485  0.3810E+02  0.1195E+03
      5.534  0.3962E+02  0.1215E+03
      5.584  0.4149E+02  0.1235E+03
      5.633  0.4040E+02  0.1255E+03
      5.682  0.4103E+02  0.1273E+03
      5.731  0.4042E+02  0.1293E+03
      5.780  0.4014E+02  0.1312E+03
      5.829  0.4336E+02  0.1333E+03
      5.878  0.4089E+02  0.1354E+03
      5.927  0.4214E+02  0.1374E+03
      5.976  0.4301E+02  0.1394E+03
      6.025  0.4457E+02  0.1416E+03
      6.074  0.4913E+02  0.1439E+03
      6.123  0.5215E+02  0.1464E+03
      6.172  0.5514E+02  0.1490E+03
      6.221  0.5540E+02  0.1517E+03
      6.270  0.5453E+02  0.1545E+03
      6.319  0.5401E+02  0.1571E+03
      6.369  0.6338E+02  0.1600E+03
      6.418  0.6789E+02  0.1632E+03
      6.467  0.7515E+02  0.1668E+03
      6.516  0.7529E+02  0.1705E+03
      6.565  0.6956E+02  0.1739E+03
      6.614  0.6358E+02  0.1772E+03
      6.663  0.5312E+02  0.1801E+03
      6.712  0.4054E+02  0.1825E+03
      6.761  0.4582E+02  0.1846E+03
      6.810  0.4470E+02  0.1867E+03
      6.859  0.3511E+02  0.1886E+03
      6.908  0.3641E+02  0.1904E+03
      6.957  0.3929E+02  0.1923E+03
      7.006  0.4110E+02  0.1943E+03
      7.055  0.3931E+02  0.1962E+03
      7.104  0.3907E+02  0.1982E+03
      7.154  0.3834E+02  0.2001E+03
      7.203  0.3591E+02  0.2019E+03
      7.252  0.3662E+02  0.2037E+03
      7.301  0.3547E+02  0.2055E+03
      7.350  0.3501E+02  0.2072E+03
      7.399  0.3309E+02  0.2089E+03
      7.448  0.3179E+02  0.2105E+03
      7.497  0.3228E+02  0.2120E+03
      7.546  0.3431E+02  0.2137E+03
      7.595  0.3349E+02  0.2154E+03
      7.644  0.3352E+02  0.2171E+03
      7.693  0.3960E+02  0.2188E+03
      7.742  0.3945E+02  0.2208E+03
      7.791  0.3983E+02  0.2227E+03
      7.840  0.4427E+02  0.2247E+03
      7.890  0.4446E+02  0.2269E+03
      7.939  0.4067E+02  0.2290E+03
      7.988  0.4003E+02  0.2309E+03
      8.037  0.4091E+02  0.2330E+03
      8.086  0.4322E+02  0.2350E+03
      8.135  0.3322E+02  0.2368E+03
      8.184  0.4121E+02  0.2388E+03
      8.233  0.4289E+02  0.2408E+03
      8.282  0.3959E+02  0.2428E+03
      8.331  0.4008E+02  0.2448E+03
      8.380  0.3916E+02  0.2468E+03
      8.429  0.3539E+02  0.2486E+03
      8.478  0.3617E+02  0.2503E+03
      8.527  0.3807E+02  0.2522E+03
      8.576  0.4132E+02  0.2541E+03
      8.625  0.4033E+02  0.2560E+03
      8.675  0.3679E+02  0.2580E+03
      8.724  0.3503E+02  0.2597E+03
      8.773  0.3286E+02  0.2614E+03
      8.822  0.3042E+02  0.2629E+03
      8.871  0.3034E+02  0.2644E+03
      8.920  0.3270E+02  0.2660E+03
      8.969  0.3259E+02  0.2676E+03
      9.018  0.4330E+02  0.2692E+03
      9.067  0.3160E+02  0.2708E+03
      9.116  0.3112E+02  0.2723E+03
      9.165  0.2912E+02  0.2737E+03
      9.214  0.3156E+02  0.2752E+03
      9.263  0.3200E+02  0.2768E+03
      9.312  0.3241E+02  0.2784E+03
      9.361  0.3348E+02  0.2801E+03
      9.410  0.3411E+02  0.2818E+03
      9.460  0.3194E+02  0.2834E+03
      9.509  0.3346E+02  0.2850E+03
      9.558  0.3197E+02  0.2866E+03
      9.607  0.3129E+02  0.2881E+03
      9.656  0.3376E+02  0.2897E+03
      9.705  0.3597E+02  0.2915E+03
      9.754  0.3747E+02  0.2933E+03
      9.803  0.3580E+02  0.2951E+03
      9.852  0.3831E+02  0.2968E+03
      9.901  0.4143E+02  0.2989E+03
      9.950  0.3919E+02  0.3008E+03
      9.999  0.4313E+02  0.3028E+03
     10.048  0.4586E+02  0.3051E+03
     10.097  0.4788E+02  0.3074E+03
     10.146  0.4694E+02  0.3097E+03
     10.195  0.4331E+02  0.3119E+03
     10.245  0.3590E+02  0.3139E+03
     10.294  0.2710E+02  0.3154E+03
     10.343  0.2195E+02  0.3166E+03
     10.392  0.1311E+02  0.3175E+03
     10.441  0.7778E+01  0.3180E+03
     10.490  0.5050E+01  0.3183E+03
     10.539  0.8303E+01  0.3185E+03
     10.588  0.2813E+01  0.3186E+03
     10.637  0.2114E+01  0.3188E+03
     10.686  0.1798E+01  0.3189E+03
     10.735  0.1330E+01  0.3189E+03
     10.784  0.1198E+01  0.3190E+03
     10.833  0.1067E+01  0.3191E+03
     10.882  0.9710E+00  0.3191E+03
     10.931  0.9011E+00  0.3192E+03
     10.981  0.8422E+00  0.3192E+03
     11.030  0.7948E+00  0.3192E+03
     11.079  0.7637E+00  0.3193E+03
     11.128  0.7385E+00  0.3193E+03
     11.177  0.7165E+00  0.3193E+03
     11.226  0.6943E+00  0.3194E+03
     11.275  0.6718E+00  0.3194E+03
     11.324  0.6488E+00  0.3194E+03
     11.373  0.6253E+00  0.3195E+03
     11.422  0.6016E+00  0.3195E+03
     11.471  0.5774E+00  0.3195E+03
     11.520  0.5537E+00  0.3196E+03
     11.569  0.5309E+00  0.3196E+03
     11.618  0.5091E+00  0.3196E+03
     11.667  0.4881E+00  0.3196E+03
     11.716  0.4680E+00  0.3197E+03
     11.766  0.4488E+00  0.3197E+03
     11.815  0.4303E+00  0.3197E+03
     11.864  0.4127E+00  0.3197E+03
     11.913  0.3962E+00  0.3198E+03
     11.962  0.3814E+00  0.3198E+03
     12.011  0.3669E+00  0.3198E+03
     12.060  0.3526E+00  0.3198E+03
     12.109  0.3412E+00  0.3198E+03
     12.158  0.3516E+00  0.3198E+03
     12.207  0.3708E+00  0.3199E+03
     12.256  0.3688E+00  0.3199E+03
     12.305  0.4118E+00  0.3199E+03
     12.354  0.3103E+00  0.3199E+03
     12.403  0.2741E+00  0.3199E+03
     12.452  0.2481E+00  0.3199E+03
     12.501  0.2255E+00  0.3200E+03
     12.551  0.1921E+00  0.3200E+03
     12.600  0.1566E+00  0.3200E+03
     12.649  0.1235E+00  0.3200E+03
     12.698  0.9525E-01  0.3200E+03
     12.747  0.7433E-01  0.3200E+03
     12.796  0.5694E-01  0.3200E+03
     12.845  0.4146E-01  0.3200E+03
     12.894  0.2980E-01  0.3200E+03
     12.943  0.2013E-01  0.3200E+03
     12.992  0.1236E-01  0.3200E+03
     13.041  0.6471E-02  0.3200E+03
     13.090  0.2472E-02  0.3200E+03
     13.139  0.3608E-03  0.3200E+03
     13.188  0.0000E+00  0.3200E+03
     13.237  0.0000E+00  0.3200E+03
     13.286  0.0000E+00  0.3200E+03
     13.336  0.0000E+00  0.3200E+03
     13.385  0.0000E+00  0.3200E+03
     13.434  0.0000E+00  0.3200E+03
     13.483  0.0000E+00  0.3200E+03
     13.532  0.0000E+00  0.3200E+03
     13.581  0.0000E+00  0.3200E+03
     13.630  0.0000E+00  0.3200E+03
     13.679  0.0000E+00  0.3200E+03
     13.728  0.0000E+00  0.3200E+03
     13.777  0.0000E+00  0.3200E+03
     13.826  0.0000E+00  0.3200E+03
     13.875  0.0000E+00  0.3200E+03
     13.924  0.0000E+00  0.3200E+03
     13.973  0.0000E+00  0.3200E+03
     14.022  0.0000E+00  0.3200E+03
     14.071  0.0000E+00  0.3200E+03
     14.121  0.0000E+00  0.3200E+03
     14.170  0.0000E+00  0.3200E+03
