       N       E                     dE             d eps       ncg     rms          rms(c)
RMM:   1     0.153978994714E+04    0.15398E+04   -0.55002E+04 10080   0.706E+02
RMM:   2     0.123469659659E+03   -0.14163E+04   -0.14862E+04 10080   0.246E+02
RMM:   3    -0.144325434077E+03   -0.26780E+03   -0.25177E+03 10080   0.103E+02
RMM:   4    -0.233193172994E+03   -0.88868E+02   -0.62625E+02 10080   0.714E+01
RMM:   5    -0.265281371209E+03   -0.32088E+02   -0.27579E+02 10080   0.426E+01
RMM:   6    -0.282037372452E+03   -0.16756E+02   -0.14692E+02 10080   0.334E+01
RMM:   7    -0.291378780787E+03   -0.93414E+01   -0.87557E+01 10080   0.231E+01
RMM:   8    -0.297311902552E+03   -0.59331E+01   -0.55051E+01 10080   0.195E+01
RMM:   9    -0.307898599310E+03   -0.10587E+02   -0.10395E+02 27223   0.141E+01
RMM:  10    -0.309354715165E+03   -0.14561E+01   -0.17466E+01 28776   0.301E+00
RMM:  11    -0.309710911241E+03   -0.35620E+00   -0.26067E+00 28319   0.854E-01
RMM:  12    -0.309788183425E+03   -0.77272E-01   -0.51388E-01 28488   0.278E-01    0.277E+01
RMM:  13    -0.292441544952E+03    0.17347E+02   -0.62606E+01 20197   0.252E+01    0.140E+01
RMM:  14    -0.298529466743E+03   -0.60879E+01   -0.36901E+01 22342   0.132E+01    0.220E+01
RMM:  15    -0.289301293476E+03    0.92282E+01   -0.15103E+01 21149   0.934E+00    0.804E+00
RMM:  16    -0.288190322030E+03    0.11110E+01   -0.44656E+00 22917   0.420E+00    0.322E+00
RMM:  17    -0.288059446600E+03    0.13088E+00   -0.10372E+00 24303   0.180E+00    0.142E+00
RMM:  18    -0.287985756139E+03    0.73690E-01   -0.19798E-01 21264   0.119E+00    0.904E-01
RMM:  19    -0.287963024039E+03    0.22732E-01   -0.85167E-02 21260   0.743E-01    0.606E-01
RMM:  20    -0.287953863353E+03    0.91607E-02   -0.34115E-02 24045   0.306E-01    0.221E-01
RMM:  21    -0.287953576102E+03    0.28725E-03   -0.82805E-03 24937   0.146E-01    0.862E-02
RMM:  22    -0.287953737018E+03   -0.16092E-03   -0.21279E-03 26582   0.642E-02    0.805E-02
RMM:  23    -0.287953701984E+03    0.35034E-04   -0.51946E-04 21914   0.514E-02
   1 F= -.28795370E+03 E0= -.28795301E+03  d E =-.287954E+03
       N       E                     dE             d eps       ncg     rms          rms(c)
RMM:   1    -0.383148248050E+03   -0.95195E+02   -0.55698E+03 20160   0.301E+02    0.548E+01
RMM:   2    -0.284168640727E+03    0.98980E+02   -0.55450E+01 20257   0.226E+01    0.316E+01
RMM:   3    -0.263937816815E+03    0.20231E+02   -0.13018E+02 20167   0.420E+01    0.209E+01
RMM:   4    -0.252642809512E+03    0.11295E+02   -0.41393E+01 20271   0.197E+01    0.113E+01
RMM:   5    -0.249802883488E+03    0.28399E+01   -0.61461E+00 20231   0.773E+00    0.527E+00
RMM:   6    -0.249503434413E+03    0.29945E+00   -0.10983E+00 20205   0.382E+00    0.305E+00
RMM:   7    -0.250099253344E+03   -0.59582E+00   -0.41245E+00 20160   0.879E+00    0.391E+00
RMM:   8    -0.249612941568E+03    0.48631E+00   -0.12851E+00 20162   0.499E+00    0.633E-01
RMM:   9    -0.249635575869E+03   -0.22634E-01   -0.36751E-01 20583   0.188E+00    0.911E-01
RMM:  10    -0.249617746589E+03    0.17829E-01   -0.53906E-02 20222   0.982E-01    0.226E-01
RMM:  11    -0.249618531336E+03   -0.78475E-03   -0.19113E-02 20332   0.507E-01    0.185E-01
RMM:  12    -0.249617698560E+03    0.83278E-03   -0.46944E-03 20802   0.254E-01    0.278E-02
RMM:  13    -0.249617752530E+03   -0.53970E-04   -0.86467E-04 24724   0.405E-02
   2 F= -.24961775E+03 E0= -.24961623E+03  d E =0.383359E+02
       N       E                     dE             d eps       ncg     rms          rms(c)
RMM:   1    -0.370337992896E+03   -0.12072E+03   -0.33535E+03 20160   0.248E+02    0.458E+01
RMM:   2    -0.305393603965E+03    0.64944E+02   -0.15060E+02 20160   0.579E+01    0.194E+01
RMM:   3    -0.316081493872E+03   -0.10688E+02   -0.66435E+01 20905   0.218E+01    0.316E+01
RMM:   4    -0.295072578182E+03    0.21009E+02   -0.24051E+01 20366   0.133E+01    0.118E+01
RMM:   5    -0.291753258927E+03    0.33193E+01   -0.76428E+00 20692   0.659E+00    0.419E+00
RMM:   6    -0.291545182990E+03    0.20808E+00   -0.18320E+00 22469   0.298E+00    0.259E+00
RMM:   7    -0.291379188591E+03    0.16599E+00   -0.96292E-01 20207   0.339E+00    0.118E+00
RMM:   8    -0.291350452618E+03    0.28736E-01   -0.26858E-01 24529   0.817E-01    0.111E+00
RMM:   9    -0.291320448698E+03    0.30004E-01   -0.13458E-01 20926   0.764E-01    0.247E-01
RMM:  10    -0.291323079550E+03   -0.26309E-02   -0.21177E-02 26163   0.226E-01    0.262E-01
RMM:  11    -0.291323249126E+03   -0.16958E-03   -0.20917E-03 21805   0.100E-01    0.181E-01
RMM:  12    -0.291323187081E+03    0.62045E-04   -0.14931E-03 20461   0.117E-01    0.883E-02
RMM:  13    -0.291323334843E+03   -0.14776E-03   -0.91012E-04 21079   0.796E-02    0.301E-02
RMM:  14    -0.291323373394E+03   -0.38551E-04   -0.27101E-04 27255   0.212E-02
   3 F= -.29132337E+03 E0= -.29132298E+03  d E =-.336967E+01
       N       E                     dE             d eps       ncg     rms          rms(c)
RMM:   1    -0.291395268997E+03   -0.71934E-01   -0.16198E+00 20160   0.524E+00    0.101E+00
RMM:   2    -0.291361679266E+03    0.33590E-01   -0.47577E-02 20164   0.954E-01    0.466E-01
RMM:   3    -0.291363795351E+03   -0.21161E-02   -0.37374E-02 20432   0.565E-01    0.651E-01
RMM:   4    -0.291355706719E+03    0.80886E-02   -0.12917E-02 20497   0.303E-01    0.278E-01
RMM:   5    -0.291354136961E+03    0.15698E-02   -0.35844E-03 20311   0.150E-01    0.906E-02
RMM:   6    -0.291354062457E+03    0.74504E-04   -0.65371E-04 21468   0.630E-02
   4 F= -.29135406E+03 E0= -.29135368E+03  d E =-.340036E+01
       N       E                     dE             d eps       ncg     rms          rms(c)
RMM:   1    -0.291362348287E+03   -0.82113E-02   -0.18954E-01 20160   0.179E+00    0.353E-01
RMM:   2    -0.291358183272E+03    0.41650E-02   -0.55789E-03 20160   0.331E-01    0.158E-01
RMM:   3    -0.291358399526E+03   -0.21625E-03   -0.46800E-03 20339   0.202E-01    0.219E-01
RMM:   4    -0.291357493836E+03    0.90569E-03   -0.13861E-03 20554   0.967E-02    0.875E-02
RMM:   5    -0.291357357246E+03    0.13659E-03   -0.39897E-04 20574   0.483E-02    0.332E-02
RMM:   6    -0.291357351847E+03    0.53990E-05   -0.82424E-05 20786   0.247E-02
   5 F= -.29135735E+03 E0= -.29135697E+03  d E =-.340365E+01
       N       E                     dE             d eps       ncg     rms          rms(c)
RMM:   1    -0.291359040957E+03   -0.16837E-02   -0.49129E-02 20160   0.915E-01    0.179E-01
RMM:   2    -0.291357985904E+03    0.10551E-02   -0.14498E-03 20160   0.169E-01    0.801E-02
RMM:   3    -0.291358054131E+03   -0.68227E-04   -0.11842E-03 20371   0.102E-01    0.111E-01
RMM:   4    -0.291357825632E+03    0.22850E-03   -0.35555E-04 20540   0.489E-02    0.448E-02
RMM:   5    -0.291357790326E+03    0.35306E-04   -0.10332E-04 20339   0.253E-02
   6 F= -.29135779E+03 E0= -.29135741E+03  d E =-.340409E+01
       N       E                     dE             d eps       ncg     rms          rms(c)
RMM:   1    -0.291357861731E+03   -0.36099E-04   -0.27238E-03 20160   0.215E-01    0.483E-02
RMM:   2    -0.291357802811E+03    0.58920E-04   -0.13915E-04 20165   0.481E-02    0.288E-02
RMM:   3    -0.291357806474E+03   -0.36622E-05   -0.93890E-05 20516   0.264E-02    0.344E-02
RMM:   4    -0.291357787359E+03    0.19115E-04   -0.46733E-05 20259   0.204E-02    0.186E-02
RMM:   5    -0.291357780110E+03    0.72491E-05   -0.13710E-05 20418   0.958E-03
   7 F= -.29135778E+03 E0= -.29135740E+03  d E =-.340408E+01
       N       E                     dE             d eps       ncg     rms          rms(c)
RMM:   1    -0.291357811828E+03   -0.24469E-04   -0.73794E-04 20160   0.112E-01    0.231E-02
RMM:   2    -0.291357795592E+03    0.16236E-04   -0.25206E-05 20162   0.222E-02    0.104E-02
RMM:   3    -0.291357799099E+03   -0.35063E-05   -0.20132E-05 20657   0.126E-02    0.161E-02
RMM:   4    -0.291357794931E+03    0.41680E-05   -0.69952E-06 17753   0.711E-03    0.566E-03
RMM:   5    -0.291357794723E+03    0.20761E-06   -0.14285E-06 11697   0.354E-03
   8 F= -.29135779E+03 E0= -.29135742E+03  d E =-.340409E+01
       N       E                     dE             d eps       ncg     rms          rms(c)
RMM:   1    -0.291367716593E+03   -0.99217E-02   -0.33756E+00 20160   0.374E+00    0.162E-01
RMM:   2    -0.291376935628E+03   -0.92190E-02   -0.72102E-02 21965   0.644E-01    0.452E-01
RMM:   3    -0.291374008251E+03    0.29274E-02   -0.76090E-03 22141   0.194E-01    0.170E-01
RMM:   4    -0.291373914839E+03    0.93413E-04   -0.10360E-03 23752   0.657E-02    0.144E-01
RMM:   5    -0.291373866552E+03    0.48287E-04   -0.14598E-04 25273   0.185E-02
   9 F= -.29137387E+03 E0= -.29137360E+03  d E =-.160718E-01
       N       E                     dE             d eps       ncg     rms          rms(c)
RMM:   1    -0.291373302564E+03    0.61228E-03   -0.16724E+00 20160   0.264E+00    0.139E-01
RMM:   2    -0.291377074880E+03   -0.37723E-02   -0.32936E-02 21759   0.421E-01    0.281E-01
RMM:   3    -0.291376049922E+03    0.10250E-02   -0.37835E-03 22290   0.142E-01    0.114E-01
RMM:   4    -0.291375988533E+03    0.61389E-04   -0.56043E-04 24181   0.437E-02    0.102E-01
RMM:   5    -0.291375923819E+03    0.64714E-04   -0.92413E-05 23391   0.174E-02
  10 F= -.29137592E+03 E0= -.29137569E+03  d E =-.181291E-01
       N       E                     dE             d eps       ncg     rms          rms(c)
RMM:   1    -0.291375916265E+03    0.72267E-04   -0.14801E-02 20160   0.244E-01    0.823E-02
RMM:   2    -0.291377014439E+03   -0.10982E-02   -0.41767E-03 22139   0.133E-01    0.248E-01
RMM:   3    -0.291375849448E+03    0.11650E-02   -0.98376E-04 20312   0.768E-02    0.494E-02
RMM:   4    -0.291375818169E+03    0.31279E-04   -0.29155E-04 22983   0.316E-02    0.103E-02
RMM:   5    -0.291375819758E+03   -0.15890E-05   -0.35789E-05 24276   0.806E-03
  11 F= -.29137582E+03 E0= -.29137559E+03  d E =-.180250E-01
       N       E                     dE             d eps       ncg     rms          rms(c)
RMM:   1    -0.291374776996E+03    0.10412E-02   -0.34347E-01 20160   0.119E+00    0.486E-02
RMM:   2    -0.291375655459E+03   -0.87846E-03   -0.70455E-03 21936   0.202E-01    0.134E-01
RMM:   3    -0.291375411506E+03    0.24395E-03   -0.74351E-04 22733   0.592E-02    0.552E-02
RMM:   4    -0.291375405794E+03    0.57114E-05   -0.86830E-05 23564   0.183E-02    0.500E-02
RMM:   5    -0.291375401155E+03    0.46391E-05   -0.96680E-06 17622   0.528E-03
  12 F= -.29137540E+03 E0= -.29137514E+03  d E =-.176064E-01
       N       E                     dE             d eps       ncg     rms          rms(c)
RMM:   1    -0.291375465614E+03   -0.59819E-04   -0.21912E-01 20160   0.950E-01    0.568E-02
RMM:   2    -0.291376467212E+03   -0.10016E-02   -0.61703E-03 22034   0.190E-01    0.180E-01
RMM:   3    -0.291375884289E+03    0.58292E-03   -0.75229E-04 20778   0.640E-02    0.486E-02
RMM:   4    -0.291375867622E+03    0.16667E-04   -0.14101E-04 22983   0.255E-02    0.330E-02
RMM:   5    -0.291375866295E+03    0.13272E-05   -0.20828E-05 21596   0.572E-03
  13 F= -.29137587E+03 E0= -.29137563E+03  d E =-.180716E-01
       N       E                     dE             d eps       ncg     rms          rms(c)
RMM:   1    -0.291376159171E+03   -0.29155E-03   -0.11004E-01 20160   0.694E-01    0.624E-02
RMM:   2    -0.291376394335E+03   -0.23516E-03   -0.25435E-03 20665   0.153E-01    0.844E-02
RMM:   3    -0.291376308598E+03    0.85737E-04   -0.40102E-04 23843   0.426E-02    0.379E-02
RMM:   4    -0.291376280217E+03    0.28381E-04   -0.81601E-05 21174   0.232E-02    0.304E-02
RMM:   5    -0.291376266217E+03    0.14001E-04   -0.62044E-05 20545   0.198E-02
  14 F= -.29137627E+03 E0= -.29137601E+03  d E =-.399922E-03
       N       E                     dE             d eps       ncg     rms          rms(c)
RMM:   1    -0.291376262434E+03    0.17783E-04   -0.25492E-02 20160   0.334E-01    0.325E-02
RMM:   2    -0.291376356382E+03   -0.93947E-04   -0.71804E-04 20997   0.765E-02    0.631E-02
RMM:   3    -0.291376291159E+03    0.65222E-04   -0.11466E-04 21106   0.257E-02    0.196E-02
RMM:   4    -0.291376287662E+03    0.34975E-05   -0.35881E-05 21938   0.142E-02    0.181E-02
RMM:   5    -0.291376282033E+03    0.56292E-05   -0.13769E-05 21113   0.847E-03
  15 F= -.29137628E+03 E0= -.29137603E+03  d E =-.415738E-03
       N       E                     dE             d eps       ncg     rms          rms(c)
RMM:   1    -0.291376431925E+03   -0.14426E-03   -0.38444E-02 20160   0.472E-01    0.729E-02
RMM:   2    -0.291376363295E+03    0.68630E-04   -0.94691E-04 20213   0.986E-02    0.454E-02
RMM:   3    -0.291376389935E+03   -0.26640E-04   -0.29365E-04 22528   0.358E-02    0.594E-02
RMM:   4    -0.291376314303E+03    0.75632E-04   -0.12580E-04 20876   0.294E-02    0.207E-02
RMM:   5    -0.291376310947E+03    0.33556E-05   -0.46802E-05 21578   0.155E-02
  16 F= -.29137631E+03 E0= -.29137609E+03  d E =-.289144E-04
       N       E                     dE             d eps       ncg     rms          rms(c)
RMM:   1    -0.291376369548E+03   -0.55245E-04   -0.82306E-03 20160   0.217E-01    0.345E-02
RMM:   2    -0.291376353908E+03    0.15640E-04   -0.21439E-04 20207   0.463E-02    0.228E-02
RMM:   3    -0.291376356104E+03   -0.21961E-05   -0.60950E-05 22676   0.162E-02    0.252E-02
RMM:   4    -0.291376342482E+03    0.13622E-04   -0.29449E-05 20574   0.149E-02    0.123E-02
RMM:   5    -0.291376339530E+03    0.29518E-05   -0.98236E-06 19752   0.786E-03
  17 F= -.29137634E+03 E0= -.29137611E+03  d E =-.574978E-04
       N       E                     dE             d eps       ncg     rms          rms(c)
RMM:   1    -0.291376345353E+03   -0.28707E-05   -0.25482E-03 20160   0.107E-01    0.945E-03
RMM:   2    -0.291376350559E+03   -0.52060E-05   -0.66085E-05 20349   0.260E-02    0.135E-02
RMM:   3    -0.291376348242E+03    0.23170E-05   -0.99329E-06 20097   0.700E-03    0.604E-03
RMM:   4    -0.291376347537E+03    0.70489E-06   -0.18659E-06 11434   0.438E-03    0.461E-03
RMM:   5    -0.291376347055E+03    0.48186E-06   -0.14358E-06 11299   0.402E-03
  18 F= -.29137635E+03 E0= -.29137612E+03  d E =-.752473E-05
       N       E                     dE             d eps       ncg     rms          rms(c)
RMM:   1    -0.291376347013E+03    0.52358E-06   -0.12000E-04 20159   0.233E-02    0.271E-03
RMM:   2    -0.291376347138E+03   -0.12496E-06   -0.38058E-06 13825   0.587E-03    0.441E-03
RMM:   3    -0.291376346849E+03    0.28889E-06   -0.98276E-07 11082   0.354E-03    0.155E-03
RMM:   4    -0.291376346832E+03    0.17197E-07   -0.33661E-07 11014   0.163E-03    0.138E-03
RMM:   5    -0.291376346795E+03    0.37120E-07   -0.17355E-07 10918   0.135E-03
  19 F= -.29137635E+03 E0= -.29137612E+03  d E =-.726477E-05
