<?xml version="1.0" encoding="ISO-8859-1"?>
<modeling>
 <generator>
  <i name="program" type="string">vasp </i>
  <i name="version" type="string">5.4.1  </i>
  <i name="subversion" type="string">24Jun15 (build Feb 03 2017 16:24:58) complex                          parallel </i>
  <i name="platform" type="string">IFC91_ompi </i>
  <i name="date" type="string">2018 06 22 </i>
  <i name="time" type="string">16:41:16 </i>
 </generator>
 <incar>
  <i type="string" name="SYSTEM"> Ir_Ru</i>
  <i type="int" name="ISTART">     0</i>
  <i type="string" name="PREC">accurate</i>
  <i type="string" name="ALGO"> Very_Fast</i>
  <i type="int" name="ICHARG">     2</i>
  <i type="int" name="NELMIN">     5</i>
  <i type="int" name="IBRION">    -1</i>
  <i name="EDIFFG">      0.00001000</i>
  <i type="int" name="ISIF">     2</i>
  <i type="int" name="ISMEAR">    -5</i>
  <i name="SIGMA">      0.10000000</i>
  <v type="int" name="KPOINT_BSE">    -1     0     0     0</v>
 </incar>
 <kpoints>
  <generation param="Gamma">
   <v type="int" name="divisions">       8        8        5 </v>
   <v name="usershift">      0.00000000       0.00000000       0.00000000 </v>
   <v name="genvec1">      0.12500000       0.00000000       0.00000000 </v>
   <v name="genvec2">      0.00000000       0.12500000       0.00000000 </v>
   <v name="genvec3">      0.00000000       0.00000000       0.20000000 </v>
   <v name="shift">      0.00000000       0.00000000       0.00000000 </v>
  </generation>
  <varray name="kpointlist" >
   <v>       0.00000000       0.00000000       0.00000000 </v>
   <v>       0.12500000       0.00000000       0.00000000 </v>
   <v>       0.25000000       0.00000000       0.00000000 </v>
   <v>       0.37500000       0.00000000       0.00000000 </v>
   <v>       0.50000000       0.00000000       0.00000000 </v>
   <v>       0.12500000       0.12500000       0.00000000 </v>
   <v>       0.25000000       0.12500000       0.00000000 </v>
   <v>       0.37500000       0.12500000       0.00000000 </v>
   <v>       0.50000000       0.12500000       0.00000000 </v>
   <v>      -0.37500000       0.12500000       0.00000000 </v>
   <v>      -0.25000000       0.12500000       0.00000000 </v>
   <v>      -0.12500000       0.12500000       0.00000000 </v>
   <v>       0.25000000       0.25000000       0.00000000 </v>
   <v>       0.37500000       0.25000000       0.00000000 </v>
   <v>       0.50000000       0.25000000       0.00000000 </v>
   <v>      -0.37500000       0.25000000       0.00000000 </v>
   <v>      -0.25000000       0.25000000       0.00000000 </v>
   <v>       0.37500000       0.37500000       0.00000000 </v>
   <v>       0.50000000       0.37500000       0.00000000 </v>
   <v>      -0.37500000       0.37500000       0.00000000 </v>
   <v>       0.50000000       0.50000000       0.00000000 </v>
   <v>       0.00000000       0.00000000       0.20000000 </v>
   <v>       0.12500000       0.00000000       0.20000000 </v>
   <v>       0.25000000       0.00000000       0.20000000 </v>
   <v>       0.37500000       0.00000000       0.20000000 </v>
   <v>       0.50000000       0.00000000       0.20000000 </v>
   <v>       0.12500000       0.12500000       0.20000000 </v>
   <v>       0.25000000       0.12500000       0.20000000 </v>
   <v>       0.37500000       0.12500000       0.20000000 </v>
   <v>       0.50000000       0.12500000       0.20000000 </v>
   <v>      -0.37500000       0.12500000       0.20000000 </v>
   <v>      -0.25000000       0.12500000       0.20000000 </v>
   <v>      -0.12500000       0.12500000       0.20000000 </v>
   <v>       0.25000000       0.25000000       0.20000000 </v>
   <v>       0.37500000       0.25000000       0.20000000 </v>
   <v>       0.50000000       0.25000000       0.20000000 </v>
   <v>      -0.37500000       0.25000000       0.20000000 </v>
   <v>      -0.25000000       0.25000000       0.20000000 </v>
   <v>       0.37500000       0.37500000       0.20000000 </v>
   <v>       0.50000000       0.37500000       0.20000000 </v>
   <v>      -0.37500000       0.37500000       0.20000000 </v>
   <v>       0.50000000       0.50000000       0.20000000 </v>
   <v>       0.00000000       0.00000000       0.40000000 </v>
   <v>       0.12500000       0.00000000       0.40000000 </v>
   <v>       0.25000000       0.00000000       0.40000000 </v>
   <v>       0.37500000       0.00000000       0.40000000 </v>
   <v>       0.50000000       0.00000000       0.40000000 </v>
   <v>       0.12500000       0.12500000       0.40000000 </v>
   <v>       0.25000000       0.12500000       0.40000000 </v>
   <v>       0.37500000       0.12500000       0.40000000 </v>
   <v>       0.50000000       0.12500000       0.40000000 </v>
   <v>      -0.37500000       0.12500000       0.40000000 </v>
   <v>      -0.25000000       0.12500000       0.40000000 </v>
   <v>      -0.12500000       0.12500000       0.40000000 </v>
   <v>       0.25000000       0.25000000       0.40000000 </v>
   <v>       0.37500000       0.25000000       0.40000000 </v>
   <v>       0.50000000       0.25000000       0.40000000 </v>
   <v>      -0.37500000       0.25000000       0.40000000 </v>
   <v>      -0.25000000       0.25000000       0.40000000 </v>
   <v>       0.37500000       0.37500000       0.40000000 </v>
   <v>       0.50000000       0.37500000       0.40000000 </v>
   <v>      -0.37500000       0.37500000       0.40000000 </v>
   <v>       0.50000000       0.50000000       0.40000000 </v>
  </varray>
  <varray name="weights" >
   <v>       0.00312500 </v>
   <v>       0.01250000 </v>
   <v>       0.01250000 </v>
   <v>       0.01250000 </v>
   <v>       0.00625000 </v>
   <v>       0.00625000 </v>
   <v>       0.01250000 </v>
   <v>       0.01250000 </v>
   <v>       0.01250000 </v>
   <v>       0.01250000 </v>
   <v>       0.01250000 </v>
   <v>       0.00625000 </v>
   <v>       0.00625000 </v>
   <v>       0.01250000 </v>
   <v>       0.01250000 </v>
   <v>       0.01250000 </v>
   <v>       0.00625000 </v>
   <v>       0.00625000 </v>
   <v>       0.01250000 </v>
   <v>       0.00625000 </v>
   <v>       0.00312500 </v>
   <v>       0.00625000 </v>
   <v>       0.02500000 </v>
   <v>       0.02500000 </v>
   <v>       0.02500000 </v>
   <v>       0.01250000 </v>
   <v>       0.01250000 </v>
   <v>       0.02500000 </v>
   <v>       0.02500000 </v>
   <v>       0.02500000 </v>
   <v>       0.02500000 </v>
   <v>       0.02500000 </v>
   <v>       0.01250000 </v>
   <v>       0.01250000 </v>
   <v>       0.02500000 </v>
   <v>       0.02500000 </v>
   <v>       0.02500000 </v>
   <v>       0.01250000 </v>
   <v>       0.01250000 </v>
   <v>       0.02500000 </v>
   <v>       0.01250000 </v>
   <v>       0.00625000 </v>
   <v>       0.00625000 </v>
   <v>       0.02500000 </v>
   <v>       0.02500000 </v>
   <v>       0.02500000 </v>
   <v>       0.01250000 </v>
   <v>       0.01250000 </v>
   <v>       0.02500000 </v>
   <v>       0.02500000 </v>
   <v>       0.02500000 </v>
   <v>       0.02500000 </v>
   <v>       0.02500000 </v>
   <v>       0.01250000 </v>
   <v>       0.01250000 </v>
   <v>       0.02500000 </v>
   <v>       0.02500000 </v>
   <v>       0.02500000 </v>
   <v>       0.01250000 </v>
   <v>       0.01250000 </v>
   <v>       0.02500000 </v>
   <v>       0.01250000 </v>
   <v>       0.00625000 </v>
  </varray>
  <varray name="tetrahedronlist"  type="int" >
   <v type="int" >        4        1        2        2       23 </v>
   <v type="int" >        4        2        2        6       23 </v>
   <v type="int" >        4        2        6       23       27 </v>
   <v type="int" >        4        1        2       22       23 </v>
   <v type="int" >        4        2       22       23       23 </v>
   <v type="int" >        4        2       23       23       27 </v>
   <v type="int" >        4        2        3        6       24 </v>
   <v type="int" >        4        3        6        7       24 </v>
   <v type="int" >        4        6        7       24       28 </v>
   <v type="int" >        4        2        6       23       24 </v>
   <v type="int" >        4        6       23       24       27 </v>
   <v type="int" >        4        6       24       27       28 </v>
   <v type="int" >        4        3        4        7       25 </v>
   <v type="int" >        4        4        7        8       25 </v>
   <v type="int" >        4        7        8       25       29 </v>
   <v type="int" >        4        3        7       24       25 </v>
   <v type="int" >        4        7       24       25       28 </v>
   <v type="int" >        4        7       25       28       29 </v>
   <v type="int" >        4        4        5        8       26 </v>
   <v type="int" >        4        5        8        9       26 </v>
   <v type="int" >        4        8        9       26       30 </v>
   <v type="int" >        4        4        8       25       26 </v>
   <v type="int" >        4        8       25       26       29 </v>
   <v type="int" >        4        8       26       29       30 </v>
   <v type="int" >        4        4        5        9       25 </v>
   <v type="int" >        4        4        9       10       25 </v>
   <v type="int" >        4        9       10       25       31 </v>
   <v type="int" >        4        5        9       25       26 </v>
   <v type="int" >        4        9       25       26       30 </v>
   <v type="int" >        4        9       25       30       31 </v>
   <v type="int" >        4        3        4       10       24 </v>
   <v type="int" >        4        3       10       11       24 </v>
   <v type="int" >        4       10       11       24       32 </v>
   <v type="int" >        4        4       10       24       25 </v>
   <v type="int" >        4       10       24       25       31 </v>
   <v type="int" >        4       10       24       31       32 </v>
   <v type="int" >        4        2        3       11       23 </v>
   <v type="int" >        4        2       11       12       23 </v>
   <v type="int" >        4       11       12       23       33 </v>
   <v type="int" >        4        3       11       23       24 </v>
   <v type="int" >        4       11       23       24       32 </v>
   <v type="int" >        4       11       23       32       33 </v>
   <v type="int" >        4        1        2       12       22 </v>
   <v type="int" >        4        2       12       22       23 </v>
   <v type="int" >        4       12       22       23       33 </v>
   <v type="int" >        4        2        3        6       27 </v>
   <v type="int" >        4        3        6        7       27 </v>
   <v type="int" >        4        3        7       27       28 </v>
   <v type="int" >        4        2        3       23       27 </v>
   <v type="int" >        4        3       23       24       27 </v>
   <v type="int" >        4        3       24       27       28 </v>
   <v type="int" >        4        6        7        7       28 </v>
   <v type="int" >        4        7        7       13       28 </v>
   <v type="int" >        4        7       13       28       34 </v>
   <v type="int" >        4        6        7       27       28 </v>
   <v type="int" >        4        7       27       28       28 </v>
   <v type="int" >        4        7       28       28       34 </v>
   <v type="int" >        4        7        8       13       29 </v>
   <v type="int" >        4        8       13       14       29 </v>
   <v type="int" >        4       13       14       29       35 </v>
   <v type="int" >        4        7       13       28       29 </v>
   <v type="int" >        4       13       28       29       34 </v>
   <v type="int" >        4       13       29       34       35 </v>
   <v type="int" >        4        8        9       14       30 </v>
   <v type="int" >        4        9       14       15       30 </v>
   <v type="int" >        4       14       15       30       36 </v>
   <v type="int" >        4        8       14       29       30 </v>
   <v type="int" >        4       14       29       30       35 </v>
   <v type="int" >        4       14       30       35       36 </v>
   <v type="int" >        4        9       10       15       31 </v>
   <v type="int" >        4       10       15       16       31 </v>
   <v type="int" >        4       15       16       31       37 </v>
   <v type="int" >        4        9       15       30       31 </v>
   <v type="int" >        4       15       30       31       36 </v>
   <v type="int" >        4       15       31       36       37 </v>
   <v type="int" >        4       10       11       16       32 </v>
   <v type="int" >        4       11       16       17       32 </v>
   <v type="int" >        4       16       17       32       38 </v>
   <v type="int" >        4       10       16       31       32 </v>
   <v type="int" >        4       16       31       32       37 </v>
   <v type="int" >        4       16       32       37       38 </v>
   <v type="int" >        4       11       12       17       33 </v>
   <v type="int" >        4       11       17       32       33 </v>
   <v type="int" >        4       17       32       33       38 </v>
   <v type="int" >        4        3        4        7       28 </v>
   <v type="int" >        4        4        7        8       28 </v>
   <v type="int" >        4        4        8       28       29 </v>
   <v type="int" >        4        3        4       24       28 </v>
   <v type="int" >        4        4       24       25       28 </v>
   <v type="int" >        4        4       25       28       29 </v>
   <v type="int" >        4        7        8       13       34 </v>
   <v type="int" >        4        8       13       14       34 </v>
   <v type="int" >        4        8       14       34       35 </v>
   <v type="int" >        4        7        8       28       34 </v>
   <v type="int" >        4        8       28       29       34 </v>
   <v type="int" >        4        8       29       34       35 </v>
   <v type="int" >        4       13       14       14       35 </v>
   <v type="int" >        4       14       14       18       35 </v>
   <v type="int" >        4       14       18       35       39 </v>
   <v type="int" >        4       13       14       34       35 </v>
   <v type="int" >        4       14       34       35       35 </v>
   <v type="int" >        4       14       35       35       39 </v>
   <v type="int" >        4       14       15       18       36 </v>
   <v type="int" >        4       15       18       19       36 </v>
   <v type="int" >        4       18       19       36       40 </v>
   <v type="int" >        4       14       18       35       36 </v>
   <v type="int" >        4       18       35       36       39 </v>
   <v type="int" >        4       18       36       39       40 </v>
   <v type="int" >        4       15       16       19       37 </v>
   <v type="int" >        4       16       19       20       37 </v>
   <v type="int" >        4       19       20       37       41 </v>
   <v type="int" >        4       15       19       36       37 </v>
   <v type="int" >        4       19       36       37       40 </v>
   <v type="int" >        4       19       37       40       41 </v>
   <v type="int" >        4       16       17       20       38 </v>
   <v type="int" >        4       16       20       37       38 </v>
   <v type="int" >        4       20       37       38       41 </v>
   <v type="int" >        4        4        5        8       29 </v>
   <v type="int" >        4        5        8        9       29 </v>
   <v type="int" >        4        5        9       29       30 </v>
   <v type="int" >        4        4        5       25       29 </v>
   <v type="int" >        4        5       25       26       29 </v>
   <v type="int" >        4        5       26       29       30 </v>
   <v type="int" >        4        8        9       14       35 </v>
   <v type="int" >        4        9       14       15       35 </v>
   <v type="int" >        4        9       15       35       36 </v>
   <v type="int" >        4        8        9       29       35 </v>
   <v type="int" >        4        9       29       30       35 </v>
   <v type="int" >        4        9       30       35       36 </v>
   <v type="int" >        4       14       15       18       39 </v>
   <v type="int" >        4       15       18       19       39 </v>
   <v type="int" >        4       15       19       39       40 </v>
   <v type="int" >        4       14       15       35       39 </v>
   <v type="int" >        4       15       35       36       39 </v>
   <v type="int" >        4       15       36       39       40 </v>
   <v type="int" >        4       18       19       19       40 </v>
   <v type="int" >        4       19       19       21       40 </v>
   <v type="int" >        4       19       21       40       42 </v>
   <v type="int" >        4       18       19       39       40 </v>
   <v type="int" >        4       19       39       40       40 </v>
   <v type="int" >        4       19       40       40       42 </v>
   <v type="int" >        4       19       20       21       41 </v>
   <v type="int" >        4       19       21       40       41 </v>
   <v type="int" >        4       21       40       41       42 </v>
   <v type="int" >        4        4        5        9       30 </v>
   <v type="int" >        4        4        9       10       30 </v>
   <v type="int" >        4        4       10       30       31 </v>
   <v type="int" >        4        4        5       26       30 </v>
   <v type="int" >        4        4       25       26       30 </v>
   <v type="int" >        4        4       25       30       31 </v>
   <v type="int" >        4        9       10       15       36 </v>
   <v type="int" >        4       10       15       16       36 </v>
   <v type="int" >        4       10       16       36       37 </v>
   <v type="int" >        4        9       10       30       36 </v>
   <v type="int" >        4       10       30       31       36 </v>
   <v type="int" >        4       10       31       36       37 </v>
   <v type="int" >        4       15       16       19       40 </v>
   <v type="int" >        4       16       19       20       40 </v>
   <v type="int" >        4       16       20       40       41 </v>
   <v type="int" >        4       15       16       36       40 </v>
   <v type="int" >        4       16       36       37       40 </v>
   <v type="int" >        4       16       37       40       41 </v>
   <v type="int" >        4       19       20       21       42 </v>
   <v type="int" >        4       19       20       40       42 </v>
   <v type="int" >        4       20       40       41       42 </v>
   <v type="int" >        4        3        4       10       31 </v>
   <v type="int" >        4        3       10       11       31 </v>
   <v type="int" >        4        3       11       31       32 </v>
   <v type="int" >        4        3        4       25       31 </v>
   <v type="int" >        4        3       24       25       31 </v>
   <v type="int" >        4        3       24       31       32 </v>
   <v type="int" >        4       10       11       16       37 </v>
   <v type="int" >        4       11       16       17       37 </v>
   <v type="int" >        4       11       17       37       38 </v>
   <v type="int" >        4       10       11       31       37 </v>
   <v type="int" >        4       11       31       32       37 </v>
   <v type="int" >        4       11       32       37       38 </v>
   <v type="int" >        4       16       17       20       41 </v>
   <v type="int" >        4       16       17       37       41 </v>
   <v type="int" >        4       17       37       38       41 </v>
   <v type="int" >        4        2        3       11       32 </v>
   <v type="int" >        4        2       11       12       32 </v>
   <v type="int" >        4        2       12       32       33 </v>
   <v type="int" >        4        2        3       24       32 </v>
   <v type="int" >        4        2       23       24       32 </v>
   <v type="int" >        4        2       23       32       33 </v>
   <v type="int" >        4       11       12       17       38 </v>
   <v type="int" >        4       11       12       32       38 </v>
   <v type="int" >        4       12       32       33       38 </v>
   <v type="int" >        4        1        2       12       33 </v>
   <v type="int" >        4        1        2       23       33 </v>
   <v type="int" >        4        1       22       23       33 </v>
   <v type="int" >        4       22       23       23       44 </v>
   <v type="int" >        4       23       23       27       44 </v>
   <v type="int" >        4       23       27       44       48 </v>
   <v type="int" >        4       22       23       43       44 </v>
   <v type="int" >        4       23       43       44       44 </v>
   <v type="int" >        4       23       44       44       48 </v>
   <v type="int" >        4       23       24       27       45 </v>
   <v type="int" >        4       24       27       28       45 </v>
   <v type="int" >        4       27       28       45       49 </v>
   <v type="int" >        4       23       27       44       45 </v>
   <v type="int" >        4       27       44       45       48 </v>
   <v type="int" >        4       27       45       48       49 </v>
   <v type="int" >        4       24       25       28       46 </v>
   <v type="int" >        4       25       28       29       46 </v>
   <v type="int" >        4       28       29       46       50 </v>
   <v type="int" >        4       24       28       45       46 </v>
   <v type="int" >        4       28       45       46       49 </v>
   <v type="int" >        4       28       46       49       50 </v>
   <v type="int" >        4       25       26       29       47 </v>
   <v type="int" >        4       26       29       30       47 </v>
   <v type="int" >        4       29       30       47       51 </v>
   <v type="int" >        4       25       29       46       47 </v>
   <v type="int" >        4       29       46       47       50 </v>
   <v type="int" >        4       29       47       50       51 </v>
   <v type="int" >        4       25       26       30       46 </v>
   <v type="int" >        4       25       30       31       46 </v>
   <v type="int" >        4       30       31       46       52 </v>
   <v type="int" >        4       26       30       46       47 </v>
   <v type="int" >        4       30       46       47       51 </v>
   <v type="int" >        4       30       46       51       52 </v>
   <v type="int" >        4       24       25       31       45 </v>
   <v type="int" >        4       24       31       32       45 </v>
   <v type="int" >        4       31       32       45       53 </v>
   <v type="int" >        4       25       31       45       46 </v>
   <v type="int" >        4       31       45       46       52 </v>
   <v type="int" >        4       31       45       52       53 </v>
   <v type="int" >        4       23       24       32       44 </v>
   <v type="int" >        4       23       32       33       44 </v>
   <v type="int" >        4       32       33       44       54 </v>
   <v type="int" >        4       24       32       44       45 </v>
   <v type="int" >        4       32       44       45       53 </v>
   <v type="int" >        4       32       44       53       54 </v>
   <v type="int" >        4       22       23       33       43 </v>
   <v type="int" >        4       23       33       43       44 </v>
   <v type="int" >        4       33       43       44       54 </v>
   <v type="int" >        4       23       24       27       48 </v>
   <v type="int" >        4       24       27       28       48 </v>
   <v type="int" >        4       24       28       48       49 </v>
   <v type="int" >        4       23       24       44       48 </v>
   <v type="int" >        4       24       44       45       48 </v>
   <v type="int" >        4       24       45       48       49 </v>
   <v type="int" >        4       27       28       28       49 </v>
   <v type="int" >        4       28       28       34       49 </v>
   <v type="int" >        4       28       34       49       55 </v>
   <v type="int" >        4       27       28       48       49 </v>
   <v type="int" >        4       28       48       49       49 </v>
   <v type="int" >        4       28       49       49       55 </v>
   <v type="int" >        4       28       29       34       50 </v>
   <v type="int" >        4       29       34       35       50 </v>
   <v type="int" >        4       34       35       50       56 </v>
   <v type="int" >        4       28       34       49       50 </v>
   <v type="int" >        4       34       49       50       55 </v>
   <v type="int" >        4       34       50       55       56 </v>
   <v type="int" >        4       29       30       35       51 </v>
   <v type="int" >        4       30       35       36       51 </v>
   <v type="int" >        4       35       36       51       57 </v>
   <v type="int" >        4       29       35       50       51 </v>
   <v type="int" >        4       35       50       51       56 </v>
   <v type="int" >        4       35       51       56       57 </v>
   <v type="int" >        4       30       31       36       52 </v>
   <v type="int" >        4       31       36       37       52 </v>
   <v type="int" >        4       36       37       52       58 </v>
   <v type="int" >        4       30       36       51       52 </v>
   <v type="int" >        4       36       51       52       57 </v>
   <v type="int" >        4       36       52       57       58 </v>
   <v type="int" >        4       31       32       37       53 </v>
   <v type="int" >        4       32       37       38       53 </v>
   <v type="int" >        4       37       38       53       59 </v>
   <v type="int" >        4       31       37       52       53 </v>
   <v type="int" >        4       37       52       53       58 </v>
   <v type="int" >        4       37       53       58       59 </v>
   <v type="int" >        4       32       33       38       54 </v>
   <v type="int" >        4       32       38       53       54 </v>
   <v type="int" >        4       38       53       54       59 </v>
   <v type="int" >        4       24       25       28       49 </v>
   <v type="int" >        4       25       28       29       49 </v>
   <v type="int" >        4       25       29       49       50 </v>
   <v type="int" >        4       24       25       45       49 </v>
   <v type="int" >        4       25       45       46       49 </v>
   <v type="int" >        4       25       46       49       50 </v>
   <v type="int" >        4       28       29       34       55 </v>
   <v type="int" >        4       29       34       35       55 </v>
   <v type="int" >        4       29       35       55       56 </v>
   <v type="int" >        4       28       29       49       55 </v>
   <v type="int" >        4       29       49       50       55 </v>
   <v type="int" >        4       29       50       55       56 </v>
   <v type="int" >        4       34       35       35       56 </v>
   <v type="int" >        4       35       35       39       56 </v>
   <v type="int" >        4       35       39       56       60 </v>
   <v type="int" >        4       34       35       55       56 </v>
   <v type="int" >        4       35       55       56       56 </v>
   <v type="int" >        4       35       56       56       60 </v>
   <v type="int" >        4       35       36       39       57 </v>
   <v type="int" >        4       36       39       40       57 </v>
   <v type="int" >        4       39       40       57       61 </v>
   <v type="int" >        4       35       39       56       57 </v>
   <v type="int" >        4       39       56       57       60 </v>
   <v type="int" >        4       39       57       60       61 </v>
   <v type="int" >        4       36       37       40       58 </v>
   <v type="int" >        4       37       40       41       58 </v>
   <v type="int" >        4       40       41       58       62 </v>
   <v type="int" >        4       36       40       57       58 </v>
   <v type="int" >        4       40       57       58       61 </v>
   <v type="int" >        4       40       58       61       62 </v>
   <v type="int" >        4       37       38       41       59 </v>
   <v type="int" >        4       37       41       58       59 </v>
   <v type="int" >        4       41       58       59       62 </v>
   <v type="int" >        4       25       26       29       50 </v>
   <v type="int" >        4       26       29       30       50 </v>
   <v type="int" >        4       26       30       50       51 </v>
   <v type="int" >        4       25       26       46       50 </v>
   <v type="int" >        4       26       46       47       50 </v>
   <v type="int" >        4       26       47       50       51 </v>
   <v type="int" >        4       29       30       35       56 </v>
   <v type="int" >        4       30       35       36       56 </v>
   <v type="int" >        4       30       36       56       57 </v>
   <v type="int" >        4       29       30       50       56 </v>
   <v type="int" >        4       30       50       51       56 </v>
   <v type="int" >        4       30       51       56       57 </v>
   <v type="int" >        4       35       36       39       60 </v>
   <v type="int" >        4       36       39       40       60 </v>
   <v type="int" >        4       36       40       60       61 </v>
   <v type="int" >        4       35       36       56       60 </v>
   <v type="int" >        4       36       56       57       60 </v>
   <v type="int" >        4       36       57       60       61 </v>
   <v type="int" >        4       39       40       40       61 </v>
   <v type="int" >        4       40       40       42       61 </v>
   <v type="int" >        4       40       42       61       63 </v>
   <v type="int" >        4       39       40       60       61 </v>
   <v type="int" >        4       40       60       61       61 </v>
   <v type="int" >        4       40       61       61       63 </v>
   <v type="int" >        4       40       41       42       62 </v>
   <v type="int" >        4       40       42       61       62 </v>
   <v type="int" >        4       42       61       62       63 </v>
   <v type="int" >        4       25       26       30       51 </v>
   <v type="int" >        4       25       30       31       51 </v>
   <v type="int" >        4       25       31       51       52 </v>
   <v type="int" >        4       25       26       47       51 </v>
   <v type="int" >        4       25       46       47       51 </v>
   <v type="int" >        4       25       46       51       52 </v>
   <v type="int" >        4       30       31       36       57 </v>
   <v type="int" >        4       31       36       37       57 </v>
   <v type="int" >        4       31       37       57       58 </v>
   <v type="int" >        4       30       31       51       57 </v>
   <v type="int" >        4       31       51       52       57 </v>
   <v type="int" >        4       31       52       57       58 </v>
   <v type="int" >        4       36       37       40       61 </v>
   <v type="int" >        4       37       40       41       61 </v>
   <v type="int" >        4       37       41       61       62 </v>
   <v type="int" >        4       36       37       57       61 </v>
   <v type="int" >        4       37       57       58       61 </v>
   <v type="int" >        4       37       58       61       62 </v>
   <v type="int" >        4       40       41       42       63 </v>
   <v type="int" >        4       40       41       61       63 </v>
   <v type="int" >        4       41       61       62       63 </v>
   <v type="int" >        4       24       25       31       52 </v>
   <v type="int" >        4       24       31       32       52 </v>
   <v type="int" >        4       24       32       52       53 </v>
   <v type="int" >        4       24       25       46       52 </v>
   <v type="int" >        4       24       45       46       52 </v>
   <v type="int" >        4       24       45       52       53 </v>
   <v type="int" >        4       31       32       37       58 </v>
   <v type="int" >        4       32       37       38       58 </v>
   <v type="int" >        4       32       38       58       59 </v>
   <v type="int" >        4       31       32       52       58 </v>
   <v type="int" >        4       32       52       53       58 </v>
   <v type="int" >        4       32       53       58       59 </v>
   <v type="int" >        4       37       38       41       62 </v>
   <v type="int" >        4       37       38       58       62 </v>
   <v type="int" >        4       38       58       59       62 </v>
   <v type="int" >        4       23       24       32       53 </v>
   <v type="int" >        4       23       32       33       53 </v>
   <v type="int" >        4       23       33       53       54 </v>
   <v type="int" >        4       23       24       45       53 </v>
   <v type="int" >        4       23       44       45       53 </v>
   <v type="int" >        4       23       44       53       54 </v>
   <v type="int" >        4       32       33       38       59 </v>
   <v type="int" >        4       32       33       53       59 </v>
   <v type="int" >        4       33       53       54       59 </v>
   <v type="int" >        4       22       23       33       54 </v>
   <v type="int" >        4       22       23       44       54 </v>
   <v type="int" >        4       22       43       44       54 </v>
   <v type="int" >        4       43       44       44       44 </v>
   <v type="int" >        4       44       44       44       48 </v>
   <v type="int" >        2       44       44       48       48 </v>
   <v type="int" >        2       43       43       44       44 </v>
   <v type="int" >        4       44       45       45       48 </v>
   <v type="int" >        4       45       45       48       49 </v>
   <v type="int" >        4       45       48       49       49 </v>
   <v type="int" >        4       44       44       45       48 </v>
   <v type="int" >        4       44       45       48       48 </v>
   <v type="int" >        4       45       48       48       49 </v>
   <v type="int" >        4       45       46       46       49 </v>
   <v type="int" >        4       46       46       49       50 </v>
   <v type="int" >        4       46       49       50       50 </v>
   <v type="int" >        4       45       45       46       49 </v>
   <v type="int" >        4       45       46       49       49 </v>
   <v type="int" >        4       46       49       49       50 </v>
   <v type="int" >        4       46       47       47       50 </v>
   <v type="int" >        4       47       47       50       51 </v>
   <v type="int" >        4       47       50       51       51 </v>
   <v type="int" >        4       46       46       47       50 </v>
   <v type="int" >        4       46       47       50       50 </v>
   <v type="int" >        4       47       50       50       51 </v>
   <v type="int" >        4       46       46       47       51 </v>
   <v type="int" >        4       46       46       51       52 </v>
   <v type="int" >        4       46       51       52       52 </v>
   <v type="int" >        4       46       47       47       51 </v>
   <v type="int" >        4       46       47       51       51 </v>
   <v type="int" >        4       46       51       51       52 </v>
   <v type="int" >        4       45       45       46       52 </v>
   <v type="int" >        4       45       45       52       53 </v>
   <v type="int" >        4       45       52       53       53 </v>
   <v type="int" >        4       45       46       46       52 </v>
   <v type="int" >        4       45       46       52       52 </v>
   <v type="int" >        4       45       52       52       53 </v>
   <v type="int" >        4       44       44       45       53 </v>
   <v type="int" >        4       44       44       53       54 </v>
   <v type="int" >        4       44       53       54       54 </v>
   <v type="int" >        4       44       45       45       53 </v>
   <v type="int" >        4       44       45       53       53 </v>
   <v type="int" >        4       44       53       53       54 </v>
   <v type="int" >        4       43       43       44       54 </v>
   <v type="int" >        4       43       44       44       54 </v>
   <v type="int" >        4       43       44       54       54 </v>
   <v type="int" >        4       48       49       49       49 </v>
   <v type="int" >        4       49       49       49       55 </v>
   <v type="int" >        2       49       49       55       55 </v>
   <v type="int" >        2       48       48       49       49 </v>
   <v type="int" >        4       49       50       50       55 </v>
   <v type="int" >        4       50       50       55       56 </v>
   <v type="int" >        4       50       55       56       56 </v>
   <v type="int" >        4       49       49       50       55 </v>
   <v type="int" >        4       49       50       55       55 </v>
   <v type="int" >        4       50       55       55       56 </v>
   <v type="int" >        4       50       51       51       56 </v>
   <v type="int" >        4       51       51       56       57 </v>
   <v type="int" >        4       51       56       57       57 </v>
   <v type="int" >        4       50       50       51       56 </v>
   <v type="int" >        4       50       51       56       56 </v>
   <v type="int" >        4       51       56       56       57 </v>
   <v type="int" >        4       51       52       52       57 </v>
   <v type="int" >        4       52       52       57       58 </v>
   <v type="int" >        4       52       57       58       58 </v>
   <v type="int" >        4       51       51       52       57 </v>
   <v type="int" >        4       51       52       57       57 </v>
   <v type="int" >        4       52       57       57       58 </v>
   <v type="int" >        4       52       53       53       58 </v>
   <v type="int" >        4       53       53       58       59 </v>
   <v type="int" >        4       53       58       59       59 </v>
   <v type="int" >        4       52       52       53       58 </v>
   <v type="int" >        4       52       53       58       58 </v>
   <v type="int" >        4       53       58       58       59 </v>
   <v type="int" >        4       53       54       54       59 </v>
   <v type="int" >        4       53       53       54       59 </v>
   <v type="int" >        4       53       54       59       59 </v>
   <v type="int" >        4       55       56       56       56 </v>
   <v type="int" >        4       56       56       56       60 </v>
   <v type="int" >        2       56       56       60       60 </v>
   <v type="int" >        2       55       55       56       56 </v>
   <v type="int" >        4       56       57       57       60 </v>
   <v type="int" >        4       57       57       60       61 </v>
   <v type="int" >        4       57       60       61       61 </v>
   <v type="int" >        4       56       56       57       60 </v>
   <v type="int" >        4       56       57       60       60 </v>
   <v type="int" >        4       57       60       60       61 </v>
   <v type="int" >        4       57       58       58       61 </v>
   <v type="int" >        4       58       58       61       62 </v>
   <v type="int" >        4       58       61       62       62 </v>
   <v type="int" >        4       57       57       58       61 </v>
   <v type="int" >        4       57       58       61       61 </v>
   <v type="int" >        4       58       61       61       62 </v>
   <v type="int" >        4       58       59       59       62 </v>
   <v type="int" >        4       58       58       59       62 </v>
   <v type="int" >        4       58       59       62       62 </v>
   <v type="int" >        4       60       61       61       61 </v>
   <v type="int" >        4       61       61       61       63 </v>
   <v type="int" >        2       61       61       63       63 </v>
   <v type="int" >        2       60       60       61       61 </v>
   <v type="int" >        4       61       62       62       63 </v>
   <v type="int" >        4       61       61       62       63 </v>
   <v type="int" >        4       61       62       63       63 </v>
  </varray>
  <i name="volumeweight">      0.00052083 </i>
 </kpoints>
 <parameters>
  <separator name="general" >
   <i type="string" name="SYSTEM">Ir_Ru</i>
   <i type="logical" name="LCOMPAT"> F  </i>
  </separator>
  <separator name="electronic" >
   <i type="string" name="PREC">accura</i>
   <i name="ENMAX">    213.27600000</i>
   <i name="ENAUG">    333.49400000</i>
   <i name="EDIFF">      0.00010000</i>
   <i type="int" name="IALGO">    48</i>
   <i type="int" name="IWAVPR">    10</i>
   <i type="int" name="NBANDS">   160</i>
   <i name="NELECT">    260.00000000</i>
   <i type="int" name="TURBO">     0</i>
   <i type="int" name="IRESTART">     0</i>
   <i type="int" name="NREBOOT">     0</i>
   <i type="int" name="NMIN">     0</i>
   <i name="EREF">      0.00000000</i>
   <separator name="electronic smearing" >
    <i type="int" name="ISMEAR">    -5</i>
    <i name="SIGMA">      0.10000000</i>
    <i name="KSPACING">      0.50000000</i>
    <i type="logical" name="KGAMMA"> T  </i>
   </separator>
   <separator name="electronic projectors" >
    <i type="logical" name="LREAL"> F  </i>
    <v name="ROPT">      0.00000000      0.00000000</v>
    <i type="int" name="LMAXPAW">  -100</i>
    <i type="int" name="LMAXMIX">     2</i>
    <i type="logical" name="NLSPLINE"> F  </i>
   </separator>
   <separator name="electronic startup" >
    <i type="int" name="ISTART">     0</i>
    <i type="int" name="ICHARG">     2</i>
    <i type="int" name="INIWAV">     1</i>
   </separator>
   <separator name="electronic spin" >
    <i type="int" name="ISPIN">     1</i>
    <i type="logical" name="LNONCOLLINEAR"> F  </i>
    <v name="MAGMOM">      1.00000000      1.00000000      1.00000000      1.00000000      1.00000000      1.00000000      1.00000000      1.00000000      1.00000000      1.00000000      1.00000000      1.00000000      1.00000000      1.00000000      1.00000000      1.00000000      1.00000000      1.00000000      1.00000000      1.00000000
      1.00000000      1.00000000      1.00000000      1.00000000      1.00000000      1.00000000      1.00000000      1.00000000      1.00000000      1.00000000      1.00000000      1.00000000</v>
    <i name="NUPDOWN">     -1.00000000</i>
    <i type="logical" name="LSORBIT"> F  </i>
    <v name="SAXIS">      0.00000000      0.00000000      1.00000000</v>
    <i type="logical" name="LSPIRAL"> F  </i>
    <v name="QSPIRAL">      0.00000000      0.00000000      0.00000000</v>
    <i type="logical" name="LZEROZ"> F  </i>
   </separator>
   <separator name="electronic exchange-correlation" >
    <i type="logical" name="LASPH"> F  </i>
    <i type="logical" name="LMETAGGA"> F  </i>
   </separator>
   <separator name="electronic convergence" >
    <i type="int" name="NELM">    60</i>
    <i type="int" name="NELMDL">   -12</i>
    <i type="int" name="NELMIN">     5</i>
    <i name="ENINI">    213.27600000</i>
    <separator name="electronic convergence detail" >
     <i type="logical" name="LDIAG"> T  </i>
     <i type="logical" name="LSUBROT"> F  </i>
     <i name="WEIMIN">      0.00000000</i>
     <i name="EBREAK">      0.00000000</i>
     <i name="DEPER">      0.30000000</i>
     <i type="int" name="NRMM">     4</i>
     <i name="TIME">      0.40000000</i>
    </separator>
   </separator>
   <separator name="electronic mixer" >
    <i name="AMIX">      0.40000000</i>
    <i name="BMIX">      1.00000000</i>
    <i name="AMIN">      0.10000000</i>
    <i name="AMIX_MAG">      1.60000000</i>
    <i name="BMIX_MAG">      1.00000000</i>
    <separator name="electronic mixer details" >
     <i type="int" name="IMIX">     4</i>
     <i type="logical" name="MIXFIRST"> F  </i>
     <i type="int" name="MAXMIX">   -45</i>
     <i name="WC">    100.00000000</i>
     <i type="int" name="INIMIX">     1</i>
     <i type="int" name="MIXPRE">     1</i>
     <i type="int" name="MREMOVE">     5</i>
    </separator>
   </separator>
   <separator name="electronic dipolcorrection" >
    <i type="logical" name="LDIPOL"> F  </i>
    <i type="logical" name="LMONO"> F  </i>
    <i type="int" name="IDIPOL">     0</i>
    <i name="EPSILON">      1.00000000</i>
    <v name="DIPOL">   -100.00000000   -100.00000000   -100.00000000</v>
    <i name="EFIELD">      0.00000000</i>
   </separator>
  </separator>
  <separator name="grids" >
   <i type="int" name="NGX">    32</i>
   <i type="int" name="NGY">    32</i>
   <i type="int" name="NGZ">    54</i>
   <i type="int" name="NGXF">    64</i>
   <i type="int" name="NGYF">    64</i>
   <i type="int" name="NGZF">   108</i>
   <i type="logical" name="ADDGRID"> F  </i>
  </separator>
  <separator name="ionic" >
   <i type="int" name="NSW">     0</i>
   <i type="int" name="IBRION">    -1</i>
   <i type="int" name="ISIF">     2</i>
   <i name="PSTRESS">      0.00000000</i>
   <i name="EDIFFG">      0.00001000</i>
   <i type="int" name="NFREE">     0</i>
   <i name="POTIM">      0.50000000</i>
   <i name="SMASS">     -3.00000000</i>
   <i name="SCALEE">      1.00000000</i>
  </separator>
  <separator name="ionic md" >
   <i name="TEBEG">      0.00010000</i>
   <i name="TEEND">      0.00010000</i>
   <i type="int" name="NBLOCK">     1</i>
   <i type="int" name="KBLOCK">     1</i>
   <i type="int" name="NPACO">   256</i>
   <i name="APACO">     16.00000000</i>
  </separator>
  <separator name="symmetry" >
   <i type="int" name="ISYM">     2</i>
   <i name="SYMPREC">      0.00001000</i>
  </separator>
  <separator name="dos" >
   <i type="logical" name="LORBIT"> F  </i>
   <v name="RWIGS">     -1.00000000     -1.00000000</v>
   <i type="int" name="NEDOS">   301</i>
   <i name="EMIN">     10.00000000</i>
   <i name="EMAX">    -10.00000000</i>
   <i name="EFERMI">      0.00000000</i>
  </separator>
  <separator name="writing" >
   <i type="int" name="NWRITE">     2</i>
   <i type="logical" name="LWAVE"> T  </i>
   <i type="logical" name="LCHARG"> T  </i>
   <i type="logical" name="LPARD"> F  </i>
   <i type="logical" name="LVTOT"> F  </i>
   <i type="logical" name="LVHAR"> F  </i>
   <i type="logical" name="LELF"> F  </i>
   <i type="logical" name="LOPTICS"> F  </i>
   <v name="STM">      0.00000000      0.00000000      0.00000000      0.00000000      0.00000000      0.00000000      0.00000000</v>
  </separator>
  <separator name="performance" >
   <i type="int" name="NPAR">    20</i>
   <i type="int" name="NSIM">     4</i>
   <i type="int" name="NBLK">    -1</i>
   <i type="logical" name="LPLANE"> T  </i>
   <i type="logical" name="LSCALAPACK"> T  </i>
   <i type="logical" name="LSCAAWARE"> F  </i>
   <i type="logical" name="LSCALU"> F  </i>
   <i type="logical" name="LASYNC"> F  </i>
   <i type="logical" name="LORBITALREAL"> F  </i>
  </separator>
  <separator name="miscellaneous" >
   <i type="int" name="IDIOT">     3</i>
   <i type="logical" name="LMUSIC"> F  </i>
   <v name="POMASS">    192.22000000    101.07000000</v>
   <v name="DARWINR">      0.00000000      0.00000000</v>
   <v name="DARWINV">      1.00000000      1.00000000</v>
   <i type="logical" name="LCORR"> T  </i>
  </separator>
  <i type="logical" name="GGA_COMPAT"> T  </i>
  <i type="logical" name="LBERRY"> F  </i>
  <i type="int" name="ICORELEVEL">     0</i>
  <i type="logical" name="LDAU"> F  </i>
  <i type="int" name="I_CONSTRAINED_M">     0</i>
  <separator name="electronic exchange-correlation" >
   <i type="string" name="GGA">--</i>
   <i type="int" name="VOSKOWN">     0</i>
   <i type="logical" name="LHFCALC"> F  </i>
   <i type="string" name="PRECFOCK"></i>
   <i type="logical" name="LSYMGRAD"> F  </i>
   <i type="logical" name="LHFONE"> F  </i>
   <i type="logical" name="LRHFCALC"> F  </i>
   <i type="logical" name="LTHOMAS"> F  </i>
   <i type="logical" name="LMODELHF"> F  </i>
   <i name="ENCUT4O">     -1.00000000</i>
   <i type="int" name="EXXOEP">     0</i>
   <i type="int" name="FOURORBIT">     0</i>
   <i name="AEXX">      0.00000000</i>
   <i name="HFALPHA">      0.00000000</i>
   <i name="MCALPHA">      0.00000000</i>
   <i name="ALDAX">      1.00000000</i>
   <i name="AGGAX">      1.00000000</i>
   <i name="ALDAC">      1.00000000</i>
   <i name="AGGAC">      1.00000000</i>
   <i type="int" name="NKREDX">     1</i>
   <i type="int" name="NKREDY">     1</i>
   <i type="int" name="NKREDZ">     1</i>
   <i type="logical" name="SHIFTRED"> F  </i>
   <i type="logical" name="ODDONLY"> F  </i>
   <i type="logical" name="EVENONLY"> F  </i>
   <i type="int" name="LMAXFOCK">     0</i>
   <i type="int" name="NMAXFOCKAE">     0</i>
   <i type="logical" name="LFOCKAEDFT"> F  </i>
   <i name="HFSCREEN">      0.00000000</i>
   <i name="HFSCREENC">      0.00000000</i>
   <i type="int" name="NBANDSGWLOW">     0</i>
  </separator>
  <separator name="vdW DFT" >
   <i type="logical" name="LUSE_VDW"> F  </i>
   <i name="Zab_VDW">     -0.84910000</i>
   <i name="PARAM1">      0.12340000</i>
   <i name="PARAM2">      1.00000000</i>
   <i name="PARAM3">      0.00000000</i>
  </separator>
  <separator name="model GW" >
   <i type="int" name="MODEL_GW">     0</i>
   <i name="MODEL_EPS0">      8.36462372</i>
   <i name="MODEL_ALPHA">      1.00000000</i>
  </separator>
  <separator name="linear response parameters" >
   <i type="logical" name="LEPSILON"> F  </i>
   <i type="logical" name="LRPA"> F  </i>
   <i type="logical" name="LNABLA"> F  </i>
   <i type="logical" name="LVEL"> F  </i>
   <i type="int" name="KINTER">     0</i>
   <i name="CSHIFT">      0.10000000</i>
   <i name="OMEGAMAX">     -1.00000000</i>
   <i name="DEG_THRESHOLD">      0.00200000</i>
  </separator>
  <separator name="orbital magnetization" >
   <i type="logical" name="NUCIND"> F  </i>
   <v name="MAGPOS">      0.00000000      0.00000000      0.00000000</v>
   <i type="logical" name="LNICSALL"> T  </i>
   <i type="logical" name="ORBITALMAG"> F  </i>
   <i type="logical" name="LMAGBLOCH"> F  </i>
   <i type="logical" name="LCHIMAG"> F  </i>
   <i type="logical" name="LGAUGE"> T  </i>
   <i type="int" name="MAGATOM">     0</i>
   <v name="MAGDIPOL">      0.00000000      0.00000000      0.00000000</v>
   <v name="AVECCONST">      0.00000000      0.00000000      0.00000000</v>
  </separator>
  <separator name="response functions" >
   <i type="logical" name="LADDER"> F  </i>
   <i type="logical" name="LFXC"> F  </i>
   <i type="logical" name="LHARTREE"> T  </i>
   <i type="int" name="IBSE">     0</i>
   <v type="int" name="KPOINT">    -1     0     0     0</v>
   <i type="logical" name="LTCTE"> F  </i>
   <i type="logical" name="LTETE"> F  </i>
   <i type="logical" name="LTRIPLET"> F  </i>
   <i type="logical" name="LFXCEPS"> F  </i>
   <i type="logical" name="LFXHEG"> F  </i>
   <i type="int" name="NATURALO">     0</i>
   <i type="logical" name="L2ORDER"> F  </i>
   <i type="logical" name="LUSEW"> F  </i>
   <i name="ENCUTGW">     -2.00000000</i>
   <i name="ENCUTGWSOFT">     -2.00000000</i>
   <i name="ENCUTLF">     -1.00000000</i>
   <i type="int" name="LMAXMP2">    -1</i>
   <i name="SCISSOR">      0.00000000</i>
   <i type="int" name="NOMEGA">     0</i>
   <i type="int" name="NOMEGAR">     0</i>
   <i type="int" name="NBANDSGW">    -1</i>
   <i type="int" name="NBANDSO">    -1</i>
   <i type="int" name="NBANDSV">    -1</i>
   <i type="int" name="NELM">     1</i>
   <i type="int" name="NELMHF">     1</i>
   <i type="int" name="DIM">     3</i>
   <i type="int" name="ANTIRES">     0</i>
   <i name="OMEGAMAX">    -30.00000000</i>
   <i name="OMEGAMIN">    -30.00000000</i>
   <i name="OMEGATL">   -200.00000000</i>
   <i type="int" name="OMEGAGRID">     0</i>
   <i name="CSHIFT">     -0.10000000</i>
   <i type="logical" name="SELFENERGY"> F  </i>
   <i type="logical" name="LSPECTRAL"> F  </i>
   <i type="logical" name="LSPECTRALGW"> F  </i>
   <i type="logical" name="LSINGLES"> F  </i>
   <i type="logical" name="LFERMIGW"> F  </i>
   <i type="logical" name="ODDONLYGW"> F  </i>
   <i type="logical" name="EVENONLYGW"> F  </i>
   <i type="int" name="NKREDLFX">     1</i>
   <i type="int" name="NKREDLFY">     1</i>
   <i type="int" name="NKREDLFZ">     1</i>
   <i type="int" name="MAXMEM">  1800</i>
   <i type="int" name="TELESCOPE">     0</i>
   <i type="int" name="TAUPAR">     1</i>
   <i type="int" name="OMEGAPAR">    -1</i>
   <i name="LAMBDA">      1.00000000</i>
  </separator>
  <separator name="External order field" >
   <i name="OFIELD_KAPPA">      0.00000000</i>
   <v name="OFIELD_K">      0.00000000      0.00000000      0.00000000</v>
   <i name="OFIELD_Q6_NEAR">      0.00000000</i>
   <i name="OFIELD_Q6_FAR">      0.00000000</i>
   <i name="OFIELD_A">      0.00000000</i>
  </separator>
 </parameters>
 <atominfo>
  <atoms>      32 </atoms>
  <types>       2 </types>
  <array name="atoms" >
   <dimension dim="1">ion</dimension>
   <field type="string">element</field>
   <field type="int">atomtype</field>
   <set>
    <rc><c>Ir</c><c>   1</c></rc>
    <rc><c>Ir</c><c>   1</c></rc>
    <rc><c>Ir</c><c>   1</c></rc>
    <rc><c>Ir</c><c>   1</c></rc>
    <rc><c>Ru</c><c>   2</c></rc>
    <rc><c>Ru</c><c>   2</c></rc>
    <rc><c>Ru</c><c>   2</c></rc>
    <rc><c>Ru</c><c>   2</c></rc>
    <rc><c>Ru</c><c>   2</c></rc>
    <rc><c>Ru</c><c>   2</c></rc>
    <rc><c>Ru</c><c>   2</c></rc>
    <rc><c>Ru</c><c>   2</c></rc>
    <rc><c>Ru</c><c>   2</c></rc>
    <rc><c>Ru</c><c>   2</c></rc>
    <rc><c>Ru</c><c>   2</c></rc>
    <rc><c>Ru</c><c>   2</c></rc>
    <rc><c>Ru</c><c>   2</c></rc>
    <rc><c>Ru</c><c>   2</c></rc>
    <rc><c>Ru</c><c>   2</c></rc>
    <rc><c>Ru</c><c>   2</c></rc>
    <rc><c>Ru</c><c>   2</c></rc>
    <rc><c>Ru</c><c>   2</c></rc>
    <rc><c>Ru</c><c>   2</c></rc>
    <rc><c>Ru</c><c>   2</c></rc>
    <rc><c>Ru</c><c>   2</c></rc>
    <rc><c>Ru</c><c>   2</c></rc>
    <rc><c>Ru</c><c>   2</c></rc>
    <rc><c>Ru</c><c>   2</c></rc>
    <rc><c>Ru</c><c>   2</c></rc>
    <rc><c>Ru</c><c>   2</c></rc>
    <rc><c>Ru</c><c>   2</c></rc>
    <rc><c>Ru</c><c>   2</c></rc>
   </set>
  </array>
  <array name="atomtypes" >
   <dimension dim="1">type</dimension>
   <field type="int">atomspertype</field>
   <field type="string">element</field>
   <field>mass</field>
   <field>valence</field>
   <field type="string">pseudopotential</field>
   <set>
    <rc><c>   4</c><c>Ir</c><c>    192.22000000</c><c>      9.00000000</c><c> PAW_PBE Ir 06Sep2000                   </c></rc>
    <rc><c>  28</c><c>Ru</c><c>    101.07000000</c><c>      8.00000000</c><c> PAW_PBE Ru 06Sep2000                   </c></rc>
   </set>
  </array>
 </atominfo>
 <structure name="initialpos" >
  <crystal>
   <varray name="basis" >
    <v>      -3.82000443       3.82000443      -3.82026761 </v>
    <v>       3.82000443      -3.82000443      -3.82026761 </v>
    <v>      -7.64236002      -7.64236002       0.00000000 </v>
   </varray>
   <i name="volume">    446.11326524 </i>
   <varray name="rec_basis" >
    <v>      -0.06544495       0.06544495      -0.13088088 </v>
    <v>       0.06544495      -0.06544495      -0.13088088 </v>
    <v>      -0.06542482      -0.06542482       0.00000000 </v>
   </varray>
  </crystal>
  <varray name="positions" >
   <v>       0.25060498       0.74939502       0.75000000 </v>
   <v>       0.74939502       0.25060498       0.75000000 </v>
   <v>       0.00000000       0.00000000       0.49998945 </v>
   <v>       0.00000000       0.00000000       0.00001055 </v>
   <v>       0.50000000       0.50000000       0.49995665 </v>
   <v>       0.25068604       0.74931396       0.25000000 </v>
   <v>       0.74931396       0.25068604       0.25000000 </v>
   <v>       0.50000000       0.50000000       0.00004335 </v>
   <v>       0.12644653       0.37530318       0.62441086 </v>
   <v>       0.62469682       0.87355347       0.62441086 </v>
   <v>       0.37655396       0.12534951       0.37440728 </v>
   <v>       0.12534951       0.37655396       0.12559272 </v>
   <v>       0.62344604       0.87465049       0.12559272 </v>
   <v>       0.37530318       0.12644653       0.87558914 </v>
   <v>       0.87465049       0.62344604       0.37440728 </v>
   <v>       0.87355347       0.62469682       0.87558914 </v>
   <v>       0.87355347       0.62469682       0.62441086 </v>
   <v>       0.37530318       0.12644653       0.62441086 </v>
   <v>       0.12534951       0.37655396       0.37440728 </v>
   <v>       0.87465049       0.62344604       0.12559272 </v>
   <v>       0.37655396       0.12534951       0.12559272 </v>
   <v>       0.12644653       0.37530318       0.87558914 </v>
   <v>       0.62344604       0.87465049       0.37440728 </v>
   <v>       0.62469682       0.87355347       0.87558914 </v>
   <v>       0.25084630       0.74915370       0.49914534 </v>
   <v>       0.74915370       0.25084630       0.49914534 </v>
   <v>       0.50000000       0.50000000       0.25000000 </v>
   <v>       0.25084630       0.74915370       0.00085466 </v>
   <v>       0.74915370       0.25084630       0.00085466 </v>
   <v>       0.50000000       0.50000000       0.75000000 </v>
   <v>       0.00000000       0.00000000       0.25000000 </v>
   <v>       0.00000000       0.00000000       0.75000000 </v>
  </varray>
 </structure>
 <calculation>
  <scstep>
   <time name="diag">    2.58    2.58</time>
   <time name="diis">    3.57    3.57</time>
   <time name="orth">    0.40    0.40</time>
   <time name="total">    6.73    6.73</time>
   <energy>
    <i name="alphaZ">   2021.47489410 </i>
    <i name="ewald"> -18265.19690345 </i>
    <i name="hartreedc">  -1268.16293634 </i>
    <i name="XCdc">   -969.24733167 </i>
    <i name="pawpsdc">  12515.98992421 </i>
    <i name="pawaedc"> -10974.00957607 </i>
    <i name="eentropy">      0.00000000 </i>
    <i name="bandstr">   3517.26866384 </i>
    <i name="atom">  14979.38053054 </i>
    <i name="e_fr_energy">   1557.49726516 </i>
    <i name="e_wo_entrp">   1557.49726516 </i>
    <i name="e_0_energy">   1557.49726516 </i>
   </energy>
  </scstep>
  <scstep>
   <time name="diag">    2.59    2.59</time>
   <time name="diis">    3.58    3.58</time>
   <time name="orth">    0.40    0.40</time>
   <time name="total">    6.73    6.73</time>
   <energy>
    <i name="e_fr_energy">    112.72585892 </i>
    <i name="e_wo_entrp">    112.72585892 </i>
    <i name="e_0_energy">    112.72585892 </i>
   </energy>
  </scstep>
  <scstep>
   <time name="diag">    2.58    2.57</time>
   <time name="diis">    3.57    3.57</time>
   <time name="orth">    0.40    0.40</time>
   <time name="total">    6.71    6.70</time>
   <energy>
    <i name="e_fr_energy">   -146.89393088 </i>
    <i name="e_wo_entrp">   -146.89393088 </i>
    <i name="e_0_energy">   -146.89393088 </i>
   </energy>
  </scstep>
  <scstep>
   <time name="diag">    2.59    2.59</time>
   <time name="diis">    3.58    3.58</time>
   <time name="orth">    0.40    0.40</time>
   <time name="total">    6.71    6.71</time>
   <energy>
    <i name="e_fr_energy">   -238.20590258 </i>
    <i name="e_wo_entrp">   -238.20590258 </i>
    <i name="e_0_energy">   -238.20590258 </i>
   </energy>
  </scstep>
  <scstep>
   <time name="diag">    2.58    2.57</time>
   <time name="diis">    3.57    3.57</time>
   <time name="orth">    0.40    0.40</time>
   <time name="total">    6.68    6.68</time>
   <energy>
    <i name="e_fr_energy">   -270.01182669 </i>
    <i name="e_wo_entrp">   -270.01182669 </i>
    <i name="e_0_energy">   -270.01182669 </i>
   </energy>
  </scstep>
  <scstep>
   <time name="diag">    2.59    2.59</time>
   <time name="diis">    3.57    3.57</time>
   <time name="orth">    0.40    0.40</time>
   <time name="total">    6.68    6.67</time>
   <energy>
    <i name="e_fr_energy">   -286.33580194 </i>
    <i name="e_wo_entrp">   -286.33580194 </i>
    <i name="e_0_energy">   -286.33580194 </i>
   </energy>
  </scstep>
  <scstep>
   <time name="diag">    2.58    2.58</time>
   <time name="diis">    3.58    3.58</time>
   <time name="orth">    0.40    0.40</time>
   <time name="total">    6.69    6.69</time>
   <energy>
    <i name="e_fr_energy">   -295.22888762 </i>
    <i name="e_wo_entrp">   -295.22888762 </i>
    <i name="e_0_energy">   -295.22888762 </i>
   </energy>
  </scstep>
  <scstep>
   <time name="diag">    2.59    2.59</time>
   <time name="diis">    3.56    3.56</time>
   <time name="orth">    0.40    0.40</time>
   <time name="total">    6.69    6.68</time>
   <energy>
    <i name="e_fr_energy">   -300.78479254 </i>
    <i name="e_wo_entrp">   -300.78479254 </i>
    <i name="e_0_energy">   -300.78479254 </i>
   </energy>
  </scstep>
  <scstep>
   <time name="diag">    2.58    2.58</time>
   <time name="diis">   10.03   10.02</time>
   <time name="orth">    0.40    0.40</time>
   <time name="total">   13.14   13.14</time>
   <energy>
    <i name="e_fr_energy">   -310.20275334 </i>
    <i name="e_wo_entrp">   -310.20275334 </i>
    <i name="e_0_energy">   -310.20275334 </i>
   </energy>
  </scstep>
  <scstep>
   <time name="diag">    2.59    2.59</time>
   <time name="diis">   10.30   10.29</time>
   <time name="orth">    0.40    0.40</time>
   <time name="total">   13.45   13.44</time>
   <energy>
    <i name="e_fr_energy">   -311.28905331 </i>
    <i name="e_wo_entrp">   -311.28905331 </i>
    <i name="e_0_energy">   -311.28905331 </i>
   </energy>
  </scstep>
  <scstep>
   <time name="diag">    2.58    2.58</time>
   <time name="diis">   10.13   10.13</time>
   <time name="orth">    0.40    0.40</time>
   <time name="total">   13.25   13.24</time>
   <energy>
    <i name="e_fr_energy">   -311.50563224 </i>
    <i name="e_wo_entrp">   -311.50563224 </i>
    <i name="e_0_energy">   -311.50563224 </i>
   </energy>
  </scstep>
  <scstep>
   <time name="diag">    2.59    2.59</time>
   <time name="diis">   10.19   10.18</time>
   <time name="orth">    0.40    0.40</time>
   <time name="total">   13.65   13.64</time>
   <energy>
    <i name="e_fr_energy">   -311.53192073 </i>
    <i name="e_wo_entrp">   -311.53192073 </i>
    <i name="e_0_energy">   -311.53192073 </i>
   </energy>
  </scstep>
  <scstep>
   <time name="diag">    2.58    2.58</time>
   <time name="diis">    7.73    7.72</time>
   <time name="orth">    0.40    0.40</time>
   <time name="total">   11.20   11.19</time>
   <energy>
    <i name="e_fr_energy">   -296.51664066 </i>
    <i name="e_wo_entrp">   -296.51664066 </i>
    <i name="e_0_energy">   -296.51664066 </i>
   </energy>
  </scstep>
  <scstep>
   <time name="diag">    2.57    2.57</time>
   <time name="diis">    8.25    8.25</time>
   <time name="orth">    0.40    0.40</time>
   <time name="total">   11.71   11.71</time>
   <energy>
    <i name="e_fr_energy">   -299.47161029 </i>
    <i name="e_wo_entrp">   -299.47161029 </i>
    <i name="e_0_energy">   -299.47161029 </i>
   </energy>
  </scstep>
  <scstep>
   <time name="diag">    2.57    2.57</time>
   <time name="diis">    7.93    7.92</time>
   <time name="orth">    0.40    0.40</time>
   <time name="total">   11.39   11.38</time>
   <energy>
    <i name="e_fr_energy">   -292.43105433 </i>
    <i name="e_wo_entrp">   -292.43105433 </i>
    <i name="e_0_energy">   -292.43105433 </i>
   </energy>
  </scstep>
  <scstep>
   <time name="diag">    2.59    2.59</time>
   <time name="diis">    8.32    8.31</time>
   <time name="orth">    0.40    0.40</time>
   <time name="total">   11.78   11.77</time>
   <energy>
    <i name="e_fr_energy">   -291.21456172 </i>
    <i name="e_wo_entrp">   -291.21456172 </i>
    <i name="e_0_energy">   -291.21456172 </i>
   </energy>
  </scstep>
  <scstep>
   <time name="diag">    2.58    2.58</time>
   <time name="diis">    9.08    9.08</time>
   <time name="orth">    0.40    0.40</time>
   <time name="total">   12.55   12.55</time>
   <energy>
    <i name="e_fr_energy">   -291.05465039 </i>
    <i name="e_wo_entrp">   -291.05465039 </i>
    <i name="e_0_energy">   -291.05465039 </i>
   </energy>
  </scstep>
  <scstep>
   <time name="diag">    2.57    2.57</time>
   <time name="diis">    8.35    8.35</time>
   <time name="orth">    0.40    0.40</time>
   <time name="total">   11.81   11.80</time>
   <energy>
    <i name="e_fr_energy">   -290.99144645 </i>
    <i name="e_wo_entrp">   -290.99144645 </i>
    <i name="e_0_energy">   -290.99144645 </i>
   </energy>
  </scstep>
  <scstep>
   <time name="diag">    2.57    2.57</time>
   <time name="diis">    8.16    8.15</time>
   <time name="orth">    0.40    0.40</time>
   <time name="total">   11.62   11.61</time>
   <energy>
    <i name="e_fr_energy">   -290.96482472 </i>
    <i name="e_wo_entrp">   -290.96482472 </i>
    <i name="e_0_energy">   -290.96482472 </i>
   </energy>
  </scstep>
  <scstep>
   <time name="diag">    2.59    2.59</time>
   <time name="diis">    9.29    9.29</time>
   <time name="orth">    0.40    0.40</time>
   <time name="total">   12.77   12.77</time>
   <energy>
    <i name="e_fr_energy">   -290.95661036 </i>
    <i name="e_wo_entrp">   -290.95661036 </i>
    <i name="e_0_energy">   -290.95661036 </i>
   </energy>
  </scstep>
  <scstep>
   <time name="diag">    2.58    2.58</time>
   <time name="diis">    9.14    9.13</time>
   <time name="orth">    0.40    0.40</time>
   <time name="total">   12.61   12.60</time>
   <energy>
    <i name="e_fr_energy">   -290.95635562 </i>
    <i name="e_wo_entrp">   -290.95635562 </i>
    <i name="e_0_energy">   -290.95635562 </i>
   </energy>
  </scstep>
  <scstep>
   <time name="diag">    2.57    2.57</time>
   <time name="diis">    9.43    9.42</time>
   <time name="orth">    0.40    0.40</time>
   <time name="total">   12.88   12.87</time>
   <energy>
    <i name="e_fr_energy">   -290.95640498 </i>
    <i name="e_wo_entrp">   -290.95640498 </i>
    <i name="e_0_energy">   -290.95640498 </i>
   </energy>
  </scstep>
  <scstep>
   <time name="diag">    2.58    2.57</time>
   <time name="diis">    8.39    8.39</time>
   <time name="orth">    0.40    0.40</time>
   <time name="total">   11.52   11.51</time>
   <energy>
    <i name="alphaZ">   2021.47489410 </i>
    <i name="ewald"> -18265.19690345 </i>
    <i name="hartreedc">   -975.00336269 </i>
    <i name="XCdc">   -970.97830615 </i>
    <i name="pawpsdc">  14300.35970643 </i>
    <i name="pawaedc"> -12835.37165646 </i>
    <i name="eentropy">      0.00000000 </i>
    <i name="bandstr">   1454.37875602 </i>
    <i name="atom">  14979.38053054 </i>
    <i name="e_fr_energy">   -290.95634167 </i>
    <i name="e_wo_entrp">   -290.95634167 </i>
    <i name="e_0_energy">   -290.95634167 </i>
   </energy>
  </scstep>
  <structure>
   <crystal>
    <varray name="basis" >
     <v>      -3.82000443       3.82000443      -3.82026761 </v>
     <v>       3.82000443      -3.82000443      -3.82026761 </v>
     <v>      -7.64236002      -7.64236002       0.00000000 </v>
    </varray>
    <i name="volume">    446.11326524 </i>
    <varray name="rec_basis" >
     <v>      -0.06544495       0.06544495      -0.13088088 </v>
     <v>       0.06544495      -0.06544495      -0.13088088 </v>
     <v>      -0.06542482      -0.06542482       0.00000000 </v>
    </varray>
   </crystal>
   <varray name="positions" >
    <v>       0.25060498       0.74939502       0.75000000 </v>
    <v>       0.74939502       0.25060498       0.75000000 </v>
    <v>       0.00000000       0.00000000       0.49998945 </v>
    <v>       0.00000000       0.00000000       0.00001055 </v>
    <v>       0.50000000       0.50000000       0.49995665 </v>
    <v>       0.25068604       0.74931396       0.25000000 </v>
    <v>       0.74931396       0.25068604       0.25000000 </v>
    <v>       0.50000000       0.50000000       0.00004335 </v>
    <v>       0.12644653       0.37530318       0.62441086 </v>
    <v>       0.62469682       0.87355347       0.62441086 </v>
    <v>       0.37655396       0.12534951       0.37440728 </v>
    <v>       0.12534951       0.37655396       0.12559272 </v>
    <v>       0.62344604       0.87465049       0.12559272 </v>
    <v>       0.37530318       0.12644653       0.87558914 </v>
    <v>       0.87465049       0.62344604       0.37440728 </v>
    <v>       0.87355347       0.62469682       0.87558914 </v>
    <v>       0.87355347       0.62469682       0.62441086 </v>
    <v>       0.37530318       0.12644653       0.62441086 </v>
    <v>       0.12534951       0.37655396       0.37440728 </v>
    <v>       0.87465049       0.62344604       0.12559272 </v>
    <v>       0.37655396       0.12534951       0.12559272 </v>
    <v>       0.12644653       0.37530318       0.87558914 </v>
    <v>       0.62344604       0.87465049       0.37440728 </v>
    <v>       0.62469682       0.87355347       0.87558914 </v>
    <v>       0.25084630       0.74915370       0.49914534 </v>
    <v>       0.74915370       0.25084630       0.49914534 </v>
    <v>       0.50000000       0.50000000       0.25000000 </v>
    <v>       0.25084630       0.74915370       0.00085466 </v>
    <v>       0.74915370       0.25084630       0.00085466 </v>
    <v>       0.50000000       0.50000000       0.75000000 </v>
    <v>       0.00000000       0.00000000       0.25000000 </v>
    <v>       0.00000000       0.00000000       0.75000000 </v>
   </varray>
  </structure>
  <varray name="forces" >
   <v>       0.00068749      -0.00068749      -0.00000000 </v>
   <v>      -0.00068749       0.00068749      -0.00000000 </v>
   <v>       0.00046041       0.00046041      -0.00000000 </v>
   <v>      -0.00046041      -0.00046041      -0.00000000 </v>
   <v>      -0.00087833      -0.00087833      -0.00000000 </v>
   <v>       0.00222282      -0.00222282      -0.00000000 </v>
   <v>      -0.00222282       0.00222282      -0.00000000 </v>
   <v>       0.00087833       0.00087833      -0.00000000 </v>
   <v>      -0.00016889      -0.00250749      -0.00396013 </v>
   <v>      -0.00016889      -0.00250749       0.00396013 </v>
   <v>      -0.00556789       0.00767658      -0.00479454 </v>
   <v>       0.00556789      -0.00767658      -0.00479454 </v>
   <v>       0.00556789      -0.00767658       0.00479454 </v>
   <v>       0.00016889       0.00250749      -0.00396013 </v>
   <v>      -0.00556789       0.00767658       0.00479454 </v>
   <v>       0.00016889       0.00250749       0.00396013 </v>
   <v>      -0.00250749      -0.00016889       0.00396013 </v>
   <v>      -0.00250749      -0.00016889      -0.00396013 </v>
   <v>       0.00767658      -0.00556789      -0.00479454 </v>
   <v>      -0.00767658       0.00556789       0.00479454 </v>
   <v>      -0.00767658       0.00556789      -0.00479454 </v>
   <v>       0.00250749       0.00016889      -0.00396013 </v>
   <v>       0.00767658      -0.00556789       0.00479454 </v>
   <v>       0.00250749       0.00016889       0.00396013 </v>
   <v>      -0.00377878       0.00197833      -0.00000000 </v>
   <v>       0.00197833      -0.00377878      -0.00000000 </v>
   <v>      -0.00000000      -0.00000000      -0.00000000 </v>
   <v>      -0.00197833       0.00377878      -0.00000000 </v>
   <v>       0.00377878      -0.00197833      -0.00000000 </v>
   <v>      -0.00000000      -0.00000000      -0.00000000 </v>
   <v>      -0.00000000      -0.00000000      -0.00000000 </v>
   <v>      -0.00000000      -0.00000000      -0.00000000 </v>
  </varray>
  <varray name="stress" >
   <v>     -24.36614588       0.99304629       0.00000000 </v>
   <v>       0.99304629     -24.36614588      -0.00000000 </v>
   <v>       0.00000000       0.00000000     -24.23794857 </v>
  </varray>
  <energy>
   <i name="e_fr_energy">   -290.95634167 </i>
   <i name="e_wo_entrp">   -290.95634167 </i>
   <i name="e_0_energy">      0.00000000 </i>
  </energy>
  <time name="totalsc">  261.49  261.38</time>
  <eigenvalues>
   <array>
    <dimension dim="1">band</dimension>
    <dimension dim="2">kpoint</dimension>
    <dimension dim="3">spin</dimension>
    <field>eigene</field>
    <field>occ</field>
    <set>
     <set comment="spin 1">
      <set comment="kpoint 1">
       <r>    0.4506    1.0000 </r>
       <r>    1.9890    1.0000 </r>
       <r>    2.0643    1.0000 </r>
       <r>    2.2940    1.0000 </r>
       <r>    2.2967    1.0000 </r>
       <r>    2.4552    1.0000 </r>
       <r>    2.7773    1.0000 </r>
       <r>    2.7824    1.0000 </r>
       <r>    2.7912    1.0000 </r>
       <r>    2.8520    1.0000 </r>
       <r>    3.0171    1.0000 </r>
       <r>    3.2379    1.0000 </r>
       <r>    3.2614    1.0000 </r>
       <r>    3.2849    1.0000 </r>
       <r>    3.3180    1.0000 </r>
       <r>    3.4179    1.0000 </r>
       <r>    3.4484    1.0000 </r>
       <r>    3.4649    1.0000 </r>
       <r>    3.4921    1.0000 </r>
       <r>    3.6546    1.0000 </r>
       <r>    3.7186    1.0000 </r>
       <r>    3.7200    1.0000 </r>
       <r>    3.7584    1.0000 </r>
       <r>    3.7616    1.0000 </r>
       <r>    3.7776    1.0000 </r>
       <r>    3.8114    1.0000 </r>
       <r>    3.8405    1.0000 </r>
       <r>    4.0802    1.0000 </r>
       <r>    4.0961    1.0000 </r>
       <r>    4.2787    1.0000 </r>
       <r>    4.3027    1.0000 </r>
       <r>    4.3379    1.0000 </r>
       <r>    4.3472    1.0000 </r>
       <r>    4.4088    1.0000 </r>
       <r>    4.4395    1.0000 </r>
       <r>    4.6122    1.0000 </r>
       <r>    4.6218    1.0000 </r>
       <r>    4.6259    1.0000 </r>
       <r>    4.6265    1.0000 </r>
       <r>    4.6287    1.0000 </r>
       <r>    4.6316    1.0000 </r>
       <r>    4.6328    1.0000 </r>
       <r>    4.7041    1.0000 </r>
       <r>    4.8420    1.0000 </r>
       <r>    4.8435    1.0000 </r>
       <r>    5.0031    1.0000 </r>
       <r>    5.0068    1.0000 </r>
       <r>    5.0338    1.0000 </r>
       <r>    5.0344    1.0000 </r>
       <r>    5.0443    1.0000 </r>
       <r>    5.0524    1.0000 </r>
       <r>    5.1556    1.0000 </r>
       <r>    5.1660    1.0000 </r>
       <r>    5.1717    1.0000 </r>
       <r>    5.2060    1.0000 </r>
       <r>    5.2260    1.0000 </r>
       <r>    5.2554    1.0000 </r>
       <r>    5.2554    1.0000 </r>
       <r>    5.2557    1.0000 </r>
       <r>    5.3344    1.0000 </r>
       <r>    5.3901    1.0000 </r>
       <r>    5.4049    1.0000 </r>
       <r>    5.5574    1.0000 </r>
       <r>    5.5731    1.0000 </r>
       <r>    5.5773    1.0000 </r>
       <r>    5.5787    1.0000 </r>
       <r>    5.5829    1.0000 </r>
       <r>    5.5872    1.0000 </r>
       <r>    5.6456    1.0000 </r>
       <r>    5.6484    1.0000 </r>
       <r>    5.6539    1.0000 </r>
       <r>    5.6793    1.0000 </r>
       <r>    5.7104    1.0000 </r>
       <r>    5.8046    1.0000 </r>
       <r>    5.8286    1.0000 </r>
       <r>    5.9852    1.0000 </r>
       <r>    6.0221    1.0000 </r>
       <r>    6.0783    1.0000 </r>
       <r>    6.0930    1.0000 </r>
       <r>    6.1256    1.0000 </r>
       <r>    6.1697    1.0000 </r>
       <r>    6.1824    1.0000 </r>
       <r>    6.4530    1.0000 </r>
       <r>    6.4643    1.0000 </r>
       <r>    6.4999    1.0000 </r>
       <r>    6.5020    1.0000 </r>
       <r>    6.5580    1.0000 </r>
       <r>    6.5799    1.0000 </r>
       <r>    6.7281    1.0000 </r>
       <r>    6.7418    1.0000 </r>
       <r>    6.7426    1.0000 </r>
       <r>    6.7601    1.0000 </r>
       <r>    6.7648    1.0000 </r>
       <r>    6.7923    1.0000 </r>
       <r>    6.7949    1.0000 </r>
       <r>    6.8024    1.0000 </r>
       <r>    6.9607    1.0000 </r>
       <r>    6.9696    1.0000 </r>
       <r>    7.0176    1.0000 </r>
       <r>    7.1459    1.0000 </r>
       <r>    7.1480    1.0000 </r>
       <r>    7.1519    1.0000 </r>
       <r>    7.1892    1.0000 </r>
       <r>    7.2015    1.0000 </r>
       <r>    7.3385    1.0000 </r>
       <r>    7.3493    1.0000 </r>
       <r>    7.3583    1.0000 </r>
       <r>    7.4724    1.0000 </r>
       <r>    7.4754    1.0000 </r>
       <r>    7.4761    1.0000 </r>
       <r>    7.4785    1.0000 </r>
       <r>    7.4792    1.0000 </r>
       <r>    7.4794    1.0000 </r>
       <r>    7.4801    1.0000 </r>
       <r>    7.4862    1.0000 </r>
       <r>    7.4908    1.0000 </r>
       <r>    7.7903    1.0000 </r>
       <r>    7.7908    1.0000 </r>
       <r>    8.3117    1.0000 </r>
       <r>    8.3139    1.0000 </r>
       <r>    8.3151    1.0000 </r>
       <r>    8.3192    1.0000 </r>
       <r>    8.3201    1.0000 </r>
       <r>    8.3267    1.0000 </r>
       <r>    8.4024    1.0000 </r>
       <r>    8.4031    1.0000 </r>
       <r>    8.4034    1.0000 </r>
       <r>    8.4365    1.0000 </r>
       <r>    8.4377    1.0250 </r>
       <r>    8.4400    1.1539 </r>
       <r>    8.4872    1.2075 </r>
       <r>    8.4889    1.5008 </r>
       <r>    8.7968   -0.0083 </r>
       <r>    8.7987    0.0000 </r>
       <r>    8.9754    0.0000 </r>
       <r>    8.9817    0.0000 </r>
       <r>    9.2546    0.0000 </r>
       <r>    9.2566    0.0000 </r>
       <r>    9.2570    0.0000 </r>
       <r>    9.2604    0.0000 </r>
       <r>    9.7467    0.0000 </r>
       <r>    9.7489    0.0000 </r>
       <r>    9.7624    0.0000 </r>
       <r>    9.7643    0.0000 </r>
       <r>    9.9291    0.0000 </r>
       <r>    9.9351    0.0000 </r>
       <r>    9.9470    0.0000 </r>
       <r>    9.9532    0.0000 </r>
       <r>    9.9573    0.0000 </r>
       <r>    9.9860    0.0000 </r>
       <r>   10.0133    0.0000 </r>
       <r>   10.0273    0.0000 </r>
       <r>   10.0660    0.0000 </r>
       <r>   10.0784    0.0000 </r>
       <r>   10.1023    0.0000 </r>
       <r>   10.2177    0.0000 </r>
       <r>   12.1628    0.0000 </r>
       <r>   12.1777    0.0000 </r>
       <r>   12.7361    0.0000 </r>
       <r>   12.7966    0.0000 </r>
      </set>
      <set comment="kpoint 2">
       <r>    0.5293    1.0000 </r>
       <r>    2.0259    1.0000 </r>
       <r>    2.1035    1.0000 </r>
       <r>    2.3481    1.0000 </r>
       <r>    2.3534    1.0000 </r>
       <r>    2.4987    1.0000 </r>
       <r>    2.7325    1.0000 </r>
       <r>    2.8142    1.0000 </r>
       <r>    2.8407    1.0000 </r>
       <r>    2.8490    1.0000 </r>
       <r>    2.9384    1.0000 </r>
       <r>    3.2504    1.0000 </r>
       <r>    3.2764    1.0000 </r>
       <r>    3.3000    1.0000 </r>
       <r>    3.3762    1.0000 </r>
       <r>    3.3871    1.0000 </r>
       <r>    3.4360    1.0000 </r>
       <r>    3.4753    1.0000 </r>
       <r>    3.4810    1.0000 </r>
       <r>    3.5404    1.0000 </r>
       <r>    3.5589    1.0000 </r>
       <r>    3.7414    1.0000 </r>
       <r>    3.7590    1.0000 </r>
       <r>    3.8564    1.0000 </r>
       <r>    3.8618    1.0000 </r>
       <r>    3.8988    1.0000 </r>
       <r>    3.9188    1.0000 </r>
       <r>    4.0462    1.0000 </r>
       <r>    4.1148    1.0000 </r>
       <r>    4.1237    1.0000 </r>
       <r>    4.1487    1.0000 </r>
       <r>    4.1915    1.0000 </r>
       <r>    4.2736    1.0000 </r>
       <r>    4.3224    1.0000 </r>
       <r>    4.3373    1.0000 </r>
       <r>    4.3532    1.0000 </r>
       <r>    4.3781    1.0000 </r>
       <r>    4.4598    1.0000 </r>
       <r>    4.4787    1.0000 </r>
       <r>    4.5197    1.0000 </r>
       <r>    4.5431    1.0000 </r>
       <r>    4.6012    1.0000 </r>
[...]
       <r>    7.6047    1.0000 </r>
       <r>    7.6349    1.0000 </r>
       <r>    7.6595    1.0000 </r>
       <r>    7.6668    1.0000 </r>
       <r>    7.6818    1.0000 </r>
       <r>    7.7047    1.0000 </r>
       <r>    7.7526    1.0000 </r>
       <r>    7.7607    1.0000 </r>
       <r>    7.8964    1.0000 </r>
       <r>    8.0889    1.0000 </r>
       <r>    8.1016    1.0000 </r>
       <r>    8.2248    1.0000 </r>
       <r>    8.2801    1.0000 </r>
       <r>    8.2901    1.0000 </r>
       <r>    8.3133    1.0000 </r>
       <r>    8.3601    1.0000 </r>
       <r>    8.3606    1.0000 </r>
       <r>    8.4841    1.0000 </r>
       <r>    8.4951    1.0000 </r>
       <r>    8.5187    1.0000 </r>
       <r>    8.5798    1.0000 </r>
       <r>    8.6135    1.0000 </r>
       <r>    8.6499    1.0000 </r>
       <r>    8.6515    1.0003 </r>
       <r>    8.6568    0.9605 </r>
       <r>    8.6654    0.9462 </r>
       <r>    8.7780    0.2201 </r>
       <r>    8.7865    0.0000 </r>
       <r>    8.9252    0.0000 </r>
       <r>    8.9262    0.0000 </r>
       <r>    9.0259    0.0000 </r>
       <r>    9.0293    0.0000 </r>
       <r>    9.0373    0.0000 </r>
       <r>    9.0521    0.0000 </r>
       <r>    9.0940    0.0000 </r>
       <r>    9.1429    0.0000 </r>
       <r>    9.1441    0.0000 </r>
       <r>    9.1456    0.0000 </r>
       <r>    9.2353    0.0000 </r>
       <r>    9.2529    0.0000 </r>
       <r>    9.4761    0.0000 </r>
       <r>    9.5285    0.0000 </r>
       <r>    9.6544    0.0000 </r>
       <r>    9.6702    0.0000 </r>
       <r>    9.8973    0.0000 </r>
       <r>    9.8976    0.0000 </r>
       <r>   10.1665    0.0000 </r>
       <r>   10.1870    0.0000 </r>
       <r>   10.2041    0.0000 </r>
       <r>   10.2312    0.0000 </r>
       <r>   10.2713    0.0000 </r>
       <r>   10.2845    0.0000 </r>
       <r>   10.3166    0.0000 </r>
       <r>   10.4110    0.0000 </r>
       <r>   10.4564    0.0000 </r>
       <r>   10.4736    0.0000 </r>
      </set>
     </set>
    </set>
   </array>
  </eigenvalues>
  <separator name="orbital magnetization" >
   <v name="MAGDIPOLOUT">      0.00000000      0.00000000      0.00000000</v>
  </separator>
  <dos>
   <i name="efermi">      8.73092886 </i>
   <total>
    <array>
     <dimension dim="1">gridpoints</dimension>
     <dimension dim="2">spin</dimension>
     <field>energy</field>
     <field>total</field>
     <field>integrated</field>
     <set>
      <set comment="spin 1">
       <r>    -0.5494     0.0000     0.0000 </r>
       <r>    -0.5003     0.0000     0.0000 </r>
       <r>    -0.4513     0.0000     0.0000 </r>
       <r>    -0.4022     0.0000     0.0000 </r>
       <r>    -0.3531     0.0000     0.0000 </r>
       <r>    -0.3041     0.0000     0.0000 </r>
       <r>    -0.2550     0.0000     0.0000 </r>
       <r>    -0.2059     0.0000     0.0000 </r>
       <r>    -0.1569     0.0000     0.0000 </r>
       <r>    -0.1078     0.0000     0.0000 </r>
       <r>    -0.0588     0.0000     0.0000 </r>
       <r>    -0.0097     0.0000     0.0000 </r>
       <r>     0.0394     0.0000     0.0000 </r>
       <r>     0.0884     0.0000     0.0000 </r>
       <r>     0.1375     0.0000     0.0000 </r>
       <r>     0.1866     0.0000     0.0000 </r>
       <r>     0.2356     0.0000     0.0000 </r>
       <r>     0.2847     0.0000     0.0000 </r>
       <r>     0.3338     0.0000     0.0000 </r>
       <r>     0.3828     0.0000     0.0000 </r>
       <r>     0.4319     0.0000     0.0000 </r>
       <r>     0.4809     0.0778     0.0008 </r>
       <r>     0.5300     0.5140     0.0140 </r>
       <r>     0.5791     0.7322     0.0462 </r>
       <r>     0.6281     0.8749     0.0848 </r>
       <r>     0.6772     1.1838     0.1339 </r>
       <r>     0.7263     1.5107     0.2007 </r>
       <r>     0.7753     1.3865     0.2706 </r>
       <r>     0.8244     1.4149     0.3393 </r>
       <r>     0.8734     1.4455     0.4095 </r>
       <r>     0.9225     1.4706     0.4811 </r>
       <r>     0.9716     1.4605     0.5527 </r>
       <r>     1.0206     1.4934     0.6252 </r>
       <r>     1.0697     1.5316     0.6994 </r>
       <r>     1.1188     1.5606     0.7753 </r>
       <r>     1.1678     1.6029     0.8528 </r>
       <r>     1.2169     1.8165     0.9346 </r>
       <r>     1.2660     2.1593     1.0341 </r>
       <r>     1.3150     2.2364     1.1405 </r>
       <r>     1.3641     2.5313     1.2568 </r>
       <r>     1.4131     2.9252     1.3904 </r>
       <r>     1.4622     2.9323     1.5366 </r>
       <r>     1.5113     2.9562     1.6801 </r>
       <r>     1.5603     2.9364     1.8251 </r>
       <r>     1.6094     2.7867     1.9668 </r>
       <r>     1.6585     2.7746     2.1018 </r>
       <r>     1.7075     2.6432     2.2347 </r>
       <r>     1.7566     2.5865     2.3622 </r>
       <r>     1.8057     2.8510     2.4957 </r>
       <r>     1.8547     3.2635     2.6448 </r>
       <r>     1.9038     3.9572     2.8206 </r>
       <r>     1.9528     5.2244     3.0390 </r>
       <r>     2.0019     5.9537     3.3290 </r>
       <r>     2.0510     5.9075     3.6238 </r>
       <r>     2.1000     4.8692     3.9017 </r>
       <r>     2.1491     4.4144     4.1109 </r>
       <r>     2.1982     5.8222     4.3572 </r>
       <r>     2.2472     6.3324     4.6792 </r>
       <r>     2.2963     6.7478     5.0220 </r>
       <r>     2.3453     8.0748     5.3701 </r>
       <r>     2.3944    11.2546     5.8461 </r>
       <r>     2.4435    11.2671     6.4112 </r>
       <r>     2.4925    12.4730     6.9821 </r>
       <r>     2.5416    12.3001     7.6277 </r>
       <r>     2.5907    12.0308     8.2305 </r>
       <r>     2.6397    17.7681     8.9514 </r>
       <r>     2.6888    20.3187     9.9127 </r>
       <r>     2.7379    18.2077    10.8890 </r>
       <r>     2.7869    18.2511    11.7862 </r>
       <r>     2.8360    20.2964    12.6907 </r>
       <r>     2.8850    30.9214    14.0402 </r>
       <r>     2.9341    28.1584    15.5108 </r>
       <r>     2.9832    33.3676    16.9348 </r>
       <r>     3.0322    43.9569    18.7628 </r>
       <r>     3.0813    33.0828    20.6068 </r>
       <r>     3.1304    35.2939    22.1082 </r>
       <r>     3.1794    43.1266    24.1487 </r>
       <r>     3.2285    40.4856    26.2518 </r>
       <r>     3.2776    43.7633    28.3572 </r>
       <r>     3.3266    51.3682    30.7219 </r>
       <r>     3.3757    51.9071    33.1849 </r>
       <r>     3.4247    56.3145    35.8054 </r>
       <r>     3.4738    55.0631    38.6163 </r>
       <r>     3.5229    56.5039    41.3184 </r>
       <r>     3.5719    65.6293    44.1323 </r>
       <r>     3.6210    57.9557    47.1006 </r>
       <r>     3.6701    56.2890    49.6275 </r>
       <r>     3.7191    48.0053    52.2469 </r>
       <r>     3.7682    45.1258    54.5097 </r>
       <r>     3.8173    52.7619    56.7643 </r>
       <r>     3.8663    47.2131    59.1685 </r>
       <r>     3.9154    46.6207    61.5008 </r>
       <r>     3.9644    44.8358    63.6213 </r>
       <r>     4.0135    44.2711    65.8410 </r>
       <r>     4.0626    41.0502    67.9759 </r>
       <r>     4.1116    39.1337    69.9451 </r>
       <r>     4.1607    38.4944    71.8364 </r>
       <r>     4.2098    35.4176    73.6424 </r>
       <r>     4.2588    37.4032    75.4796 </r>
       <r>     4.3079    34.5646    77.1828 </r>
       <r>     4.3569    32.4890    78.8393 </r>
       <r>     4.4060    32.1051    80.4128 </r>
       <r>     4.4551    33.1185    82.0443 </r>
       <r>     4.5041    32.0104    83.6445 </r>
       <r>     4.5532    34.3719    85.3020 </r>
       <r>     4.6023    34.8256    87.0186 </r>
       <r>     4.6513    38.7122    88.8169 </r>
       <r>     4.7004    37.0853    90.7018 </r>
       <r>     4.7495    37.9091    92.5721 </r>
       <r>     4.7985    34.1154    94.2896 </r>
       <r>     4.8476    37.3950    96.0120 </r>
       <r>     4.8966    37.0035    97.8852 </r>
       <r>     4.9457    43.6619    99.8406 </r>
       <r>     4.9948    42.1695   101.9572 </r>
       <r>     5.0438    36.5461   103.9006 </r>
       <r>     5.0929    35.1894   105.7494 </r>
       <r>     5.1420    31.8539   107.4347 </r>
       <r>     5.1910    32.5770   109.1139 </r>
       <r>     5.2401    35.1936   110.8640 </r>
       <r>     5.2892    29.6902   112.2154 </r>
       <r>     5.3382    39.3468   114.0205 </r>
       <r>     5.3873    35.0127   115.9962 </r>
       <r>     5.4363    35.1999   117.7336 </r>
       <r>     5.4854    38.0967   119.5086 </r>
       <r>     5.5345    39.6165   121.4909 </r>
       <r>     5.5835    41.4905   123.4638 </r>
       <r>     5.6326    40.4019   125.4527 </r>
       <r>     5.6817    41.0278   127.2999 </r>
       <r>     5.7307    40.4159   129.2545 </r>
       <r>     5.7798    40.1377   131.1870 </r>
       <r>     5.8288    43.3599   133.2943 </r>
       <r>     5.8779    40.8917   135.3701 </r>
       <r>     5.9270    42.1400   137.3514 </r>
       <r>     5.9760    43.0096   139.3681 </r>
       <r>     6.0251    44.5732   141.5852 </r>
       <r>     6.0742    49.1272   143.8655 </r>
       <r>     6.1232    52.1526   146.3833 </r>
       <r>     6.1723    55.1383   149.0276 </r>
       <r>     6.2214    55.3978   151.7438 </r>
       <r>     6.2704    54.5287   154.4542 </r>
       <r>     6.3195    54.0098   157.0810 </r>
       <r>     6.3685    63.3809   160.0017 </r>
       <r>     6.4176    67.8941   163.2447 </r>
       <r>     6.4667    75.1488   166.7531 </r>
       <r>     6.5157    75.2868   170.4613 </r>
       <r>     6.5648    69.5643   173.9448 </r>
       <r>     6.6139    63.5769   177.2361 </r>
       <r>     6.6629    53.1192   180.1458 </r>
       <r>     6.7120    40.5351   182.4899 </r>
       <r>     6.7611    45.8189   184.5939 </r>
       <r>     6.8101    44.6982   186.7129 </r>
       <r>     6.8592    35.1114   188.6328 </r>
       <r>     6.9082    36.4090   190.3699 </r>
       <r>     6.9573    39.2856   192.2559 </r>
       <r>     7.0064    41.0980   194.2586 </r>
       <r>     7.0554    39.3125   196.2334 </r>
       <r>     7.1045    39.0709   198.1787 </r>
       <r>     7.1536    38.3401   200.1041 </r>
       <r>     7.2026    35.9071   201.8915 </r>
       <r>     7.2517    36.6204   203.6753 </r>
       <r>     7.3008    35.4715   205.4721 </r>
       <r>     7.3498    35.0109   207.2052 </r>
       <r>     7.3989    33.0880   208.8979 </r>
       <r>     7.4479    31.7923   210.4696 </r>
       <r>     7.4970    32.2774   212.0177 </r>
       <r>     7.5461    34.3117   213.6724 </r>
       <r>     7.5951    33.4930   215.3603 </r>
       <r>     7.6442    33.5247   217.0588 </r>
       <r>     7.6933    39.5966   218.8218 </r>
       <r>     7.7423    39.4494   220.7848 </r>
       <r>     7.7914    39.8326   222.7263 </r>
       <r>     7.8404    44.2699   224.7417 </r>
       <r>     7.8895    44.4553   226.8826 </r>
       <r>     7.9386    40.6726   228.9696 </r>
       <r>     7.9876    40.0342   230.9423 </r>
       <r>     8.0367    40.9112   232.9598 </r>
       <r>     8.0858    43.2217   234.9990 </r>
       <r>     8.1348    33.2225   236.8168 </r>
       <r>     8.1839    41.2090   238.7615 </r>
       <r>     8.2330    42.8924   240.8283 </r>
       <r>     8.2820    39.5935   242.8292 </r>
       <r>     8.3311    40.0843   244.7697 </r>
       <r>     8.3801    39.1621   246.7952 </r>
       <r>     8.4292    35.3895   248.6326 </r>
       <r>     8.4783    36.1675   250.3400 </r>
       <r>     8.5273    38.0680   252.2102 </r>
       <r>     8.5764    41.3240   254.1008 </r>
       <r>     8.6255    40.3339   256.0413 </r>
       <r>     8.6745    36.7879   257.9687 </r>
       <r>     8.7236    35.0276   259.7459 </r>
       <r>     8.7727    32.8588   261.3689 </r>
       <r>     8.8217    30.4243   262.9427 </r>
       <r>     8.8708    30.3428   264.4270 </r>
       <r>     8.9198    32.7047   265.9528 </r>
       <r>     8.9689    32.5877   267.5669 </r>
       <r>     9.0180    43.2987   269.2183 </r>
       <r>     9.0670    31.6021   270.7867 </r>
       <r>     9.1161    31.1155   272.3156 </r>
       <r>     9.1652    29.1203   273.7327 </r>
       <r>     9.2142    31.5585   275.2228 </r>
       <r>     9.2633    31.9979   276.8262 </r>
       <r>     9.3123    32.4124   278.4381 </r>
       <r>     9.3614    33.4813   280.0631 </r>
       <r>     9.4105    34.1073   281.7501 </r>
       <r>     9.4595    31.9427   283.3887 </r>
       <r>     9.5086    33.4616   285.0049 </r>
       <r>     9.5577    31.9683   286.5884 </r>
       <r>     9.6067    31.2878   288.1210 </r>
       <r>     9.6558    33.7574   289.6920 </r>
       <r>     9.7049    35.9747   291.4891 </r>
       <r>     9.7539    37.4668   293.2762 </r>
       <r>     9.8030    35.8041   295.0716 </r>
       <r>     9.8520    38.3051   296.8477 </r>
       <r>     9.9011    41.4312   298.8669 </r>
       <r>     9.9502    39.1899   300.8468 </r>
       <r>     9.9992    43.1324   302.8494 </r>
       <r>    10.0483    45.8634   305.0686 </r>
       <r>    10.0974    47.8833   307.3591 </r>
       <r>    10.1464    46.9416   309.6559 </r>
       <r>    10.1955    43.3082   311.9022 </r>
       <r>    10.2446    35.9000   313.8563 </r>
       <r>    10.2936    27.1042   315.3934 </r>
       <r>    10.3427    21.9509   316.5898 </r>
       <r>    10.3917    13.1056   317.4627 </r>
       <r>    10.4408     7.7780   317.9613 </r>
       <r>    10.4899     5.0495   318.2637 </r>
       <r>    10.5389     8.3028   318.4810 </r>
       <r>    10.5880     2.8134   318.6473 </r>
       <r>    10.6371     2.1137   318.7670 </r>
       <r>    10.6861     1.7983   318.8624 </r>
       <r>    10.7352     1.3296   318.9410 </r>
       <r>    10.7843     1.1975   319.0029 </r>
       <r>    10.8333     1.0671   319.0585 </r>
       <r>    10.8824     0.9710   319.1083 </r>
       <r>    10.9314     0.9011   319.1542 </r>
       <r>    10.9805     0.8422   319.1969 </r>
       <r>    11.0296     0.7948   319.2370 </r>
       <r>    11.0786     0.7637   319.2752 </r>
       <r>    11.1277     0.7385   319.3120 </r>
       <r>    11.1768     0.7165   319.3477 </r>
       <r>    11.2258     0.6943   319.3823 </r>
       <r>    11.2749     0.6718   319.4159 </r>
       <r>    11.3239     0.6488   319.4483 </r>
       <r>    11.3730     0.6253   319.4795 </r>
       <r>    11.4221     0.6016   319.5096 </r>
       <r>    11.4711     0.5774   319.5385 </r>
       <r>    11.5202     0.5537   319.5663 </r>
       <r>    11.5693     0.5309   319.5929 </r>
       <r>    11.6183     0.5091   319.6184 </r>
       <r>    11.6674     0.4881   319.6428 </r>
       <r>    11.7165     0.4680   319.6663 </r>
       <r>    11.7655     0.4488   319.6888 </r>
       <r>    11.8146     0.4303   319.7104 </r>
       <r>    11.8636     0.4127   319.7310 </r>
       <r>    11.9127     0.3962   319.7509 </r>
       <r>    11.9618     0.3814   319.7699 </r>
       <r>    12.0108     0.3669   319.7883 </r>
       <r>    12.0599     0.3526   319.8059 </r>
       <r>    12.1090     0.3412   319.8229 </r>
       <r>    12.1580     0.3516   319.8399 </r>
       <r>    12.2071     0.3708   319.8576 </r>
       <r>    12.2562     0.3688   319.8759 </r>
       <r>    12.3052     0.4118   319.8985 </r>
       <r>    12.3543     0.3103   319.9161 </r>
       <r>    12.4033     0.2741   319.9303 </r>
       <r>    12.4524     0.2481   319.9431 </r>
       <r>    12.5015     0.2255   319.9547 </r>
       <r>    12.5505     0.1921   319.9650 </r>
       <r>    12.5996     0.1566   319.9736 </r>
       <r>    12.6487     0.1235   319.9804 </r>
       <r>    12.6977     0.0952   319.9858 </r>
       <r>    12.7468     0.0743   319.9899 </r>
       <r>    12.7958     0.0569   319.9931 </r>
       <r>    12.8449     0.0415   319.9955 </r>
       <r>    12.8940     0.0298   319.9973 </r>
       <r>    12.9430     0.0201   319.9985 </r>
       <r>    12.9921     0.0124   319.9993 </r>
       <r>    13.0412     0.0065   319.9997 </r>
       <r>    13.0902     0.0025   319.9999 </r>
       <r>    13.1393     0.0004   320.0000 </r>
       <r>    13.1884     0.0000   320.0000 </r>
       <r>    13.2374     0.0000   320.0000 </r>
       <r>    13.2865     0.0000   320.0000 </r>
       <r>    13.3355     0.0000   320.0000 </r>
       <r>    13.3846     0.0000   320.0000 </r>
       <r>    13.4337     0.0000   320.0000 </r>
       <r>    13.4827     0.0000   320.0000 </r>
       <r>    13.5318     0.0000   320.0000 </r>
       <r>    13.5809     0.0000   320.0000 </r>
       <r>    13.6299     0.0000   320.0000 </r>
       <r>    13.6790     0.0000   320.0000 </r>
       <r>    13.7281     0.0000   320.0000 </r>
       <r>    13.7771     0.0000   320.0000 </r>
       <r>    13.8262     0.0000   320.0000 </r>
       <r>    13.8752     0.0000   320.0000 </r>
       <r>    13.9243     0.0000   320.0000 </r>
       <r>    13.9734     0.0000   320.0000 </r>
       <r>    14.0224     0.0000   320.0000 </r>
       <r>    14.0715     0.0000   320.0000 </r>
       <r>    14.1206     0.0000   320.0000 </r>
       <r>    14.1696     0.0000   320.0000 </r>
      </set>
     </set>
    </array>
   </total>
  </dos>
 </calculation>
 <structure name="finalpos" >
  <crystal>
   <varray name="basis" >
    <v>      -3.82000443       3.82000443      -3.82026761 </v>
    <v>       3.82000443      -3.82000443      -3.82026761 </v>
    <v>      -7.64236002      -7.64236002       0.00000000 </v>
   </varray>
   <i name="volume">    446.11326524 </i>
   <varray name="rec_basis" >
    <v>      -0.06544495       0.06544495      -0.13088088 </v>
    <v>       0.06544495      -0.06544495      -0.13088088 </v>
    <v>      -0.06542482      -0.06542482       0.00000000 </v>
   </varray>
  </crystal>
  <varray name="positions" >
   <v>       0.25060498       0.74939502       0.75000000 </v>
   <v>       0.74939502       0.25060498       0.75000000 </v>
   <v>       0.00000000       0.00000000       0.49998945 </v>
   <v>       0.00000000       0.00000000       0.00001055 </v>
   <v>       0.50000000       0.50000000       0.49995665 </v>
   <v>       0.25068604       0.74931396       0.25000000 </v>
   <v>       0.74931396       0.25068604       0.25000000 </v>
   <v>       0.50000000       0.50000000       0.00004335 </v>
   <v>       0.12644653       0.37530318       0.62441086 </v>
   <v>       0.62469682       0.87355347       0.62441086 </v>
   <v>       0.37655396       0.12534951       0.37440728 </v>
   <v>       0.12534951       0.37655396       0.12559272 </v>
   <v>       0.62344604       0.87465049       0.12559272 </v>
   <v>       0.37530318       0.12644653       0.87558914 </v>
   <v>       0.87465049       0.62344604       0.37440728 </v>
   <v>       0.87355347       0.62469682       0.87558914 </v>
   <v>       0.87355347       0.62469682       0.62441086 </v>
   <v>       0.37530318       0.12644653       0.62441086 </v>
   <v>       0.12534951       0.37655396       0.37440728 </v>
   <v>       0.87465049       0.62344604       0.12559272 </v>
   <v>       0.37655396       0.12534951       0.12559272 </v>
   <v>       0.12644653       0.37530318       0.87558914 </v>
   <v>       0.62344604       0.87465049       0.37440728 </v>
   <v>       0.62469682       0.87355347       0.87558914 </v>
   <v>       0.25084630       0.74915370       0.49914534 </v>
   <v>       0.74915370       0.25084630       0.49914534 </v>
   <v>       0.50000000       0.50000000       0.25000000 </v>
   <v>       0.25084630       0.74915370       0.00085466 </v>
   <v>       0.74915370       0.25084630       0.00085466 </v>
   <v>       0.50000000       0.50000000       0.75000000 </v>
   <v>       0.00000000       0.00000000       0.25000000 </v>
   <v>       0.00000000       0.00000000       0.75000000 </v>
  </varray>
 </structure>
</modeling>
