 256 256   0   0
  0.1418917E+02  0.1588033E-08  0.1692661E-08  0.1693229E-08  0.5000000E-15
  1.000000000000000E-004
  CAR 
 Ir_Ru                                   
     14.25780072     -1.29143760  301      9.45689758      1.00000000
     -1.291  0.0000E+00  0.0000E+00
     -1.240  0.0000E+00  0.0000E+00
     -1.188  0.0000E+00  0.0000E+00
     -1.136 -0.2714E-30 -0.1407E-31
     -1.084 -0.1234E-26 -0.6396E-28
     -1.032 -0.3264E-23 -0.1693E-24
     -0.980 -0.5022E-20 -0.2605E-21
     -0.929 -0.4488E-17 -0.2329E-18
     -0.877 -0.2269E-14 -0.1178E-15
     -0.825 -0.6762E-12 -0.3517E-13
     -0.773 -0.1168E-09 -0.6088E-11
     -0.721 -0.1162E-07 -0.6083E-09
     -0.669 -0.6632E-06 -0.3498E-07
     -0.618 -0.2160E-04 -0.1154E-05
     -0.566 -0.3983E-03 -0.2180E-04
     -0.514 -0.4121E-02 -0.2354E-03
     -0.462 -0.2367E-01 -0.1462E-02
     -0.410 -0.7399E-01 -0.5297E-02
     -0.358 -0.1029E+00 -0.1063E-01
     -0.307  0.1907E+00 -0.7458E-03
     -0.255  0.1588E+01  0.8158E-01
     -0.203  0.4330E+01  0.3060E+00
     -0.151  0.6333E+01  0.6343E+00
     -0.099  0.6425E+01  0.9673E+00
     -0.047  0.6923E+01  0.1326E+01
      0.004  0.8792E+01  0.1782E+01
      0.056  0.1110E+02  0.2357E+01
      0.108  0.1354E+02  0.3059E+01
      0.160  0.1438E+02  0.3804E+01
      0.212  0.1181E+02  0.4416E+01
      0.263  0.1002E+02  0.4936E+01
      0.315  0.1401E+02  0.5662E+01
      0.367  0.2015E+02  0.6706E+01
      0.419  0.2249E+02  0.7872E+01
      0.471  0.2267E+02  0.9047E+01
      0.523  0.2348E+02  0.1026E+02
      0.574  0.2260E+02  0.1144E+02
      0.626  0.2046E+02  0.1250E+02
      0.678  0.2092E+02  0.1358E+02
      0.730  0.2054E+02  0.1465E+02
      0.782  0.1497E+02  0.1542E+02
      0.834  0.9084E+01  0.1589E+02
      0.885  0.7977E+01  0.1631E+02
      0.937  0.1146E+02  0.1690E+02
      0.989  0.1851E+02  0.1786E+02
      1.041  0.2745E+02  0.1928E+02
      1.093  0.3320E+02  0.2100E+02
      1.145  0.3316E+02  0.2272E+02
      1.196  0.2909E+02  0.2423E+02
      1.248  0.2314E+02  0.2543E+02
      1.300  0.1953E+02  0.2644E+02
      1.352  0.2140E+02  0.2755E+02
      1.404  0.2684E+02  0.2894E+02
      1.456  0.3026E+02  0.3051E+02
      1.507  0.2988E+02  0.3206E+02
      1.559  0.2933E+02  0.3358E+02
      1.611  0.3039E+02  0.3515E+02
      1.663  0.3114E+02  0.3677E+02
      1.715  0.3190E+02  0.3842E+02
      1.767  0.3476E+02  0.4022E+02
      1.818  0.3882E+02  0.4223E+02
      1.870  0.4493E+02  0.4456E+02
      1.922  0.5398E+02  0.4736E+02
      1.974  0.5927E+02  0.5043E+02
      2.026  0.5529E+02  0.5330E+02
      2.078  0.5048E+02  0.5591E+02
      2.129  0.6003E+02  0.5903E+02
      2.181  0.8475E+02  0.6342E+02
      2.233  0.1075E+03  0.6899E+02
      2.285  0.1191E+03  0.7516E+02
      2.337  0.1253E+03  0.8166E+02
      2.389  0.1310E+03  0.8845E+02
      2.440  0.1370E+03  0.9555E+02
      2.492  0.1461E+03  0.1031E+03
      2.544  0.1625E+03  0.1115E+03
      2.596  0.1813E+03  0.1209E+03
      2.648  0.1939E+03  0.1310E+03
      2.700  0.2053E+03  0.1416E+03
      2.751  0.2222E+03  0.1531E+03
      2.803  0.2309E+03  0.1651E+03
      2.855  0.2252E+03  0.1768E+03
      2.907  0.2265E+03  0.1885E+03
      2.959  0.2433E+03  0.2011E+03
      3.011  0.2572E+03  0.2145E+03
      3.062  0.2601E+03  0.2280E+03
      3.114  0.2605E+03  0.2415E+03
      3.166  0.2636E+03  0.2551E+03
      3.218  0.2719E+03  0.2692E+03
      3.270  0.2865E+03  0.2841E+03
      3.322  0.3057E+03  0.2999E+03
      3.373  0.3234E+03  0.3167E+03
      3.425  0.3310E+03  0.3338E+03
      3.477  0.3287E+03  0.3509E+03
      3.529  0.3223E+03  0.3676E+03
      3.581  0.3185E+03  0.3841E+03
      3.632  0.3170E+03  0.4005E+03
      3.684  0.3119E+03  0.4167E+03
      3.736  0.3057E+03  0.4325E+03
      3.788  0.3015E+03  0.4481E+03
      3.840  0.2973E+03  0.4635E+03
      3.892  0.2935E+03  0.4788E+03
      3.943  0.2893E+03  0.4937E+03
      3.995  0.2775E+03  0.5081E+03
      4.047  0.2665E+03  0.5219E+03
      4.099  0.2736E+03  0.5361E+03
      4.151  0.2924E+03  0.5513E+03
      4.203  0.3026E+03  0.5670E+03
      4.254  0.3048E+03  0.5828E+03
      4.306  0.3111E+03  0.5989E+03
      4.358  0.3181E+03  0.6154E+03
      4.410  0.3210E+03  0.6320E+03
      4.462  0.3236E+03  0.6488E+03
      4.514  0.3220E+03  0.6655E+03
      4.565  0.3111E+03  0.6816E+03
      4.617  0.2983E+03  0.6971E+03
      4.669  0.2933E+03  0.7123E+03
      4.721  0.2974E+03  0.7277E+03
      4.773  0.3048E+03  0.7435E+03
      4.825  0.3160E+03  0.7599E+03
      4.876  0.3300E+03  0.7770E+03
      4.928  0.3373E+03  0.7944E+03
      4.980  0.3438E+03  0.8123E+03
      5.032  0.3566E+03  0.8307E+03
      5.084  0.3653E+03  0.8497E+03
      5.136  0.3649E+03  0.8686E+03
      5.187  0.3568E+03  0.8871E+03
      5.239  0.3381E+03  0.9046E+03
      5.291  0.3073E+03  0.9205E+03
      5.343  0.2673E+03  0.9344E+03
      5.395  0.2239E+03  0.9460E+03
      5.447  0.1880E+03  0.9557E+03
      5.498  0.1724E+03  0.9647E+03
      5.550  0.1851E+03  0.9743E+03
      5.602  0.2211E+03  0.9857E+03
      5.654  0.2687E+03  0.9997E+03
      5.706  0.3189E+03  0.1016E+04
      5.758  0.3625E+03  0.1035E+04
      5.809  0.3921E+03  0.1055E+04
      5.861  0.4088E+03  0.1076E+04
      5.913  0.4181E+03  0.1098E+04
      5.965  0.4248E+03  0.1120E+04
      6.017  0.4283E+03  0.1142E+04
      6.069  0.4191E+03  0.1164E+04
      6.120  0.3958E+03  0.1185E+04
      6.172  0.3744E+03  0.1204E+04
      6.224  0.3625E+03  0.1223E+04
      6.276  0.3561E+03  0.1241E+04
      6.328  0.3555E+03  0.1260E+04
      6.380  0.3666E+03  0.1279E+04
      6.431  0.3807E+03  0.1298E+04
      6.483  0.3843E+03  0.1318E+04
      6.535  0.3894E+03  0.1339E+04
      6.587  0.4065E+03  0.1360E+04
      6.639  0.4222E+03  0.1381E+04
      6.691  0.4280E+03  0.1404E+04
      6.742  0.4263E+03  0.1426E+04
      6.794  0.4161E+03  0.1447E+04
      6.846  0.3961E+03  0.1468E+04
      6.898  0.3760E+03  0.1487E+04
      6.950  0.3671E+03  0.1506E+04
      7.001  0.3640E+03  0.1525E+04
      7.053  0.3660E+03  0.1544E+04
      7.105  0.3862E+03  0.1564E+04
      7.157  0.4117E+03  0.1586E+04
      7.209  0.4218E+03  0.1607E+04
      7.261  0.4227E+03  0.1629E+04
      7.312  0.4163E+03  0.1651E+04
      7.364  0.3936E+03  0.1671E+04
      7.416  0.3637E+03  0.1690E+04
      7.468  0.3427E+03  0.1708E+04
      7.520  0.3335E+03  0.1725E+04
      7.572  0.3299E+03  0.1742E+04
      7.623  0.3202E+03  0.1759E+04
      7.675  0.2998E+03  0.1774E+04
      7.727  0.2801E+03  0.1789E+04
      7.779  0.2699E+03  0.1803E+04
      7.831  0.2646E+03  0.1817E+04
      7.883  0.2590E+03  0.1830E+04
      7.934  0.2501E+03  0.1843E+04
      7.986  0.2432E+03  0.1856E+04
      8.038  0.2432E+03  0.1868E+04
      8.090  0.2407E+03  0.1881E+04
      8.142  0.2327E+03  0.1893E+04
      8.194  0.2287E+03  0.1905E+04
      8.245  0.2322E+03  0.1917E+04
      8.297  0.2371E+03  0.1929E+04
      8.349  0.2391E+03  0.1941E+04
      8.401  0.2379E+03  0.1954E+04
      8.453  0.2310E+03  0.1966E+04
      8.505  0.2204E+03  0.1977E+04
      8.556  0.2130E+03  0.1988E+04
      8.608  0.2083E+03  0.1999E+04
      8.660  0.2015E+03  0.2009E+04
      8.712  0.1933E+03  0.2019E+04
      8.764  0.1848E+03  0.2029E+04
      8.816  0.1795E+03  0.2038E+04
      8.867  0.1848E+03  0.2048E+04
      8.919  0.2067E+03  0.2059E+04
      8.971  0.2319E+03  0.2071E+04
      9.023  0.2378E+03  0.2083E+04
      9.075  0.2269E+03  0.2095E+04
      9.127  0.2108E+03  0.2106E+04
      9.178  0.1913E+03  0.2116E+04
      9.230  0.1786E+03  0.2125E+04
      9.282  0.1909E+03  0.2135E+04
      9.334  0.2218E+03  0.2146E+04
      9.386  0.2416E+03  0.2159E+04
      9.438  0.2431E+03  0.2171E+04
      9.489  0.2443E+03  0.2184E+04
      9.541  0.2452E+03  0.2197E+04
      9.593  0.2443E+03  0.2209E+04
      9.645  0.2651E+03  0.2223E+04
      9.697  0.3082E+03  0.2239E+04
      9.749  0.3345E+03  0.2256E+04
      9.800  0.3295E+03  0.2273E+04
      9.852  0.3180E+03  0.2290E+04
      9.904  0.3149E+03  0.2306E+04
      9.956  0.3190E+03  0.2323E+04
     10.008  0.3360E+03  0.2340E+04
     10.060  0.3704E+03  0.2359E+04
     10.111  0.4064E+03  0.2380E+04
     10.163  0.4259E+03  0.2403E+04
     10.215  0.4338E+03  0.2425E+04
     10.267  0.4447E+03  0.2448E+04
     10.319  0.4619E+03  0.2472E+04
     10.370  0.4807E+03  0.2497E+04
     10.422  0.4932E+03  0.2523E+04
     10.474  0.4908E+03  0.2548E+04
     10.526  0.4615E+03  0.2572E+04
     10.578  0.4067E+03  0.2593E+04
     10.630  0.3419E+03  0.2611E+04
     10.681  0.2658E+03  0.2624E+04
     10.733  0.1697E+03  0.2633E+04
     10.785  0.7382E+02  0.2637E+04
     10.837  0.1320E+02  0.2638E+04
     10.889 -0.5105E+01  0.2637E+04
     10.941 -0.3806E+01  0.2637E+04
     10.992 -0.1043E+01  0.2637E+04
     11.044 -0.1612E+00  0.2637E+04
     11.096 -0.1605E-01  0.2637E+04
     11.148 -0.1098E-02  0.2637E+04
     11.200 -0.5105E-04  0.2637E+04
     11.252 -0.1526E-05  0.2637E+04
     11.303 -0.2787E-07  0.2637E+04
     11.355 -0.3018E-09  0.2637E+04
     11.407 -0.2039E-11  0.2637E+04
     11.459 -0.2896E-10  0.2637E+04
     11.511 -0.3807E-08  0.2637E+04
     11.563 -0.2889E-06  0.2637E+04
     11.614 -0.1259E-04  0.2637E+04
     11.666 -0.3113E-03  0.2637E+04
     11.718 -0.4284E-02  0.2637E+04
     11.770 -0.3124E-01  0.2637E+04
     11.822 -0.1036E+00  0.2637E+04
     11.874 -0.2552E-01  0.2637E+04
     11.925  0.7729E+00  0.2637E+04
     11.977  0.2113E+01  0.2637E+04
     12.029  0.2478E+01  0.2637E+04
     12.081  0.1663E+01  0.2638E+04
     12.133  0.9630E+00  0.2638E+04
     12.185  0.5357E+00  0.2638E+04
     12.236  0.4108E+00  0.2638E+04
     12.288  0.1154E+01  0.2638E+04
     12.340  0.2649E+01  0.2638E+04
     12.392  0.3862E+01  0.2638E+04
     12.444  0.3590E+01  0.2638E+04
     12.496  0.2194E+01  0.2638E+04
     12.547  0.1606E+01  0.2638E+04
     12.599  0.2349E+01  0.2639E+04
     12.651  0.3195E+01  0.2639E+04
     12.703  0.3750E+01  0.2639E+04
     12.755  0.3723E+01  0.2639E+04
     12.807  0.3045E+01  0.2639E+04
     12.858  0.2655E+01  0.2639E+04
     12.910  0.2423E+01  0.2640E+04
     12.962  0.1718E+01  0.2640E+04
     13.014  0.1112E+01  0.2640E+04
     13.066  0.8896E+00  0.2640E+04
     13.118  0.7429E+00  0.2640E+04
     13.169  0.9067E+00  0.2640E+04
     13.221  0.1272E+01  0.2640E+04
     13.273  0.1239E+01  0.2640E+04
     13.325  0.6960E+00  0.2640E+04
     13.377  0.1409E+00  0.2640E+04
     13.429 -0.5063E-01  0.2640E+04
     13.480 -0.3334E-01  0.2640E+04
     13.532 -0.7106E-02  0.2640E+04
     13.584 -0.7433E-03  0.2640E+04
     13.636 -0.4174E-04  0.2640E+04
     13.688 -0.1303E-05  0.2640E+04
     13.739 -0.2303E-07  0.2640E+04
     13.791 -0.2325E-09  0.2640E+04
     13.843 -0.1349E-11  0.2640E+04
     13.895 -0.4760E-14  0.2640E+04
     13.947  0.0000E+00  0.2640E+04
     13.999  0.0000E+00  0.2640E+04
     14.050  0.0000E+00  0.2640E+04
     14.102  0.0000E+00  0.2640E+04
     14.154  0.0000E+00  0.2640E+04
     14.206  0.0000E+00  0.2640E+04
     14.258  0.0000E+00  0.2640E+04
