  20  20   0   0
  0.1382907E+02  0.4667463E-09  0.5389364E-09  0.1174026E-08  0.5000000E-15
  1.000000000000000E-004
  CAR 
 Ir_Ru                                   
     11.61355739     -0.13709606  301      8.62231570      1.00000000
     -0.137  0.0000E+00  0.0000E+00
     -0.098  0.0000E+00  0.0000E+00
     -0.059  0.0000E+00  0.0000E+00
     -0.020  0.0000E+00  0.0000E+00
      0.020  0.0000E+00  0.0000E+00
      0.059 -0.1927E-28 -0.7547E-30
      0.098 -0.8540E-26 -0.3353E-27
      0.137 -0.2782E-23 -0.1093E-24
      0.176 -0.6645E-21 -0.2614E-22
      0.215 -0.1164E-18 -0.4585E-20
      0.255 -0.1494E-16 -0.5896E-18
      0.294 -0.1358E-14 -0.5378E-16
      0.333 -0.9316E-13 -0.3703E-14
      0.372 -0.4657E-11 -0.1861E-12
      0.411 -0.1697E-09 -0.6835E-11
      0.450 -0.4503E-08 -0.1832E-09
      0.490 -0.8676E-07 -0.3582E-08
      0.529 -0.1210E-05 -0.5099E-07
      0.568 -0.1218E-04 -0.5282E-06
      0.607 -0.8814E-04 -0.3980E-05
      0.646 -0.4559E-03 -0.2184E-04
      0.685 -0.1676E-02 -0.8749E-04
      0.725 -0.4319E-02 -0.2566E-03
      0.764 -0.7346E-02 -0.5444E-03
      0.803 -0.5208E-02 -0.7484E-03
      0.842  0.1588E-01 -0.1264E-03
      0.881  0.7869E-01  0.2956E-02
      0.920  0.1989E+00  0.1075E-01
      0.960  0.3529E+00  0.2457E-01
      0.999  0.4745E+00  0.4316E-01
      1.038  0.5112E+00  0.6318E-01
      1.077  0.4818E+00  0.8205E-01
      1.116  0.4750E+00  0.1007E+00
      1.155  0.5794E+00  0.1234E+00
      1.195  0.7799E+00  0.1539E+00
      1.234  0.9370E+00  0.1906E+00
      1.273  0.9378E+00  0.2273E+00
      1.312  0.8363E+00  0.2601E+00
      1.351  0.7803E+00  0.2907E+00
      1.390  0.8391E+00  0.3235E+00
      1.430  0.9607E+00  0.3612E+00
      1.469  0.1077E+01  0.4033E+00
      1.508  0.1151E+01  0.4484E+00
      1.547  0.1138E+01  0.4930E+00
      1.586  0.1053E+01  0.5342E+00
      1.626  0.1026E+01  0.5744E+00
      1.665  0.1154E+01  0.6196E+00
      1.704  0.1376E+01  0.6736E+00
      1.743  0.1577E+01  0.7353E+00
      1.782  0.1685E+01  0.8013E+00
      1.821  0.1656E+01  0.8662E+00
      1.861  0.1501E+01  0.9250E+00
      1.900  0.1337E+01  0.9774E+00
      1.939  0.1311E+01  0.1029E+01
      1.978  0.1458E+01  0.1086E+01
      2.017  0.1652E+01  0.1151E+01
      2.056  0.1714E+01  0.1218E+01
      2.096  0.1660E+01  0.1283E+01
      2.135  0.1707E+01  0.1350E+01
      2.174  0.1969E+01  0.1427E+01
      2.213  0.2288E+01  0.1516E+01
      2.252  0.2431E+01  0.1611E+01
      2.291  0.2360E+01  0.1704E+01
      2.331  0.2299E+01  0.1794E+01
      2.370  0.2559E+01  0.1894E+01
      2.409  0.3209E+01  0.2020E+01
      2.448  0.3954E+01  0.2175E+01
      2.487  0.4453E+01  0.2349E+01
      2.526  0.4699E+01  0.2533E+01
      2.566  0.4988E+01  0.2729E+01
      2.605  0.5638E+01  0.2949E+01
      2.644  0.6852E+01  0.3218E+01
      2.683  0.8596E+01  0.3554E+01
      2.722  0.1051E+02  0.3966E+01
      2.761  0.1222E+02  0.4445E+01
      2.801  0.1379E+02  0.4985E+01
      2.840  0.1564E+02  0.5597E+01
      2.879  0.1789E+02  0.6298E+01
      2.918  0.2009E+02  0.7085E+01
      2.957  0.2165E+02  0.7933E+01
      2.996  0.2246E+02  0.8813E+01
      3.036  0.2294E+02  0.9711E+01
      3.075  0.2364E+02  0.1064E+02
      3.114  0.2481E+02  0.1161E+02
      3.153  0.2633E+02  0.1264E+02
      3.192  0.2790E+02  0.1373E+02
      3.231  0.2923E+02  0.1488E+02
      3.271  0.3027E+02  0.1606E+02
      3.310  0.3124E+02  0.1729E+02
      3.349  0.3244E+02  0.1856E+02
      3.388  0.3397E+02  0.1989E+02
      3.427  0.3590E+02  0.2130E+02
      3.466  0.3806E+02  0.2279E+02
      3.506  0.3970E+02  0.2434E+02
      3.545  0.3977E+02  0.2590E+02
      3.584  0.3808E+02  0.2739E+02
      3.623  0.3563E+02  0.2879E+02
      3.662  0.3357E+02  0.3010E+02
      3.701  0.3231E+02  0.3137E+02
      3.741  0.3191E+02  0.3262E+02
      3.780  0.3213E+02  0.3387E+02
      3.819  0.3226E+02  0.3514E+02
      3.858  0.3170E+02  0.3638E+02
      3.897  0.3062E+02  0.3758E+02
      3.936  0.2947E+02  0.3873E+02
      3.976  0.2838E+02  0.3984E+02
      4.015  0.2727E+02  0.4091E+02
      4.054  0.2623E+02  0.4194E+02
      4.093  0.2541E+02  0.4294E+02
      4.132  0.2470E+02  0.4390E+02
      4.171  0.2382E+02  0.4484E+02
      4.211  0.2294E+02  0.4573E+02
      4.250  0.2232E+02  0.4661E+02
      4.289  0.2184E+02  0.4746E+02
      4.328  0.2127E+02  0.4830E+02
      4.367  0.2071E+02  0.4911E+02
      4.406  0.2036E+02  0.4991E+02
      4.446  0.2023E+02  0.5070E+02
      4.485  0.2038E+02  0.5150E+02
      4.524  0.2103E+02  0.5232E+02
      4.563  0.2212E+02  0.5319E+02
      4.602  0.2326E+02  0.5410E+02
      4.642  0.2412E+02  0.5504E+02
      4.681  0.2460E+02  0.5601E+02
      4.720  0.2462E+02  0.5697E+02
      4.759  0.2413E+02  0.5792E+02
      4.798  0.2346E+02  0.5883E+02
      4.837  0.2316E+02  0.5974E+02
      4.877  0.2335E+02  0.6066E+02
      4.916  0.2368E+02  0.6158E+02
      4.955  0.2382E+02  0.6252E+02
      4.994  0.2362E+02  0.6344E+02
      5.033  0.2330E+02  0.6435E+02
      5.072  0.2332E+02  0.6527E+02
      5.112  0.2352E+02  0.6619E+02
      5.151  0.2320E+02  0.6710E+02
      5.190  0.2228E+02  0.6797E+02
      5.229  0.2157E+02  0.6882E+02
      5.268  0.2163E+02  0.6966E+02
      5.307  0.2206E+02  0.7053E+02
      5.347  0.2226E+02  0.7140E+02
      5.386  0.2226E+02  0.7227E+02
      5.425  0.2255E+02  0.7315E+02
      5.464  0.2325E+02  0.7406E+02
      5.503  0.2396E+02  0.7500E+02
      5.542  0.2441E+02  0.7596E+02
      5.582  0.2480E+02  0.7693E+02
      5.621  0.2540E+02  0.7793E+02
      5.660  0.2604E+02  0.7895E+02
      5.699  0.2632E+02  0.7998E+02
      5.738  0.2604E+02  0.8100E+02
      5.777  0.2542E+02  0.8199E+02
      5.817  0.2490E+02  0.8297E+02
      5.856  0.2488E+02  0.8394E+02
      5.895  0.2562E+02  0.8495E+02
      5.934  0.2704E+02  0.8600E+02
      5.973  0.2863E+02  0.8713E+02
      6.012  0.2980E+02  0.8829E+02
      6.052  0.3042E+02  0.8948E+02
      6.091  0.3090E+02  0.9069E+02
      6.130  0.3173E+02  0.9194E+02
      6.169  0.3299E+02  0.9323E+02
      6.208  0.3436E+02  0.9458E+02
      6.247  0.3555E+02  0.9597E+02
      6.287  0.3658E+02  0.9740E+02
      6.326  0.3762E+02  0.9887E+02
      6.365  0.3872E+02  0.1004E+03
      6.404  0.3973E+02  0.1019E+03
      6.443  0.4050E+02  0.1035E+03
      6.482  0.4092E+02  0.1051E+03
      6.522  0.4078E+02  0.1067E+03
      6.561  0.3985E+02  0.1083E+03
      6.600  0.3818E+02  0.1098E+03
      6.639  0.3601E+02  0.1112E+03
      6.678  0.3352E+02  0.1125E+03
      6.717  0.3106E+02  0.1137E+03
      6.757  0.2911E+02  0.1149E+03
      6.796  0.2789E+02  0.1160E+03
      6.835  0.2698E+02  0.1170E+03
      6.874  0.2592E+02  0.1180E+03
      6.913  0.2493E+02  0.1190E+03
      6.952  0.2456E+02  0.1200E+03
      6.992  0.2471E+02  0.1209E+03
      7.031  0.2482E+02  0.1219E+03
      7.070  0.2458E+02  0.1229E+03
      7.109  0.2399E+02  0.1238E+03
      7.148  0.2324E+02  0.1247E+03
      7.187  0.2279E+02  0.1256E+03
      7.227  0.2280E+02  0.1265E+03
      7.266  0.2285E+02  0.1274E+03
      7.305  0.2255E+02  0.1283E+03
      7.344  0.2213E+02  0.1292E+03
      7.383  0.2194E+02  0.1300E+03
      7.422  0.2177E+02  0.1309E+03
      7.462  0.2131E+02  0.1317E+03
      7.501  0.2079E+02  0.1325E+03
      7.540  0.2070E+02  0.1333E+03
      7.579  0.2113E+02  0.1342E+03
      7.618  0.2185E+02  0.1350E+03
      7.658  0.2275E+02  0.1359E+03
      7.697  0.2383E+02  0.1368E+03
      7.736  0.2484E+02  0.1378E+03
      7.775  0.2537E+02  0.1388E+03
      7.814  0.2536E+02  0.1398E+03
      7.853  0.2517E+02  0.1408E+03
      7.893  0.2511E+02  0.1418E+03
      7.932  0.2520E+02  0.1428E+03
      7.971  0.2548E+02  0.1438E+03
      8.010  0.2593E+02  0.1448E+03
      8.049  0.2623E+02  0.1458E+03
      8.088  0.2616E+02  0.1468E+03
      8.128  0.2595E+02  0.1478E+03
      8.167  0.2588E+02  0.1488E+03
      8.206  0.2573E+02  0.1499E+03
      8.245  0.2520E+02  0.1508E+03
      8.284  0.2456E+02  0.1518E+03
      8.323  0.2431E+02  0.1528E+03
      8.363  0.2452E+02  0.1537E+03
      8.402  0.2477E+02  0.1547E+03
      8.441  0.2477E+02  0.1557E+03
      8.480  0.2454E+02  0.1566E+03
      8.519  0.2420E+02  0.1576E+03
      8.558  0.2387E+02  0.1585E+03
      8.598  0.2358E+02  0.1594E+03
      8.637  0.2305E+02  0.1603E+03
      8.676  0.2200E+02  0.1612E+03
      8.715  0.2069E+02  0.1620E+03
      8.754  0.1969E+02  0.1628E+03
      8.793  0.1934E+02  0.1635E+03
      8.833  0.1959E+02  0.1643E+03
      8.872  0.2024E+02  0.1651E+03
      8.911  0.2097E+02  0.1659E+03
      8.950  0.2134E+02  0.1667E+03
      8.989  0.2110E+02  0.1676E+03
      9.028  0.2045E+02  0.1684E+03
      9.068  0.1980E+02  0.1692E+03
      9.107  0.1944E+02  0.1699E+03
      9.146  0.1954E+02  0.1707E+03
      9.185  0.2007E+02  0.1715E+03
      9.224  0.2077E+02  0.1723E+03
      9.263  0.2122E+02  0.1731E+03
      9.303  0.2116E+02  0.1739E+03
      9.342  0.2065E+02  0.1747E+03
      9.381  0.1998E+02  0.1755E+03
      9.420  0.1960E+02  0.1763E+03
      9.459  0.1987E+02  0.1771E+03
      9.498  0.2069E+02  0.1779E+03
      9.538  0.2151E+02  0.1787E+03
      9.577  0.2189E+02  0.1796E+03
      9.616  0.2194E+02  0.1804E+03
      9.655  0.2219E+02  0.1813E+03
      9.694  0.2294E+02  0.1822E+03
      9.733  0.2394E+02  0.1831E+03
      9.773  0.2471E+02  0.1841E+03
      9.812  0.2514E+02  0.1851E+03
      9.851  0.2559E+02  0.1861E+03
      9.890  0.2644E+02  0.1871E+03
      9.929  0.2771E+02  0.1882E+03
      9.968  0.2918E+02  0.1894E+03
     10.008  0.3078E+02  0.1906E+03
     10.047  0.3229E+02  0.1918E+03
     10.086  0.3313E+02  0.1931E+03
     10.125  0.3289E+02  0.1944E+03
     10.164  0.3155E+02  0.1957E+03
     10.203  0.2898E+02  0.1968E+03
     10.243  0.2501E+02  0.1978E+03
     10.282  0.2008E+02  0.1986E+03
     10.321  0.1502E+02  0.1992E+03
     10.360  0.1038E+02  0.1996E+03
     10.399  0.6437E+01  0.1998E+03
     10.438  0.3393E+01  0.1999E+03
     10.478  0.1364E+01  0.2000E+03
     10.517  0.2906E+00  0.2000E+03
     10.556 -0.8048E-01  0.2000E+03
     10.595 -0.9072E-01  0.2000E+03
     10.634 -0.1632E-01  0.2000E+03
     10.674  0.1829E-01  0.2000E+03
     10.713  0.1190E-01  0.2000E+03
     10.752 -0.4509E-03  0.2000E+03
     10.791 -0.3857E-02  0.2000E+03
     10.830 -0.2299E-02  0.2000E+03
     10.869 -0.7501E-03  0.2000E+03
     10.909 -0.1585E-03  0.2000E+03
     10.948 -0.2296E-04  0.2000E+03
     10.987 -0.2340E-05  0.2000E+03
     11.026 -0.1701E-06  0.2000E+03
     11.065 -0.8903E-08  0.2000E+03
     11.104 -0.3372E-09  0.2000E+03
     11.144 -0.9275E-11  0.2000E+03
     11.183 -0.1859E-12  0.2000E+03
     11.222 -0.2703E-14  0.2000E+03
     11.261 -0.4581E-16  0.2000E+03
     11.300  0.0000E+00  0.2000E+03
     11.339  0.0000E+00  0.2000E+03
     11.379  0.0000E+00  0.2000E+03
     11.418  0.0000E+00  0.2000E+03
     11.457  0.0000E+00  0.2000E+03
     11.496  0.0000E+00  0.2000E+03
     11.535  0.0000E+00  0.2000E+03
     11.574  0.0000E+00  0.2000E+03
     11.614  0.0000E+00  0.2000E+03
