  64  64   0   0
  0.1440016E+02  0.1158309E-08  0.1158309E-08  0.1092842E-08  0.5000000E-15
  1.000000000000000E-004
  CAR 
 Ir_Ru                                   
     12.54764383     -1.63633171  301      9.68983771      1.00000000
     -1.636  0.0000E+00  0.0000E+00
     -1.589  0.0000E+00  0.0000E+00
     -1.542  0.0000E+00  0.0000E+00
     -1.494  0.0000E+00  0.0000E+00
     -1.447  0.0000E+00  0.0000E+00
     -1.400  0.0000E+00  0.0000E+00
     -1.353  0.0000E+00  0.0000E+00
     -1.305  0.0000E+00  0.0000E+00
     -1.258  0.0000E+00  0.0000E+00
     -1.211  0.0000E+00  0.0000E+00
     -1.164  0.0000E+00  0.0000E+00
     -1.116  0.0000E+00  0.0000E+00
     -1.069  0.0000E+00  0.0000E+00
     -1.022  0.0000E+00  0.0000E+00
     -0.974  0.0000E+00  0.0000E+00
     -0.927  0.0000E+00  0.0000E+00
     -0.880  0.0000E+00  0.0000E+00
     -0.833  0.0000E+00  0.0000E+00
     -0.785  0.0000E+00  0.0000E+00
     -0.738  0.0000E+00  0.0000E+00
     -0.691  0.0000E+00  0.0000E+00
     -0.643  0.0000E+00  0.0000E+00
     -0.596  0.1627E+00  0.2178E-02
     -0.549  0.7287E+00  0.2224E-01
     -0.502  0.1223E+01  0.6919E-01
     -0.454  0.1524E+01  0.1351E+00
     -0.407  0.1727E+01  0.2119E+00
     -0.360  0.2154E+01  0.3019E+00
     -0.312  0.2766E+01  0.4193E+00
     -0.265  0.2860E+01  0.5537E+00
     -0.218  0.2707E+01  0.6874E+00
     -0.171  0.2651E+01  0.8142E+00
     -0.123  0.2555E+01  0.9375E+00
     -0.076  0.2485E+01  0.1058E+01
     -0.029  0.2404E+01  0.1173E+01
      0.018  0.3392E+01  0.1307E+01
      0.066  0.3790E+01  0.1483E+01
      0.113  0.4260E+01  0.1675E+01
      0.160  0.4571E+01  0.1883E+01
      0.208  0.4432E+01  0.2097E+01
      0.255  0.4684E+01  0.2338E+01
      0.302  0.3410E+01  0.2530E+01
      0.349  0.3146E+01  0.2683E+01
      0.397  0.3050E+01  0.2829E+01
      0.444  0.3090E+01  0.2969E+01
      0.491  0.3524E+01  0.3126E+01
      0.539  0.3764E+01  0.3296E+01
      0.586  0.5460E+01  0.3501E+01
      0.633  0.6643E+01  0.3801E+01
      0.680  0.7372E+01  0.4136E+01
      0.728  0.6509E+01  0.4464E+01
      0.775  0.6140E+01  0.4758E+01
      0.822  0.5947E+01  0.5045E+01
      0.870  0.6303E+01  0.5326E+01
      0.917  0.6647E+01  0.5654E+01
      0.964  0.6410E+01  0.5965E+01
      1.011  0.5998E+01  0.6262E+01
      1.059  0.5549E+01  0.6544E+01
      1.106  0.5428E+01  0.6802E+01
      1.153  0.6332E+01  0.7074E+01
      1.200  0.7119E+01  0.7394E+01
      1.248  0.7246E+01  0.7739E+01
      1.295  0.7677E+01  0.8077E+01
      1.342  0.9108E+01  0.8494E+01
      1.390  0.6784E+01  0.8854E+01
      1.437  0.1014E+02  0.9245E+01
      1.484  0.8418E+01  0.9690E+01
      1.531  0.8171E+01  0.1007E+02
      1.579  0.9346E+01  0.1050E+02
      1.626  0.9779E+01  0.1096E+02
      1.673  0.1092E+02  0.1144E+02
      1.721  0.1140E+02  0.1199E+02
      1.768  0.9614E+01  0.1246E+02
      1.815  0.1290E+02  0.1302E+02
      1.862  0.1389E+02  0.1361E+02
      1.910  0.1361E+02  0.1425E+02
      1.957  0.1475E+02  0.1492E+02
      2.004  0.1687E+02  0.1567E+02
      2.052  0.1709E+02  0.1647E+02
      2.099  0.1939E+02  0.1731E+02
      2.146  0.2813E+02  0.1840E+02
      2.193  0.3455E+02  0.1999E+02
      2.241  0.3046E+02  0.2153E+02
      2.288  0.3189E+02  0.2298E+02
      2.335  0.3723E+02  0.2453E+02
      2.382  0.3813E+02  0.2625E+02
      2.430  0.3574E+02  0.2803E+02
      2.477  0.3356E+02  0.2967E+02
      2.524  0.3879E+02  0.3132E+02
      2.572  0.2751E+02  0.3299E+02
      2.619  0.3738E+02  0.3465E+02
      2.666  0.3938E+02  0.3656E+02
      2.713  0.4637E+02  0.3864E+02
      2.761  0.7058E+02  0.4070E+02
      2.808  0.4972E+02  0.4315E+02
      2.855  0.6354E+02  0.4583E+02
      2.903  0.5871E+02  0.4847E+02
      2.950  0.5829E+02  0.5157E+02
      2.997  0.7429E+02  0.5458E+02
      3.044  0.6873E+02  0.5783E+02
      3.092  0.7770E+02  0.6117E+02
      3.139  0.8456E+02  0.6480E+02
      3.186  0.8390E+02  0.6879E+02
      3.233  0.8592E+02  0.7313E+02
      3.281  0.8448E+02  0.7734E+02
      3.328  0.8569E+02  0.8147E+02
      3.375  0.8360E+02  0.8554E+02
      3.423  0.8820E+02  0.8938E+02
      3.470  0.8436E+02  0.9376E+02
      3.517  0.8626E+02  0.9789E+02
      3.564  0.8939E+02  0.1019E+03
      3.612  0.7718E+02  0.1059E+03
      3.659  0.8162E+02  0.1096E+03
      3.706  0.7619E+02  0.1133E+03
      3.754  0.7531E+02  0.1170E+03
      3.801  0.7753E+02  0.1208E+03
      3.848  0.8547E+02  0.1247E+03
      3.895  0.7064E+02  0.1284E+03
      3.943  0.6745E+02  0.1316E+03
      3.990  0.7470E+02  0.1351E+03
      4.037  0.7758E+02  0.1387E+03
      4.085  0.6718E+02  0.1421E+03
      4.132  0.6150E+02  0.1452E+03
      4.179  0.6460E+02  0.1482E+03
      4.226  0.7076E+02  0.1513E+03
      4.274  0.6116E+02  0.1545E+03
      4.321  0.5237E+02  0.1572E+03
      4.368  0.4835E+02  0.1595E+03
      4.415  0.6131E+02  0.1620E+03
      4.463  0.5701E+02  0.1647E+03
      4.510  0.5997E+02  0.1675E+03
      4.557  0.6763E+02  0.1703E+03
      4.605  0.6681E+02  0.1735E+03
      4.652  0.7057E+02  0.1771E+03
      4.699  0.5961E+02  0.1804E+03
      4.746  0.6348E+02  0.1831E+03
      4.794  0.7723E+02  0.1862E+03
      4.841  0.8244E+02  0.1896E+03
      4.888  0.7493E+02  0.1932E+03
      4.936  0.8036E+02  0.1968E+03
      4.983  0.6835E+02  0.2003E+03
      5.030  0.7190E+02  0.2036E+03
      5.077  0.6610E+02  0.2068E+03
      5.125  0.7722E+02  0.2102E+03
      5.172  0.7899E+02  0.2141E+03
      5.219  0.7517E+02  0.2176E+03
      5.267  0.6962E+02  0.2211E+03
      5.314  0.7476E+02  0.2247E+03
      5.361  0.9577E+02  0.2290E+03
      5.408  0.7436E+02  0.2329E+03
      5.456  0.6979E+02  0.2360E+03
      5.503  0.6874E+02  0.2391E+03
      5.550  0.7934E+02  0.2432E+03
      5.597  0.8413E+02  0.2472E+03
      5.645  0.7891E+02  0.2510E+03
      5.692  0.9652E+02  0.2552E+03
      5.739  0.7905E+02  0.2592E+03
      5.787  0.8009E+02  0.2630E+03
      5.834  0.7855E+02  0.2668E+03
      5.881  0.8066E+02  0.2706E+03
      5.928  0.8113E+02  0.2745E+03
      5.976  0.9579E+02  0.2787E+03
      6.023  0.8581E+02  0.2828E+03
      6.070  0.8609E+02  0.2869E+03
      6.118  0.8866E+02  0.2911E+03
      6.165  0.9662E+02  0.2958E+03
      6.212  0.9143E+02  0.3003E+03
      6.259  0.1070E+03  0.3051E+03
      6.307  0.1069E+03  0.3102E+03
      6.354  0.1095E+03  0.3155E+03
      6.401  0.1072E+03  0.3207E+03
      6.449  0.1077E+03  0.3260E+03
      6.496  0.1116E+03  0.3310E+03
      6.543  0.1121E+03  0.3362E+03
      6.590  0.1219E+03  0.3417E+03
      6.638  0.1315E+03  0.3478E+03
      6.685  0.1214E+03  0.3541E+03
      6.732  0.1216E+03  0.3599E+03
      6.779  0.1044E+03  0.3649E+03
      6.827  0.8229E+02  0.3691E+03
      6.874  0.9679E+02  0.3731E+03
      6.921  0.8616E+02  0.3778E+03
      6.969  0.7400E+02  0.3814E+03
      7.016  0.6953E+02  0.3848E+03
      7.063  0.7101E+02  0.3881E+03
      7.110  0.7346E+02  0.3916E+03
      7.158  0.7187E+02  0.3950E+03
      7.205  0.6609E+02  0.3982E+03
      7.252  0.7512E+02  0.4016E+03
      7.300  0.7283E+02  0.4050E+03
      7.347  0.7055E+02  0.4085E+03
      7.394  0.6968E+02  0.4118E+03
      7.441  0.6946E+02  0.4150E+03
      7.489  0.6399E+02  0.4182E+03
      7.536  0.5560E+02  0.4211E+03
      7.583  0.5914E+02  0.4238E+03
      7.631  0.5870E+02  0.4266E+03
      7.678  0.6105E+02  0.4294E+03
      7.725  0.6357E+02  0.4323E+03
      7.772  0.7223E+02  0.4355E+03
      7.820  0.6078E+02  0.4386E+03
      7.867  0.6552E+02  0.4415E+03
      7.914  0.8537E+02  0.4451E+03
      7.961  0.7434E+02  0.4488E+03
      8.009  0.6863E+02  0.4523E+03
      8.056  0.7268E+02  0.4557E+03
      8.103  0.6597E+02  0.4591E+03
      8.151  0.8565E+02  0.4627E+03
      8.198  0.9121E+02  0.4670E+03
      8.245  0.8219E+02  0.4711E+03
      8.292  0.8028E+02  0.4751E+03
      8.340  0.7451E+02  0.4787E+03
      8.387  0.6819E+02  0.4822E+03
      8.434  0.6749E+02  0.4854E+03
      8.482  0.6996E+02  0.4887E+03
      8.529  0.5352E+02  0.4915E+03
      8.576  0.6035E+02  0.4941E+03
      8.623  0.6849E+02  0.4971E+03
      8.671  0.8248E+02  0.5006E+03
      8.718  0.7560E+02  0.5041E+03
      8.765  0.7999E+02  0.5077E+03
      8.813  0.6531E+02  0.5110E+03
      8.860  0.6670E+02  0.5140E+03
      8.907  0.6747E+02  0.5173E+03
      8.954  0.6797E+02  0.5206E+03
      9.002  0.6050E+02  0.5237E+03
      9.049  0.6370E+02  0.5266E+03
      9.096  0.5116E+02  0.5292E+03
      9.143  0.5054E+02  0.5316E+03
      9.191  0.5895E+02  0.5342E+03
      9.238  0.6117E+02  0.5371E+03
      9.285  0.5849E+02  0.5399E+03
      9.333  0.5816E+02  0.5427E+03
      9.380  0.6608E+02  0.5458E+03
      9.427  0.6086E+02  0.5487E+03
      9.474  0.5218E+02  0.5514E+03
      9.522  0.5360E+02  0.5539E+03
      9.569  0.5527E+02  0.5566E+03
      9.616  0.5502E+02  0.5592E+03
      9.664  0.7308E+02  0.5622E+03
      9.711  0.6239E+02  0.5655E+03
      9.758  0.5348E+02  0.5683E+03
      9.805  0.6272E+02  0.5711E+03
      9.853  0.6321E+02  0.5741E+03
      9.900  0.6556E+02  0.5772E+03
      9.947  0.5718E+02  0.5801E+03
      9.995  0.6971E+02  0.5832E+03
     10.042  0.6185E+02  0.5864E+03
     10.089  0.7045E+02  0.5896E+03
     10.136  0.6479E+02  0.5929E+03
     10.184  0.7131E+02  0.5961E+03
     10.231  0.6572E+02  0.5994E+03
     10.278  0.7488E+02  0.6028E+03
     10.325  0.8716E+02  0.6065E+03
     10.373  0.9749E+02  0.6110E+03
     10.420  0.1115E+03  0.6159E+03
     10.467  0.1088E+03  0.6212E+03
     10.515  0.1140E+03  0.6265E+03
     10.562  0.1072E+03  0.6320E+03
     10.609  0.9061E+02  0.6367E+03
     10.656  0.1018E+03  0.6409E+03
     10.704  0.1068E+03  0.6461E+03
     10.751  0.8630E+02  0.6504E+03
     10.798  0.8596E+02  0.6546E+03
     10.846  0.8013E+02  0.6587E+03
     10.893  0.6382E+02  0.6623E+03
     10.940  0.6478E+02  0.6654E+03
     10.987  0.5741E+02  0.6684E+03
     11.035  0.4270E+02  0.6707E+03
     11.082  0.3461E+02  0.6726E+03
     11.129  0.2611E+02  0.6741E+03
     11.177  0.1703E+02  0.6751E+03
     11.224  0.8387E+01  0.6757E+03
     11.271  0.2238E+01  0.6759E+03
     11.318  0.3537E+00  0.6760E+03
     11.366  0.2039E+00  0.6760E+03
     11.413  0.1117E+00  0.6760E+03
     11.460  0.4706E-01  0.6760E+03
     11.507  0.9927E-02  0.6760E+03
     11.555  0.0000E+00  0.6760E+03
     11.602  0.0000E+00  0.6760E+03
     11.649  0.0000E+00  0.6760E+03
     11.697  0.0000E+00  0.6760E+03
     11.744  0.0000E+00  0.6760E+03
     11.791  0.0000E+00  0.6760E+03
     11.838  0.0000E+00  0.6760E+03
     11.886  0.0000E+00  0.6760E+03
     11.933  0.0000E+00  0.6760E+03
     11.980  0.0000E+00  0.6760E+03
     12.028  0.0000E+00  0.6760E+03
     12.075  0.0000E+00  0.6760E+03
     12.122  0.0000E+00  0.6760E+03
     12.169  0.0000E+00  0.6760E+03
     12.217  0.0000E+00  0.6760E+03
     12.264  0.0000E+00  0.6760E+03
     12.311  0.0000E+00  0.6760E+03
     12.359  0.0000E+00  0.6760E+03
     12.406  0.0000E+00  0.6760E+03
     12.453  0.0000E+00  0.6760E+03
     12.500  0.0000E+00  0.6760E+03
     12.548  0.0000E+00  0.6760E+03
