       N       E                     dE             d eps       ncg     rms          rms(c)
RMM:   1     0.136790781541E+05    0.13679E+05   -0.47218E+05 25080   0.725E+02
RMM:   2     0.131339962883E+04   -0.12366E+05   -0.13120E+05 25080   0.260E+02
RMM:   3    -0.104566272256E+04   -0.23591E+04   -0.22856E+04 25080   0.111E+02
RMM:   4    -0.184599079441E+04   -0.80033E+03   -0.57407E+03 25080   0.768E+01
RMM:   5    -0.212910416685E+04   -0.28311E+03   -0.24895E+03 25080   0.451E+01
RMM:   6    -0.227482820381E+04   -0.14572E+03   -0.12952E+03 25080   0.349E+01
RMM:   7    -0.235269285822E+04   -0.77865E+02   -0.73854E+02 25080   0.236E+01
RMM:   8    -0.240019062309E+04   -0.47498E+02   -0.44557E+02 25080   0.195E+01
RMM:   9    -0.247908456730E+04   -0.78894E+02   -0.77973E+02 71860   0.137E+01
RMM:  10    -0.248863366342E+04   -0.95491E+01   -0.11974E+02 79661   0.283E+00
RMM:  11    -0.249087605030E+04   -0.22424E+01   -0.17856E+01 77271   0.686E-01
RMM:  12    -0.249118199022E+04   -0.30594E+00   -0.19797E+00 79546   0.198E-01    0.782E+01
RMM:  13    -0.241364187405E+04    0.77540E+02   -0.68470E+02 57182   0.246E+01    0.583E+01
RMM:  14    -0.236781682702E+04    0.45825E+02   -0.34131E+02 51450   0.174E+01    0.416E+01
RMM:  15    -0.233566200742E+04    0.32155E+02   -0.11855E+02 53322   0.101E+01    0.255E+01
RMM:  16    -0.232134229442E+04    0.14320E+02   -0.25884E+01 56014   0.435E+00    0.449E+00
RMM:  17    -0.232155035827E+04   -0.20806E+00   -0.64900E+00 73877   0.129E+00    0.453E+00
RMM:  18    -0.232113883534E+04    0.41152E+00   -0.11652E+00 64759   0.698E-01    0.342E+00
RMM:  19    -0.232075448097E+04    0.38435E+00   -0.67883E-01 59532   0.776E-01    0.169E+00
RMM:  20    -0.232071069485E+04    0.43786E-01   -0.25020E-01 65096   0.338E-01    0.167E+00
RMM:  21    -0.232066071989E+04    0.49975E-01   -0.11941E-01 62377   0.251E-01    0.121E+00
RMM:  22    -0.232063645563E+04    0.24264E-01   -0.52253E-02 61062   0.167E-01    0.739E-01
RMM:  23    -0.232063027080E+04    0.61848E-02   -0.14322E-02 67327   0.706E-02    0.491E-01
RMM:  24    -0.232062669991E+04    0.35709E-02   -0.10258E-02 61977   0.758E-02    0.251E-01
RMM:  25    -0.232062749998E+04   -0.80007E-03   -0.12267E-02 66593   0.753E-02    0.253E-01
RMM:  26    -0.232062776207E+04   -0.26209E-03   -0.38069E-03 73152   0.332E-02    0.265E-01
RMM:  27    -0.232062685766E+04    0.90441E-03   -0.72488E-04 59920   0.209E-02    0.177E-01
RMM:  28    -0.232062628476E+04    0.57290E-03   -0.10496E-03 63154   0.239E-02    0.739E-02
RMM:  29    -0.232062619187E+04    0.92889E-04   -0.55218E-04 70955   0.147E-02
   1 F= -.23206262E+04 E0= -.23206262E+04  d E =-.103513E-03
