 256 256   0   0
  0.1418917E+02  0.1588033E-08  0.1692661E-08  0.1693229E-08  0.5000000E-15
  1.000000000000000E-004
  CAR 
 Ir_Ru                                   
     14.27108022     -1.29216994  301      9.45708969      1.00000000
     -1.292  0.0000E+00  0.0000E+00
     -1.240  0.0000E+00  0.0000E+00
     -1.188  0.0000E+00  0.0000E+00
     -1.137 -0.2776E-30 -0.1440E-31
     -1.085 -0.1269E-26 -0.6587E-28
     -1.033 -0.3375E-23 -0.1752E-24
     -0.981 -0.5213E-20 -0.2706E-21
     -0.929 -0.4673E-17 -0.2427E-18
     -0.877 -0.2369E-14 -0.1232E-15
     -0.825 -0.7060E-12 -0.3675E-13
     -0.773 -0.1219E-09 -0.6362E-11
     -0.722 -0.1212E-07 -0.6349E-09
     -0.670 -0.6901E-06 -0.3644E-07
     -0.618 -0.2240E-04 -0.1199E-05
     -0.566 -0.4114E-03 -0.2254E-04
     -0.514 -0.4234E-02 -0.2422E-03
     -0.462 -0.2416E-01 -0.1495E-02
     -0.410 -0.7493E-01 -0.5383E-02
     -0.358 -0.1022E+00 -0.1069E-01
     -0.306  0.2025E+00 -0.1835E-03
     -0.255  0.1629E+01  0.8431E-01
     -0.203  0.4385E+01  0.3118E+00
     -0.151  0.6350E+01  0.6412E+00
     -0.099  0.6424E+01  0.9745E+00
     -0.047  0.6956E+01  0.1335E+01
      0.005  0.8848E+01  0.1794E+01
      0.057  0.1117E+02  0.2374E+01
      0.109  0.1360E+02  0.3079E+01
      0.160  0.1435E+02  0.3824E+01
      0.212  0.1172E+02  0.4432E+01
      0.264  0.1006E+02  0.4954E+01
      0.316  0.1424E+02  0.5693E+01
      0.368  0.2033E+02  0.6747E+01
      0.420  0.2251E+02  0.7915E+01
      0.472  0.2268E+02  0.9092E+01
      0.524  0.2349E+02  0.1031E+02
      0.575  0.2255E+02  0.1148E+02
      0.627  0.2047E+02  0.1254E+02
      0.679  0.2098E+02  0.1363E+02
      0.731  0.2039E+02  0.1469E+02
      0.783  0.1465E+02  0.1545E+02
      0.835  0.8901E+01  0.1591E+02
      0.887  0.8022E+01  0.1633E+02
      0.939  0.1168E+02  0.1693E+02
      0.990  0.1883E+02  0.1791E+02
      1.042  0.2775E+02  0.1935E+02
      1.094  0.3336E+02  0.2108E+02
      1.146  0.3317E+02  0.2280E+02
      1.198  0.2888E+02  0.2430E+02
      1.250  0.2284E+02  0.2548E+02
      1.302  0.1946E+02  0.2649E+02
      1.354  0.2162E+02  0.2761E+02
      1.405  0.2710E+02  0.2902E+02
      1.457  0.3033E+02  0.3059E+02
      1.509  0.2984E+02  0.3214E+02
      1.561  0.2931E+02  0.3366E+02
      1.613  0.3036E+02  0.3524E+02
      1.665  0.3111E+02  0.3685E+02
      1.717  0.3199E+02  0.3851E+02
      1.769  0.3491E+02  0.4032E+02
      1.820  0.3897E+02  0.4234E+02
      1.872  0.4532E+02  0.4469E+02
      1.924  0.5446E+02  0.4752E+02
      1.976  0.5934E+02  0.5060E+02
      2.028  0.5493E+02  0.5345E+02
      2.080  0.5048E+02  0.5607E+02
      2.132  0.6112E+02  0.5924E+02
      2.184  0.8627E+02  0.6371E+02
      2.236  0.1084E+03  0.6934E+02
      2.287  0.1196E+03  0.7554E+02
      2.339  0.1257E+03  0.8206E+02
      2.391  0.1313E+03  0.8887E+02
      2.443  0.1372E+03  0.9599E+02
      2.495  0.1467E+03  0.1036E+03
      2.547  0.1638E+03  0.1121E+03
      2.599  0.1824E+03  0.1216E+03
      2.651  0.1945E+03  0.1317E+03
      2.702  0.2063E+03  0.1424E+03
      2.754  0.2234E+03  0.1539E+03
      2.806  0.2310E+03  0.1659E+03
      2.858  0.2249E+03  0.1776E+03
      2.910  0.2273E+03  0.1894E+03
      2.962  0.2446E+03  0.2021E+03
      3.014  0.2577E+03  0.2154E+03
      3.066  0.2600E+03  0.2289E+03
      3.117  0.2604E+03  0.2424E+03
      3.169  0.2637E+03  0.2561E+03
      3.221  0.2725E+03  0.2703E+03
      3.273  0.2873E+03  0.2852E+03
      3.325  0.3065E+03  0.3011E+03
      3.377  0.3238E+03  0.3179E+03
      3.429  0.3306E+03  0.3350E+03
      3.481  0.3278E+03  0.3520E+03
      3.532  0.3213E+03  0.3687E+03
      3.584  0.3180E+03  0.3852E+03
      3.636  0.3166E+03  0.4016E+03
      3.688  0.3113E+03  0.4178E+03
      3.740  0.3053E+03  0.4336E+03
      3.792  0.3013E+03  0.4492E+03
      3.844  0.2971E+03  0.4646E+03
      3.896  0.2934E+03  0.4799E+03
      3.947  0.2888E+03  0.4948E+03
      3.999  0.2767E+03  0.5092E+03
      4.051  0.2666E+03  0.5230E+03
      4.103  0.2750E+03  0.5373E+03
      4.155  0.2936E+03  0.5525E+03
      4.207  0.3026E+03  0.5682E+03
      4.259  0.3049E+03  0.5840E+03
      4.311  0.3117E+03  0.6002E+03
      4.362  0.3185E+03  0.6167E+03
      4.414  0.3212E+03  0.6334E+03
      4.466  0.3236E+03  0.6502E+03
      4.518  0.3212E+03  0.6668E+03
      4.570  0.3100E+03  0.6829E+03
      4.622  0.2977E+03  0.6984E+03
      4.674  0.2936E+03  0.7136E+03
      4.726  0.2979E+03  0.7291E+03
      4.777  0.3055E+03  0.7449E+03
      4.829  0.3172E+03  0.7614E+03
      4.881  0.3310E+03  0.7785E+03
      4.933  0.3376E+03  0.7961E+03
      4.985  0.3448E+03  0.8139E+03
      5.037  0.3577E+03  0.8325E+03
      5.089  0.3653E+03  0.8514E+03
      5.141  0.3643E+03  0.8703E+03
      5.193  0.3556E+03  0.8888E+03
      5.244  0.3357E+03  0.9062E+03
      5.296  0.3037E+03  0.9220E+03
      5.348  0.2630E+03  0.9356E+03
      5.400  0.2200E+03  0.9470E+03
      5.452  0.1857E+03  0.9566E+03
      5.504  0.1728E+03  0.9656E+03
      5.556  0.1883E+03  0.9754E+03
      5.608  0.2258E+03  0.9871E+03
      5.659  0.2737E+03  0.1001E+04
      5.711  0.3236E+03  0.1018E+04
      5.763  0.3660E+03  0.1037E+04
      5.815  0.3942E+03  0.1058E+04
      5.867  0.4099E+03  0.1079E+04
      5.919  0.4188E+03  0.1101E+04
      5.971  0.4253E+03  0.1123E+04
      6.023  0.4281E+03  0.1145E+04
      6.074  0.4171E+03  0.1166E+04
      6.126  0.3929E+03  0.1187E+04
      6.178  0.3725E+03  0.1206E+04
      6.230  0.3617E+03  0.1225E+04
      6.282  0.3557E+03  0.1243E+04
      6.334  0.3562E+03  0.1262E+04
      6.386  0.3685E+03  0.1281E+04
      6.438  0.3816E+03  0.1301E+04
      6.489  0.3842E+03  0.1321E+04
      6.541  0.3909E+03  0.1341E+04
      6.593  0.4090E+03  0.1362E+04
      6.645  0.4235E+03  0.1384E+04
      6.697  0.4282E+03  0.1406E+04
      6.749  0.4256E+03  0.1428E+04
      6.801  0.4141E+03  0.1450E+04
      6.853  0.3932E+03  0.1470E+04
      6.904  0.3741E+03  0.1490E+04
      6.956  0.3667E+03  0.1509E+04
      7.008  0.3637E+03  0.1528E+04
      7.060  0.3672E+03  0.1547E+04
      7.112  0.3896E+03  0.1567E+04
      7.164  0.4140E+03  0.1588E+04
      7.216  0.4222E+03  0.1610E+04
      7.268  0.4224E+03  0.1632E+04
      7.319  0.4142E+03  0.1654E+04
      7.371  0.3896E+03  0.1674E+04
      7.423  0.3602E+03  0.1693E+04
      7.475  0.3409E+03  0.1710E+04
      7.527  0.3329E+03  0.1728E+04
      7.579  0.3291E+03  0.1745E+04
      7.631  0.3180E+03  0.1761E+04
      7.683  0.2969E+03  0.1776E+04
      7.735  0.2782E+03  0.1791E+04
      7.786  0.2689E+03  0.1805E+04
      7.838  0.2639E+03  0.1819E+04
      7.890  0.2580E+03  0.1832E+04
      7.942  0.2490E+03  0.1845E+04
      7.994  0.2429E+03  0.1857E+04
      8.046  0.2432E+03  0.1870E+04
      8.098  0.2397E+03  0.1883E+04
      8.150  0.2318E+03  0.1895E+04
      8.201  0.2290E+03  0.1906E+04
      8.253  0.2330E+03  0.1919E+04
      8.305  0.2375E+03  0.1931E+04
      8.357  0.2390E+03  0.1943E+04
      8.409  0.2372E+03  0.1956E+04
      8.461  0.2295E+03  0.1967E+04
      8.513  0.2191E+03  0.1979E+04
      8.565  0.2123E+03  0.1990E+04
      8.616  0.2074E+03  0.2001E+04
      8.668  0.2003E+03  0.2011E+04
      8.720  0.1919E+03  0.2021E+04
      8.772  0.1835E+03  0.2030E+04
      8.824  0.1794E+03  0.2040E+04
      8.876  0.1871E+03  0.2049E+04
      8.928  0.2112E+03  0.2060E+04
      8.980  0.2345E+03  0.2073E+04
      9.031  0.2369E+03  0.2085E+04
      9.083  0.2246E+03  0.2097E+04
      9.135  0.2077E+03  0.2107E+04
      9.187  0.1882E+03  0.2117E+04
      9.239  0.1786E+03  0.2126E+04
      9.291  0.1955E+03  0.2136E+04
      9.343  0.2266E+03  0.2148E+04
      9.395  0.2427E+03  0.2161E+04
      9.446  0.2429E+03  0.2173E+04
      9.498  0.2447E+03  0.2186E+04
      9.550  0.2446E+03  0.2199E+04
      9.602  0.2456E+03  0.2212E+04
      9.654  0.2718E+03  0.2226E+04
      9.706  0.3150E+03  0.2242E+04
      9.758  0.3355E+03  0.2259E+04
      9.810  0.3274E+03  0.2276E+04
      9.861  0.3170E+03  0.2293E+04
      9.913  0.3151E+03  0.2309E+04
      9.965  0.3209E+03  0.2326E+04
     10.017  0.3410E+03  0.2343E+04
     10.069  0.3773E+03  0.2363E+04
     10.121  0.4113E+03  0.2384E+04
     10.173  0.4279E+03  0.2407E+04
     10.225  0.4356E+03  0.2429E+04
     10.277  0.4478E+03  0.2452E+04
     10.328  0.4662E+03  0.2477E+04
     10.380  0.4851E+03  0.2502E+04
     10.432  0.4970E+03  0.2528E+04
     10.484  0.4914E+03  0.2553E+04
     10.536  0.4559E+03  0.2577E+04
     10.588  0.3961E+03  0.2597E+04
     10.640  0.3277E+03  0.2614E+04
     10.692  0.2458E+03  0.2627E+04
     10.743  0.1459E+03  0.2635E+04
     10.795  0.5504E+02  0.2637E+04
     10.847  0.5388E+01  0.2638E+04
     10.899 -0.5666E+01  0.2637E+04
     10.951 -0.2978E+01  0.2637E+04
     11.003 -0.6930E+00  0.2637E+04
     11.055 -0.9357E-01  0.2637E+04
     11.107 -0.8121E-02  0.2637E+04
     11.158 -0.4747E-03  0.2637E+04
     11.210 -0.1848E-04  0.2637E+04
     11.262 -0.4582E-06  0.2637E+04
     11.314 -0.6927E-08  0.2637E+04
     11.366 -0.6217E-10  0.2637E+04
     11.418 -0.3595E-12  0.2637E+04
     11.470 -0.8851E-11  0.2637E+04
     11.522 -0.1365E-08  0.2637E+04
     11.573 -0.1214E-06  0.2637E+04
     11.625 -0.6185E-05  0.2637E+04
     11.677 -0.1788E-03  0.2637E+04
     11.729 -0.2874E-02  0.2637E+04
     11.781 -0.2461E-01  0.2637E+04
     11.833 -0.9921E-01  0.2637E+04
     11.885 -0.8146E-01  0.2637E+04
     11.937  0.6440E+00  0.2637E+04
     11.988  0.2094E+01  0.2637E+04
     12.040  0.2517E+01  0.2637E+04
     12.092  0.1394E+01  0.2638E+04
     12.144  0.7953E+00  0.2638E+04
     12.196  0.1432E+01  0.2638E+04
     12.248  0.2123E+01  0.2638E+04
     12.300  0.2222E+01  0.2638E+04
     12.352  0.2240E+01  0.2638E+04
     12.403  0.2637E+01  0.2638E+04
     12.455  0.2672E+01  0.2638E+04
     12.507  0.2140E+01  0.2638E+04
     12.559  0.2210E+01  0.2639E+04
     12.611  0.2654E+01  0.2639E+04
     12.663  0.3147E+01  0.2639E+04
     12.715  0.3956E+01  0.2639E+04
     12.767  0.3583E+01  0.2639E+04
     12.819  0.2390E+01  0.2639E+04
     12.870  0.2253E+01  0.2639E+04
     12.922  0.2254E+01  0.2640E+04
     12.974  0.1540E+01  0.2640E+04
     13.026  0.1061E+01  0.2640E+04
     13.078  0.9082E+00  0.2640E+04
     13.130  0.6937E+00  0.2640E+04
     13.182  0.8457E+00  0.2640E+04
     13.234  0.1285E+01  0.2640E+04
     13.285  0.1289E+01  0.2640E+04
     13.337  0.7232E+00  0.2640E+04
     13.389  0.1457E+00  0.2640E+04
     13.441 -0.5189E-01  0.2640E+04
     13.493 -0.3426E-01  0.2640E+04
     13.545 -0.7326E-02  0.2640E+04
     13.597 -0.7691E-03  0.2640E+04
     13.649 -0.4334E-04  0.2640E+04
     13.700 -0.1357E-05  0.2640E+04
     13.752 -0.2402E-07  0.2640E+04
     13.804 -0.2427E-09  0.2640E+04
     13.856 -0.1408E-11  0.2640E+04
     13.908 -0.4756E-14  0.2640E+04
     13.960  0.0000E+00  0.2640E+04
     14.012  0.0000E+00  0.2640E+04
     14.064  0.0000E+00  0.2640E+04
     14.115  0.0000E+00  0.2640E+04
     14.167  0.0000E+00  0.2640E+04
     14.219  0.0000E+00  0.2640E+04
     14.271  0.0000E+00  0.2640E+04
