       N       E                     dE             d eps       ncg     rms          rms(c)
RMM:   1     0.136790674954E+05    0.13679E+05   -0.47218E+05 25080   0.725E+02
RMM:   2     0.131336316249E+04   -0.12366E+05   -0.13120E+05 25080   0.260E+02
RMM:   3    -0.104570205874E+04   -0.23591E+04   -0.22855E+04 25080   0.111E+02
RMM:   4    -0.184601191334E+04   -0.80031E+03   -0.57406E+03 25080   0.768E+01
RMM:   5    -0.212912091832E+04   -0.28311E+03   -0.24896E+03 25080   0.451E+01
RMM:   6    -0.227484248010E+04   -0.14572E+03   -0.12952E+03 25080   0.349E+01
RMM:   7    -0.235270377342E+04   -0.77861E+02   -0.73852E+02 25080   0.235E+01
RMM:   8    -0.240019957809E+04   -0.47496E+02   -0.44555E+02 25080   0.195E+01
RMM:   9    -0.247909194611E+04   -0.78892E+02   -0.77972E+02 71871   0.137E+01
RMM:  10    -0.248864333170E+04   -0.95514E+01   -0.11976E+02 79677   0.283E+00
RMM:  11    -0.249088342511E+04   -0.22401E+01   -0.17834E+01 77267   0.686E-01
RMM:  12    -0.249118987435E+04   -0.30645E+00   -0.19833E+00 79545   0.198E-01    0.782E+01
RMM:  13    -0.241367088979E+04    0.77519E+02   -0.68485E+02 57178   0.246E+01    0.583E+01
RMM:  14    -0.236778977887E+04    0.45881E+02   -0.34122E+02 51442   0.174E+01    0.416E+01
RMM:  15    -0.233566090359E+04    0.32129E+02   -0.11859E+02 53334   0.101E+01    0.255E+01
RMM:  16    -0.232133592724E+04    0.14325E+02   -0.25883E+01 56015   0.435E+00    0.445E+00
RMM:  17    -0.232153422045E+04   -0.19829E+00   -0.64774E+00 73803   0.129E+00    0.445E+00
RMM:  18    -0.232114004143E+04    0.39418E+00   -0.11766E+00 64638   0.690E-01    0.342E+00
RMM:  19    -0.232075053183E+04    0.38951E+00   -0.67294E-01 59517   0.772E-01    0.166E+00
RMM:  20    -0.232069981034E+04    0.50721E-01   -0.24544E-01 63847   0.352E-01    0.156E+00
RMM:  21    -0.232066013773E+04    0.39673E-01   -0.11230E-01 62577   0.237E-01    0.122E+00
RMM:  22    -0.232063578815E+04    0.24350E-01   -0.49352E-02 61486   0.160E-01    0.748E-01
RMM:  23    -0.232062943645E+04    0.63517E-02   -0.13900E-02 67262   0.696E-02    0.498E-01
RMM:  24    -0.232062570613E+04    0.37303E-02   -0.10572E-02 62053   0.770E-02    0.249E-01
RMM:  25    -0.232062656199E+04   -0.85587E-03   -0.13267E-02 66302   0.793E-02    0.252E-01
RMM:  26    -0.232062678854E+04   -0.22654E-03   -0.35174E-03 74207   0.307E-02    0.265E-01
RMM:  27    -0.232062591503E+04    0.87351E-03   -0.68171E-04 60236   0.199E-02    0.179E-01
RMM:  28    -0.232062536757E+04    0.54747E-03   -0.91326E-04 63773   0.219E-02    0.839E-02
RMM:  29    -0.232062523522E+04    0.13234E-03   -0.61766E-04 69486   0.164E-02    0.277E-02
RMM:  30    -0.232062521136E+04    0.23858E-04   -0.12651E-04 69339   0.691E-03
   1 F= -.23206252E+04 E0= -.23206252E+04  d E =-.135913E-03
