 256 256   0   0
  0.1418917E+02  0.1588033E-08  0.1692661E-08  0.1693229E-08  0.5000000E-15
  1.000000000000000E-004
  CAR 
 Ir_Ru                                   
     14.33371089     -1.29168786  301      9.45726252      1.00000000
     -1.292  0.0000E+00  0.0000E+00
     -1.240  0.0000E+00  0.0000E+00
     -1.188  0.0000E+00  0.0000E+00
     -1.135 -0.3068E-30 -0.1598E-31
     -1.083 -0.1440E-26 -0.7504E-28
     -1.031 -0.3913E-23 -0.2039E-24
     -0.979 -0.6150E-20 -0.3205E-21
     -0.927 -0.5585E-17 -0.2912E-18
     -0.875 -0.2869E-14 -0.1497E-15
     -0.823 -0.8543E-12 -0.4464E-13
     -0.771 -0.1475E-09 -0.7727E-11
     -0.719 -0.1459E-07 -0.7674E-09
     -0.667 -0.8229E-06 -0.4363E-07
     -0.615 -0.2633E-04 -0.1415E-05
     -0.563 -0.4744E-03 -0.2612E-04
     -0.510 -0.4764E-02 -0.2743E-03
     -0.458 -0.2639E-01 -0.1649E-02
     -0.406 -0.7884E-01 -0.5755E-02
     -0.354 -0.9782E-01 -0.1085E-01
     -0.302  0.2579E+00  0.2581E-02
     -0.250  0.1807E+01  0.9672E-01
     -0.198  0.4612E+01  0.3370E+00
     -0.146  0.6411E+01  0.6709E+00
     -0.094  0.6412E+01  0.1005E+01
     -0.042  0.7085E+01  0.1374E+01
      0.010  0.9059E+01  0.1846E+01
      0.063  0.1141E+02  0.2440E+01
      0.115  0.1380E+02  0.3159E+01
      0.167  0.1421E+02  0.3899E+01
      0.219  0.1135E+02  0.4490E+01
      0.271  0.1023E+02  0.5023E+01
      0.323  0.1501E+02  0.5804E+01
      0.375  0.2083E+02  0.6889E+01
      0.427  0.2251E+02  0.8062E+01
      0.479  0.2273E+02  0.9245E+01
      0.531  0.2351E+02  0.1047E+02
      0.583  0.2222E+02  0.1163E+02
      0.635  0.2031E+02  0.1269E+02
      0.688  0.2110E+02  0.1378E+02
      0.740  0.1985E+02  0.1482E+02
      0.792  0.1364E+02  0.1553E+02
      0.844  0.8445E+01  0.1597E+02
      0.896  0.8381E+01  0.1641E+02
      0.948  0.1266E+02  0.1706E+02
      1.000  0.2033E+02  0.1812E+02
      1.052  0.2915E+02  0.1964E+02
      1.104  0.3377E+02  0.2140E+02
      1.156  0.3260E+02  0.2310E+02
      1.208  0.2772E+02  0.2454E+02
      1.260  0.2186E+02  0.2568E+02
      1.313  0.1948E+02  0.2670E+02
      1.365  0.2264E+02  0.2787E+02
      1.417  0.2811E+02  0.2934E+02
      1.469  0.3044E+02  0.3092E+02
      1.521  0.2962E+02  0.3247E+02
      1.573  0.2952E+02  0.3400E+02
      1.625  0.3068E+02  0.3560E+02
      1.677  0.3117E+02  0.3723E+02
      1.729  0.3244E+02  0.3892E+02
      1.781  0.3586E+02  0.4078E+02
      1.833  0.4036E+02  0.4289E+02
      1.885  0.4759E+02  0.4536E+02
      1.938  0.5646E+02  0.4830E+02
      1.990  0.5890E+02  0.5137E+02
      2.042  0.5302E+02  0.5413E+02
      2.094  0.5132E+02  0.5681E+02
      2.146  0.6687E+02  0.6029E+02
      2.198  0.9305E+02  0.6514E+02
      2.250  0.1122E+03  0.7098E+02
      2.302  0.1213E+03  0.7730E+02
      2.354  0.1272E+03  0.8393E+02
      2.406  0.1330E+03  0.9085E+02
      2.458  0.1394E+03  0.9811E+02
      2.510  0.1510E+03  0.1060E+03
      2.563  0.1696E+03  0.1148E+03
      2.615  0.1867E+03  0.1245E+03
      2.667  0.1975E+03  0.1348E+03
      2.719  0.2112E+03  0.1458E+03
      2.771  0.2275E+03  0.1577E+03
      2.823  0.2297E+03  0.1696E+03
      2.875  0.2238E+03  0.1813E+03
      2.927  0.2322E+03  0.1934E+03
      2.979  0.2502E+03  0.2064E+03
      3.031  0.2593E+03  0.2199E+03
      3.083  0.2601E+03  0.2335E+03
      3.136  0.2612E+03  0.2471E+03
      3.188  0.2660E+03  0.2609E+03
      3.240  0.2772E+03  0.2754E+03
      3.292  0.2941E+03  0.2907E+03
      3.344  0.3139E+03  0.3070E+03
      3.396  0.3280E+03  0.3241E+03
      3.448  0.3306E+03  0.3413E+03
      3.500  0.3257E+03  0.3583E+03
      3.552  0.3197E+03  0.3750E+03
      3.604  0.3179E+03  0.3915E+03
      3.656  0.3150E+03  0.4079E+03
      3.708  0.3087E+03  0.4240E+03
      3.761  0.3035E+03  0.4398E+03
      3.813  0.2994E+03  0.4554E+03
      3.865  0.2952E+03  0.4708E+03
      3.917  0.2922E+03  0.4860E+03
      3.969  0.2849E+03  0.5008E+03
      4.021  0.2711E+03  0.5150E+03
      4.073  0.2676E+03  0.5289E+03
      4.125  0.2830E+03  0.5436E+03
      4.177  0.2991E+03  0.5592E+03
      4.229  0.3036E+03  0.5750E+03
      4.281  0.3073E+03  0.5910E+03
      4.333  0.3152E+03  0.6074E+03
      4.386  0.3198E+03  0.6241E+03
      4.438  0.3223E+03  0.6409E+03
      4.490  0.3238E+03  0.6578E+03
      4.542  0.3172E+03  0.6743E+03
      4.594  0.3039E+03  0.6901E+03
      4.646  0.2944E+03  0.7054E+03
      4.698  0.2948E+03  0.7208E+03
      4.750  0.3011E+03  0.7365E+03
      4.802  0.3102E+03  0.7526E+03
      4.854  0.3242E+03  0.7695E+03
      4.906  0.3350E+03  0.7870E+03
      4.958  0.3402E+03  0.8047E+03
      5.011  0.3510E+03  0.8230E+03
      5.063  0.3628E+03  0.8419E+03
      5.115  0.3659E+03  0.8609E+03
      5.167  0.3612E+03  0.8797E+03
      5.219  0.3471E+03  0.8978E+03
      5.271  0.3207E+03  0.9145E+03
      5.323  0.2836E+03  0.9293E+03
      5.375  0.2404E+03  0.9418E+03
      5.427  0.2000E+03  0.9522E+03
      5.479  0.1754E+03  0.9614E+03
      5.531  0.1774E+03  0.9706E+03
      5.583  0.2061E+03  0.9813E+03
      5.636  0.2506E+03  0.9944E+03
      5.688  0.3010E+03  0.1010E+04
      5.740  0.3484E+03  0.1028E+04
      5.792  0.3836E+03  0.1048E+04
      5.844  0.4042E+03  0.1069E+04
      5.896  0.4153E+03  0.1091E+04
      5.948  0.4223E+03  0.1113E+04
      6.000  0.4276E+03  0.1135E+04
      6.052  0.4240E+03  0.1157E+04
      6.104  0.4041E+03  0.1178E+04
      6.156  0.3802E+03  0.1198E+04
      6.209  0.3653E+03  0.1217E+04
      6.261  0.3576E+03  0.1236E+04
      6.313  0.3547E+03  0.1254E+04
      6.365  0.3623E+03  0.1273E+04
      6.417  0.3775E+03  0.1293E+04
      6.469  0.3839E+03  0.1313E+04
      6.521  0.3865E+03  0.1333E+04
      6.573  0.4012E+03  0.1354E+04
      6.625  0.4191E+03  0.1376E+04
      6.677  0.4274E+03  0.1398E+04
      6.729  0.4274E+03  0.1420E+04
      6.781  0.4196E+03  0.1442E+04
      6.834  0.4016E+03  0.1463E+04
      6.886  0.3801E+03  0.1483E+04
      6.938  0.3682E+03  0.1502E+04
      6.990  0.3646E+03  0.1521E+04
      7.042  0.3641E+03  0.1540E+04
      7.094  0.3801E+03  0.1560E+04
      7.146  0.4071E+03  0.1581E+04
      7.198  0.4209E+03  0.1603E+04
      7.250  0.4228E+03  0.1625E+04
      7.302  0.4187E+03  0.1647E+04
      7.354  0.3994E+03  0.1667E+04
      7.406  0.3692E+03  0.1687E+04
      7.459  0.3456E+03  0.1705E+04
      7.511  0.3343E+03  0.1722E+04
      7.563  0.3304E+03  0.1739E+04
      7.615  0.3228E+03  0.1756E+04
      7.667  0.3040E+03  0.1772E+04
      7.719  0.2830E+03  0.1787E+04
      7.771  0.2710E+03  0.1801E+04
      7.823  0.2653E+03  0.1815E+04
      7.875  0.2600E+03  0.1828E+04
      7.927  0.2515E+03  0.1841E+04
      7.979  0.2437E+03  0.1854E+04
      8.031  0.2430E+03  0.1867E+04
      8.084  0.2416E+03  0.1879E+04
      8.136  0.2338E+03  0.1891E+04
      8.188  0.2288E+03  0.1903E+04
      8.240  0.2316E+03  0.1915E+04
      8.292  0.2368E+03  0.1928E+04
      8.344  0.2391E+03  0.1940E+04
      8.396  0.2381E+03  0.1952E+04
      8.448  0.2318E+03  0.1965E+04
      8.500  0.2213E+03  0.1976E+04
      8.552  0.2135E+03  0.1987E+04
      8.604  0.2087E+03  0.1998E+04
      8.656  0.2021E+03  0.2009E+04
      8.709  0.1940E+03  0.2019E+04
      8.761  0.1854E+03  0.2028E+04
      8.813  0.1797E+03  0.2038E+04
      8.865  0.1840E+03  0.2047E+04
      8.917  0.2052E+03  0.2058E+04
      8.969  0.2310E+03  0.2070E+04
      9.021  0.2381E+03  0.2082E+04
      9.073  0.2276E+03  0.2094E+04
      9.125  0.2113E+03  0.2105E+04
      9.177  0.1918E+03  0.2115E+04
      9.229  0.1788E+03  0.2125E+04
      9.281  0.1904E+03  0.2134E+04
      9.334  0.2212E+03  0.2146E+04
      9.386  0.2414E+03  0.2159E+04
      9.438  0.2432E+03  0.2171E+04
      9.490  0.2444E+03  0.2184E+04
      9.542  0.2451E+03  0.2197E+04
      9.594  0.2441E+03  0.2209E+04
      9.646  0.2655E+03  0.2223E+04
      9.698  0.3090E+03  0.2239E+04
      9.750  0.3347E+03  0.2257E+04
      9.802  0.3292E+03  0.2274E+04
      9.854  0.3178E+03  0.2291E+04
      9.907  0.3150E+03  0.2307E+04
      9.959  0.3195E+03  0.2324E+04
     10.011  0.3372E+03  0.2341E+04
     10.063  0.3722E+03  0.2361E+04
     10.115  0.4079E+03  0.2382E+04
     10.167  0.4266E+03  0.2404E+04
     10.219  0.4345E+03  0.2427E+04
     10.271  0.4459E+03  0.2450E+04
     10.323  0.4646E+03  0.2474E+04
     10.375  0.4875E+03  0.2499E+04
     10.427  0.5090E+03  0.2526E+04
     10.479  0.5174E+03  0.2553E+04
     10.532  0.4921E+03  0.2579E+04
     10.584  0.4287E+03  0.2601E+04
     10.636  0.3401E+03  0.2619E+04
     10.688  0.2296E+03  0.2631E+04
     10.740  0.1123E+03  0.2636E+04
     10.792  0.2814E+02  0.2638E+04
     10.844 -0.3964E+01  0.2638E+04
     10.896 -0.5505E+01  0.2637E+04
     10.948 -0.1804E+01  0.2637E+04
     11.000 -0.3018E+00  0.2637E+04
     11.052 -0.2869E-01  0.2637E+04
     11.104 -0.1608E-02  0.2637E+04
     11.157 -0.5406E-04  0.2637E+04
     11.209 -0.1100E-05  0.2637E+04
     11.261 -0.1361E-07  0.2637E+04
     11.313 -0.1020E-09  0.2637E+04
     11.365 -0.4601E-12  0.2637E+04
     11.417 -0.7291E-13  0.2637E+04
     11.469 -0.1780E-10  0.2637E+04
     11.521 -0.2545E-08  0.2637E+04
     11.573 -0.2096E-06  0.2637E+04
     11.625 -0.9902E-05  0.2637E+04
     11.677 -0.2660E-03  0.2637E+04
     11.729 -0.3996E-02  0.2637E+04
     11.782 -0.3221E-01  0.2637E+04
     11.834 -0.1231E+00  0.2637E+04
     11.886 -0.9239E-01  0.2637E+04
     11.938  0.7893E+00  0.2637E+04
     11.990  0.2566E+01  0.2637E+04
     12.042  0.3375E+01  0.2638E+04
     12.094  0.2813E+01  0.2638E+04
     12.146  0.2598E+01  0.2638E+04
     12.198  0.2251E+01  0.2638E+04
     12.250  0.1469E+01  0.2638E+04
     12.302  0.1558E+01  0.2638E+04
     12.354  0.1830E+01  0.2638E+04
     12.407  0.1520E+01  0.2638E+04
     12.459  0.1816E+01  0.2638E+04
     12.511  0.2956E+01  0.2639E+04
     12.563  0.3606E+01  0.2639E+04
     12.615  0.2792E+01  0.2639E+04
     12.667  0.1631E+01  0.2639E+04
     12.719  0.1935E+01  0.2639E+04
     12.771  0.2823E+01  0.2639E+04
     12.823  0.2550E+01  0.2639E+04
     12.875  0.1929E+01  0.2639E+04
     12.927  0.1851E+01  0.2640E+04
     12.980  0.1445E+01  0.2640E+04
     13.032  0.7880E+00  0.2640E+04
     13.084  0.7028E+00  0.2640E+04
     13.136  0.1009E+01  0.2640E+04
     13.188  0.1169E+01  0.2640E+04
     13.240  0.1086E+01  0.2640E+04
     13.292  0.9723E+00  0.2640E+04
     13.344  0.9554E+00  0.2640E+04
     13.396  0.6818E+00  0.2640E+04
     13.448  0.1954E+00  0.2640E+04
     13.500 -0.3530E-01  0.2640E+04
     13.552 -0.3427E-01  0.2640E+04
     13.605 -0.7987E-02  0.2640E+04
     13.657 -0.8756E-03  0.2640E+04
     13.709 -0.5067E-04  0.2640E+04
     13.761 -0.1614E-05  0.2640E+04
     13.813 -0.2889E-07  0.2640E+04
     13.865 -0.2935E-09  0.2640E+04
     13.917 -0.1704E-11  0.2640E+04
     13.969 -0.5684E-14  0.2640E+04
     14.021  0.0000E+00  0.2640E+04
     14.073  0.0000E+00  0.2640E+04
     14.125  0.0000E+00  0.2640E+04
     14.177  0.0000E+00  0.2640E+04
     14.230  0.0000E+00  0.2640E+04
     14.282  0.0000E+00  0.2640E+04
     14.334  0.0000E+00  0.2640E+04
