  96  96   0   0
  0.1460328E+02  0.1100386E-08  0.1100386E-08  0.1336923E-08  0.5000000E-15
  1.000000000000000E-004
  CAR 
 Ir_Ru                                   
     19.32547855     -1.85305990  301      9.98060243      1.00000000
     -1.853  0.0000E+00  0.0000E+00
     -1.782  0.0000E+00  0.0000E+00
     -1.712 -0.6382E-32 -0.4506E-33
     -1.641 -0.6567E-27 -0.4636E-28
     -1.571 -0.2474E-22 -0.1746E-23
     -1.500 -0.3406E-18 -0.2405E-19
     -1.429 -0.1663E-14 -0.1174E-15
     -1.359 -0.3003E-11 -0.2121E-12
     -1.288 -0.1958E-08 -0.1385E-09
     -1.218 -0.4559E-06 -0.3232E-07
     -1.147 -0.3737E-04 -0.2671E-05
     -1.077 -0.1058E-02 -0.7738E-04
     -1.006 -0.1017E-01 -0.7956E-03
     -0.935 -0.3052E-01 -0.2950E-02
     -0.865  0.5297E-01  0.7893E-03
     -0.794  0.6920E+00  0.4964E-01
     -0.724  0.1948E+01  0.1871E+00
     -0.653  0.2313E+01  0.3504E+00
     -0.582  0.1684E+01  0.4693E+00
     -0.512  0.3281E+01  0.7009E+00
     -0.441  0.5567E+01  0.1094E+01
     -0.371  0.3839E+01  0.1365E+01
     -0.300  0.1669E+01  0.1483E+01
     -0.229  0.3537E+01  0.1732E+01
     -0.159  0.7123E+01  0.2235E+01
     -0.088  0.7133E+01  0.2739E+01
     -0.018  0.3782E+01  0.3006E+01
      0.053  0.5341E+01  0.3383E+01
      0.124  0.7245E+01  0.3894E+01
      0.194  0.4578E+01  0.4218E+01
      0.265  0.5019E+01  0.4572E+01
      0.335  0.8071E+01  0.5142E+01
      0.406  0.9759E+01  0.5830E+01
      0.477  0.7435E+01  0.6355E+01
      0.547  0.8598E+01  0.6962E+01
      0.618  0.1105E+02  0.7742E+01
      0.688  0.4710E+01  0.8075E+01
      0.759  0.1810E+01  0.8202E+01
      0.830  0.9953E+01  0.8905E+01
      0.900  0.1665E+02  0.1008E+02
      0.971  0.1309E+02  0.1100E+02
      1.041  0.1068E+02  0.1176E+02
      1.112  0.1012E+02  0.1247E+02
      1.183  0.8668E+01  0.1308E+02
      1.253  0.7657E+01  0.1362E+02
      1.324  0.1033E+02  0.1435E+02
      1.394  0.1583E+02  0.1547E+02
      1.465  0.1797E+02  0.1674E+02
      1.536  0.1339E+02  0.1768E+02
      1.606  0.1443E+02  0.1870E+02
      1.677  0.1632E+02  0.1986E+02
      1.747  0.1549E+02  0.2095E+02
      1.818  0.1855E+02  0.2226E+02
      1.888  0.1983E+02  0.2366E+02
      1.959  0.1523E+02  0.2473E+02
      2.030  0.1162E+02  0.2555E+02
      2.100  0.2317E+02  0.2719E+02
      2.171  0.4214E+02  0.3016E+02
      2.241  0.5021E+02  0.3371E+02
      2.312  0.5868E+02  0.3785E+02
      2.383  0.6604E+02  0.4251E+02
      2.453  0.6898E+02  0.4738E+02
      2.524  0.8465E+02  0.5336E+02
      2.594  0.7783E+02  0.5885E+02
      2.665  0.7213E+02  0.6395E+02
      2.736  0.8794E+02  0.7015E+02
      2.806  0.9804E+02  0.7707E+02
      2.877  0.9536E+02  0.8381E+02
      2.947  0.8020E+02  0.8947E+02
      3.018  0.7930E+02  0.9507E+02
      3.089  0.1090E+03  0.1028E+03
      3.159  0.1332E+03  0.1122E+03
      3.230  0.1074E+03  0.1197E+03
      3.300  0.8173E+02  0.1255E+03
      3.371  0.9512E+02  0.1322E+03
      3.442  0.1348E+03  0.1417E+03
      3.512  0.1427E+03  0.1518E+03
      3.583  0.1143E+03  0.1599E+03
      3.653  0.9496E+02  0.1666E+03
      3.724  0.8206E+02  0.1724E+03
      3.795  0.9267E+02  0.1789E+03
      3.865  0.1009E+03  0.1861E+03
      3.936  0.8390E+02  0.1920E+03
      4.006  0.5929E+02  0.1962E+03
      4.077  0.7652E+02  0.2016E+03
      4.148  0.1296E+03  0.2107E+03
      4.218  0.1540E+03  0.2216E+03
      4.289  0.1306E+03  0.2308E+03
      4.359  0.1110E+03  0.2386E+03
      4.430  0.1002E+03  0.2457E+03
      4.501  0.9925E+02  0.2527E+03
      4.571  0.1033E+03  0.2600E+03
      4.642  0.1016E+03  0.2672E+03
      4.712  0.1054E+03  0.2746E+03
      4.783  0.1076E+03  0.2822E+03
      4.853  0.1203E+03  0.2907E+03
      4.924  0.1368E+03  0.3004E+03
      4.995  0.1422E+03  0.3104E+03
      5.065  0.1557E+03  0.3214E+03
      5.136  0.1467E+03  0.3318E+03
      5.206  0.1148E+03  0.3399E+03
      5.277  0.1061E+03  0.3474E+03
      5.348  0.9381E+02  0.3540E+03
      5.418  0.6760E+02  0.3588E+03
      5.489  0.5223E+02  0.3624E+03
      5.559  0.5050E+02  0.3660E+03
      5.630  0.6908E+02  0.3709E+03
      5.701  0.9887E+02  0.3779E+03
      5.771  0.1319E+03  0.3872E+03
      5.842  0.1714E+03  0.3993E+03
      5.912  0.1723E+03  0.4114E+03
      5.983  0.1756E+03  0.4238E+03
      6.054  0.1715E+03  0.4359E+03
      6.124  0.1384E+03  0.4457E+03
      6.195  0.1376E+03  0.4554E+03
      6.265  0.1647E+03  0.4671E+03
      6.336  0.1614E+03  0.4784E+03
      6.407  0.1311E+03  0.4877E+03
      6.477  0.1281E+03  0.4967E+03
      6.548  0.1433E+03  0.5069E+03
      6.618  0.1469E+03  0.5172E+03
      6.689  0.1434E+03  0.5274E+03
      6.760  0.1637E+03  0.5389E+03
      6.830  0.1765E+03  0.5514E+03
      6.901  0.1480E+03  0.5618E+03
      6.971  0.1410E+03  0.5718E+03
      7.042  0.1558E+03  0.5828E+03
      7.113  0.1702E+03  0.5948E+03
      7.183  0.1667E+03  0.6066E+03
      7.254  0.1532E+03  0.6174E+03
      7.324  0.1415E+03  0.6274E+03
      7.395  0.1286E+03  0.6364E+03
      7.465  0.1159E+03  0.6446E+03
      7.536  0.1213E+03  0.6532E+03
      7.607  0.1157E+03  0.6613E+03
      7.677  0.9278E+02  0.6679E+03
      7.748  0.8562E+02  0.6739E+03
      7.818  0.8289E+02  0.6798E+03
      7.889  0.8661E+02  0.6859E+03
      7.960  0.9883E+02  0.6929E+03
      8.030  0.1137E+03  0.7009E+03
      8.101  0.9736E+02  0.7078E+03
      8.171  0.6181E+02  0.7121E+03
      8.242  0.5872E+02  0.7163E+03
      8.313  0.7885E+02  0.7219E+03
      8.383  0.9205E+02  0.7284E+03
      8.454  0.9607E+02  0.7351E+03
      8.524  0.9046E+02  0.7415E+03
      8.595  0.7300E+02  0.7467E+03
      8.666  0.7169E+02  0.7517E+03
      8.736  0.5779E+02  0.7558E+03
      8.807  0.5408E+02  0.7596E+03
      8.877  0.6547E+02  0.7643E+03
      8.948  0.7765E+02  0.7697E+03
      9.019  0.9404E+02  0.7764E+03
      9.089  0.1008E+03  0.7835E+03
      9.160  0.8624E+02  0.7896E+03
      9.230  0.6268E+02  0.7940E+03
      9.301  0.5396E+02  0.7978E+03
      9.372  0.5523E+02  0.8017E+03
      9.442  0.6752E+02  0.8065E+03
      9.513  0.7747E+02  0.8120E+03
      9.583  0.1025E+03  0.8192E+03
      9.654  0.1218E+03  0.8278E+03
      9.725  0.9902E+02  0.8348E+03
      9.795  0.1085E+03  0.8424E+03
      9.866  0.1328E+03  0.8518E+03
      9.936  0.1137E+03  0.8598E+03
     10.007  0.9352E+02  0.8664E+03
     10.078  0.1034E+03  0.8737E+03
     10.148  0.1171E+03  0.8820E+03
     10.219  0.1386E+03  0.8918E+03
     10.289  0.1619E+03  0.9032E+03
     10.360  0.1660E+03  0.9149E+03
     10.430  0.1564E+03  0.9260E+03
     10.501  0.1570E+03  0.9371E+03
     10.572  0.1978E+03  0.9510E+03
     10.642  0.2122E+03  0.9660E+03
     10.713  0.1696E+03  0.9780E+03
     10.783  0.1535E+03  0.9888E+03
     10.854  0.1406E+03  0.9987E+03
     10.925  0.1355E+03  0.1008E+04
     10.995  0.1040E+03  0.1016E+04
     11.066  0.5898E+02  0.1020E+04
     11.136  0.3087E+02  0.1022E+04
     11.207  0.2629E+02  0.1024E+04
     11.278  0.3464E+02  0.1026E+04
     11.348  0.2318E+02  0.1028E+04
     11.419  0.9419E+01  0.1029E+04
     11.489  0.1204E+02  0.1029E+04
     11.560  0.3254E+02  0.1032E+04
     11.631  0.4889E+02  0.1035E+04
     11.701  0.3833E+02  0.1038E+04
     11.772  0.2855E+02  0.1040E+04
     11.842  0.2444E+02  0.1042E+04
     11.913  0.2723E+02  0.1044E+04
     11.984  0.2976E+02  0.1046E+04
     12.054  0.2543E+02  0.1047E+04
     12.125  0.2162E+02  0.1049E+04
     12.195  0.2113E+02  0.1050E+04
     12.266  0.2209E+02  0.1052E+04
     12.337  0.1983E+02  0.1053E+04
     12.407  0.1505E+02  0.1054E+04
     12.478  0.2971E+02  0.1057E+04
     12.548  0.4526E+02  0.1060E+04
     12.619  0.4262E+02  0.1063E+04
     12.690  0.3020E+02  0.1065E+04
     12.760  0.2312E+02  0.1067E+04
     12.831  0.2184E+02  0.1068E+04
     12.901  0.1877E+02  0.1069E+04
     12.972  0.1602E+02  0.1071E+04
     13.043  0.2212E+02  0.1072E+04
     13.113  0.2816E+02  0.1074E+04
     13.184  0.2098E+02  0.1076E+04
     13.254  0.2629E+02  0.1077E+04
     13.325  0.3410E+02  0.1080E+04
     13.395  0.2677E+02  0.1082E+04
     13.466  0.2098E+02  0.1083E+04
     13.537  0.2207E+02  0.1085E+04
     13.607  0.2720E+02  0.1087E+04
     13.678  0.2442E+02  0.1088E+04
     13.748  0.1450E+02  0.1089E+04
     13.819  0.1419E+02  0.1090E+04
     13.890  0.2346E+02  0.1092E+04
     13.960  0.2637E+02  0.1094E+04
     14.031  0.2449E+02  0.1096E+04
     14.101  0.2579E+02  0.1098E+04
     14.172  0.3185E+02  0.1100E+04
     14.243  0.2692E+02  0.1102E+04
     14.313  0.1489E+02  0.1103E+04
     14.384  0.2037E+02  0.1104E+04
     14.454  0.3130E+02  0.1106E+04
     14.525  0.2400E+02  0.1108E+04
     14.596  0.2126E+02  0.1110E+04
     14.666  0.2617E+02  0.1111E+04
     14.737  0.3379E+02  0.1114E+04
     14.807  0.4102E+02  0.1117E+04
     14.878  0.2749E+02  0.1119E+04
     14.949  0.1812E+02  0.1120E+04
     15.019  0.1699E+02  0.1121E+04
     15.090  0.8674E+01  0.1122E+04
     15.160  0.7428E+01  0.1122E+04
     15.231  0.2955E+02  0.1124E+04
     15.302  0.4772E+02  0.1128E+04
     15.372  0.3914E+02  0.1130E+04
     15.443  0.1805E+02  0.1132E+04
     15.513  0.2845E+01  0.1132E+04
     15.584  0.2194E+01  0.1132E+04
     15.655  0.1189E+02  0.1133E+04
     15.725  0.1729E+02  0.1134E+04
     15.796  0.1492E+02  0.1135E+04
     15.866  0.2021E+02  0.1137E+04
     15.937  0.2282E+02  0.1138E+04
     16.008  0.1572E+02  0.1139E+04
     16.078  0.1374E+02  0.1140E+04
     16.149  0.1400E+02  0.1141E+04
     16.219  0.1019E+02  0.1142E+04
     16.290  0.6897E+01  0.1143E+04
     16.360  0.1054E+02  0.1143E+04
     16.431  0.1297E+02  0.1144E+04
     16.502  0.9363E+01  0.1145E+04
     16.572  0.1166E+02  0.1146E+04
     16.643  0.1546E+02  0.1147E+04
     16.713  0.1380E+02  0.1148E+04
     16.784  0.9286E+01  0.1148E+04
     16.855  0.6900E+01  0.1149E+04
     16.925  0.4979E+01  0.1149E+04
     16.996  0.3221E+01  0.1149E+04
     17.066  0.3425E+01  0.1150E+04
     17.137  0.2647E+01  0.1150E+04
     17.208  0.1143E+01  0.1150E+04
     17.278  0.2007E+01  0.1150E+04
     17.349  0.3337E+01  0.1150E+04
     17.419  0.4055E+01  0.1151E+04
     17.490  0.4382E+01  0.1151E+04
     17.561  0.3406E+01  0.1151E+04
     17.631  0.2365E+01  0.1151E+04
     17.702  0.2121E+01  0.1151E+04
     17.772  0.1494E+01  0.1152E+04
     17.843  0.1107E+01  0.1152E+04
     17.914  0.6223E+00  0.1152E+04
     17.984  0.1455E-01  0.1152E+04
     18.055  0.6936E+00  0.1152E+04
     18.125  0.1559E+01  0.1152E+04
     18.196  0.6681E+00  0.1152E+04
     18.267  0.1931E+00  0.1152E+04
     18.337  0.5644E+00  0.1152E+04
     18.408  0.3373E+00  0.1152E+04
     18.478  0.5239E-02  0.1152E+04
     18.549 -0.1969E-01  0.1152E+04
     18.620 -0.2415E-02  0.1152E+04
     18.690 -0.8432E-04  0.1152E+04
     18.761 -0.9948E-06  0.1152E+04
     18.831 -0.4152E-08  0.1152E+04
     18.902 -0.6240E-11  0.1152E+04
     18.973 -0.3397E-14  0.1152E+04
     19.043  0.0000E+00  0.1152E+04
     19.114  0.0000E+00  0.1152E+04
     19.184  0.0000E+00  0.1152E+04
     19.255  0.0000E+00  0.1152E+04
     19.325  0.0000E+00  0.1152E+04
