  80  80   0   0
  0.1382907E+02  0.1077873E-08  0.1077910E-08  0.1110501E-08  0.5000000E-15
  1.000000000000000E-004
  CAR 
 Ir_Ru                                   
     11.81022909     -0.14453691  301      8.60589691      1.00000000
     -0.145  0.0000E+00  0.0000E+00
     -0.105  0.0000E+00  0.0000E+00
     -0.065  0.0000E+00  0.0000E+00
     -0.025  0.0000E+00  0.0000E+00
      0.015  0.0000E+00  0.0000E+00
      0.055 -0.1289E-27 -0.5138E-29
      0.095 -0.6165E-25 -0.2462E-26
      0.134 -0.2143E-22 -0.8563E-24
      0.174 -0.5402E-20 -0.2161E-21
      0.214 -0.9877E-18 -0.3958E-19
      0.254 -0.1309E-15 -0.5255E-17
      0.294 -0.1216E-13 -0.4897E-15
      0.334 -0.8403E-12 -0.3397E-13
      0.374 -0.4189E-10 -0.1703E-11
      0.413 -0.1504E-08 -0.6166E-10
      0.453 -0.3883E-07 -0.1609E-08
      0.493 -0.7182E-06 -0.3023E-07
      0.533 -0.9482E-05 -0.4081E-06
      0.573 -0.8897E-04 -0.3953E-05
      0.613 -0.5910E-03 -0.2750E-04
      0.652 -0.2775E-02 -0.1381E-03
      0.692 -0.9257E-02 -0.5070E-03
      0.732 -0.2210E-01 -0.1388E-02
      0.772 -0.3565E-01 -0.2808E-02
      0.812 -0.1555E-01 -0.3428E-02
      0.852  0.1401E+00  0.2155E-02
      0.892  0.5638E+00  0.2462E-01
      0.931  0.1191E+01  0.7206E-01
      0.971  0.1653E+01  0.1379E+00
      1.011  0.1719E+01  0.2064E+00
      1.051  0.1678E+01  0.2733E+00
      1.091  0.1944E+01  0.3508E+00
      1.131  0.2544E+01  0.4521E+00
      1.170  0.3214E+01  0.5802E+00
      1.210  0.3639E+01  0.7252E+00
      1.250  0.3576E+01  0.8677E+00
      1.290  0.3118E+01  0.9920E+00
      1.330  0.2768E+01  0.1102E+01
      1.370  0.2928E+01  0.1219E+01
      1.410  0.3451E+01  0.1356E+01
      1.449  0.4053E+01  0.1518E+01
      1.489  0.4798E+01  0.1709E+01
      1.529  0.5536E+01  0.1930E+01
      1.569  0.5521E+01  0.2150E+01
      1.609  0.4610E+01  0.2333E+01
      1.649  0.4008E+01  0.2493E+01
      1.689  0.4718E+01  0.2681E+01
      1.728  0.5946E+01  0.2918E+01
      1.768  0.6126E+01  0.3162E+01
      1.808  0.5153E+01  0.3368E+01
      1.848  0.4426E+01  0.3544E+01
      1.888  0.4832E+01  0.3737E+01
      1.928  0.6077E+01  0.3979E+01
      1.967  0.7541E+01  0.4279E+01
      2.007  0.8503E+01  0.4618E+01
      2.047  0.8413E+01  0.4953E+01
      2.087  0.7708E+01  0.5260E+01
      2.127  0.7354E+01  0.5553E+01
      2.167  0.7569E+01  0.5855E+01
      2.207  0.7753E+01  0.6164E+01
      2.246  0.7263E+01  0.6453E+01
      2.286  0.6186E+01  0.6700E+01
      2.326  0.5809E+01  0.6931E+01
      2.366  0.7786E+01  0.7242E+01
      2.406  0.1220E+02  0.7728E+01
      2.446  0.1709E+02  0.8409E+01
      2.486  0.2039E+02  0.9222E+01
      2.525  0.2192E+02  0.1010E+02
      2.565  0.2297E+02  0.1101E+02
      2.605  0.2435E+02  0.1198E+02
      2.645  0.2557E+02  0.1300E+02
      2.685  0.2704E+02  0.1408E+02
      2.725  0.3105E+02  0.1531E+02
      2.764  0.3917E+02  0.1688E+02
      2.804  0.5033E+02  0.1888E+02
      2.844  0.6184E+02  0.2135E+02
      2.884  0.7106E+02  0.2418E+02
      2.924  0.7696E+02  0.2724E+02
      2.964  0.8113E+02  0.3048E+02
      3.004  0.8650E+02  0.3392E+02
      3.043  0.9352E+02  0.3765E+02
      3.083  0.9874E+02  0.4159E+02
      3.123  0.9932E+02  0.4554E+02
      3.163  0.9829E+02  0.4946E+02
      3.203  0.1015E+03  0.5350E+02
      3.243  0.1096E+03  0.5787E+02
      3.282  0.1181E+03  0.6258E+02
      3.322  0.1240E+03  0.6752E+02
      3.362  0.1288E+03  0.7265E+02
      3.402  0.1349E+03  0.7802E+02
      3.442  0.1422E+03  0.8369E+02
      3.482  0.1502E+03  0.8968E+02
      3.522  0.1594E+03  0.9603E+02
      3.561  0.1664E+03  0.1027E+03
      3.601  0.1646E+03  0.1092E+03
      3.641  0.1529E+03  0.1153E+03
      3.681  0.1390E+03  0.1208E+03
      3.721  0.1307E+03  0.1261E+03
      3.761  0.1289E+03  0.1312E+03
      3.801  0.1299E+03  0.1364E+03
      3.840  0.1301E+03  0.1415E+03
      3.880  0.1276E+03  0.1466E+03
      3.920  0.1228E+03  0.1515E+03
      3.960  0.1172E+03  0.1562E+03
      4.000  0.1120E+03  0.1607E+03
      4.040  0.1070E+03  0.1649E+03
      4.079  0.1028E+03  0.1690E+03
      4.119  0.1006E+03  0.1730E+03
      4.159  0.1000E+03  0.1770E+03
      4.199  0.9821E+02  0.1809E+03
      4.239  0.9405E+02  0.1847E+03
      4.279  0.8903E+02  0.1882E+03
      4.319  0.8425E+02  0.1916E+03
      4.358  0.7934E+02  0.1947E+03
      4.398  0.7507E+02  0.1977E+03
      4.438  0.7393E+02  0.2007E+03
      4.478  0.7759E+02  0.2038E+03
      4.518  0.8460E+02  0.2071E+03
      4.558  0.9127E+02  0.2108E+03
      4.598  0.9505E+02  0.2146E+03
      4.637  0.9589E+02  0.2184E+03
      4.677  0.9503E+02  0.2222E+03
      4.717  0.9443E+02  0.2259E+03
      4.757  0.9679E+02  0.2298E+03
      4.797  0.1025E+03  0.2339E+03
      4.837  0.1068E+03  0.2381E+03
      4.876  0.1045E+03  0.2423E+03
      4.916  0.9649E+02  0.2461E+03
      4.956  0.8858E+02  0.2497E+03
      4.996  0.8399E+02  0.2530E+03
      5.036  0.8330E+02  0.2563E+03
      5.076  0.8764E+02  0.2598E+03
      5.116  0.9553E+02  0.2636E+03
      5.155  0.9998E+02  0.2676E+03
      5.195  0.9608E+02  0.2714E+03
      5.235  0.8823E+02  0.2750E+03
      5.275  0.8437E+02  0.2783E+03
      5.315  0.8610E+02  0.2818E+03
      5.355  0.8876E+02  0.2853E+03
      5.395  0.8888E+02  0.2888E+03
      5.434  0.8822E+02  0.2924E+03
      5.474  0.9005E+02  0.2959E+03
      5.514  0.9354E+02  0.2997E+03
      5.554  0.9498E+02  0.3035E+03
      5.594  0.9469E+02  0.3072E+03
      5.634  0.9734E+02  0.3111E+03
      5.673  0.1037E+03  0.3152E+03
      5.713  0.1083E+03  0.3196E+03
      5.753  0.1073E+03  0.3238E+03
      5.793  0.1033E+03  0.3279E+03
      5.833  0.9947E+02  0.3319E+03
      5.873  0.9688E+02  0.3358E+03
      5.913  0.9637E+02  0.3396E+03
      5.952  0.1001E+03  0.3436E+03
      5.992  0.1088E+03  0.3479E+03
      6.032  0.1196E+03  0.3527E+03
      6.072  0.1280E+03  0.3578E+03
      6.112  0.1319E+03  0.3631E+03
      6.152  0.1326E+03  0.3683E+03
      6.191  0.1336E+03  0.3737E+03
      6.231  0.1378E+03  0.3791E+03
      6.271  0.1430E+03  0.3848E+03
      6.311  0.1457E+03  0.3907E+03
      6.351  0.1484E+03  0.3966E+03
      6.391  0.1572E+03  0.4028E+03
      6.431  0.1728E+03  0.4097E+03
      6.470  0.1893E+03  0.4173E+03
      6.510  0.1990E+03  0.4252E+03
      6.550  0.1941E+03  0.4329E+03
      6.590  0.1734E+03  0.4398E+03
      6.630  0.1483E+03  0.4457E+03
      6.670  0.1328E+03  0.4510E+03
      6.710  0.1278E+03  0.4561E+03
      6.749  0.1232E+03  0.4610E+03
      6.789  0.1121E+03  0.4655E+03
      6.829  0.9725E+02  0.4694E+03
      6.869  0.8767E+02  0.4729E+03
      6.909  0.8961E+02  0.4764E+03
      6.949  0.1004E+03  0.4804E+03
      6.988  0.1107E+03  0.4849E+03
      7.028  0.1121E+03  0.4893E+03
      7.068  0.1035E+03  0.4935E+03
      7.108  0.9051E+02  0.4971E+03
      7.148  0.8003E+02  0.5002E+03
      7.188  0.7701E+02  0.5033E+03
      7.228  0.8205E+02  0.5066E+03
      7.267  0.9008E+02  0.5102E+03
      7.307  0.9471E+02  0.5140E+03
      7.347  0.9362E+02  0.5177E+03
      7.387  0.8870E+02  0.5212E+03
      7.427  0.8374E+02  0.5246E+03
      7.467  0.8227E+02  0.5278E+03
      7.507  0.8367E+02  0.5312E+03
      7.546  0.8308E+02  0.5345E+03
      7.586  0.7911E+02  0.5376E+03
      7.626  0.7745E+02  0.5407E+03
      7.666  0.8270E+02  0.5440E+03
      7.706  0.9193E+02  0.5477E+03
      7.746  0.9969E+02  0.5516E+03
      7.785  0.1044E+03  0.5558E+03
      7.825  0.1074E+03  0.5601E+03
      7.865  0.1094E+03  0.5644E+03
      7.905  0.1093E+03  0.5688E+03
      7.945  0.1069E+03  0.5731E+03
      7.985  0.1036E+03  0.5772E+03
      8.025  0.1025E+03  0.5813E+03
      8.064  0.1058E+03  0.5855E+03
      8.104  0.1127E+03  0.5900E+03
      8.144  0.1191E+03  0.5947E+03
      8.184  0.1197E+03  0.5995E+03
      8.224  0.1131E+03  0.6040E+03
      8.264  0.1041E+03  0.6082E+03
      8.303  0.9833E+02  0.6121E+03
      8.343  0.9610E+02  0.6159E+03
      8.383  0.9485E+02  0.6197E+03
      8.423  0.9265E+02  0.6234E+03
      8.463  0.8983E+02  0.6270E+03
      8.503  0.8833E+02  0.6305E+03
      8.543  0.8956E+02  0.6340E+03
      8.582  0.9307E+02  0.6377E+03
      8.622  0.9635E+02  0.6416E+03
      8.662  0.9579E+02  0.6454E+03
      8.702  0.8994E+02  0.6490E+03
      8.742  0.8224E+02  0.6523E+03
      8.782  0.7803E+02  0.6554E+03
      8.822  0.7852E+02  0.6585E+03
      8.861  0.8064E+02  0.6617E+03
      8.901  0.8177E+02  0.6650E+03
      8.941  0.8192E+02  0.6682E+03
      8.981  0.8216E+02  0.6715E+03
      9.021  0.8228E+02  0.6748E+03
      9.061  0.8134E+02  0.6780E+03
      9.100  0.8038E+02  0.6812E+03
      9.140  0.8113E+02  0.6845E+03
      9.180  0.8196E+02  0.6877E+03
      9.220  0.7989E+02  0.6909E+03
      9.260  0.7602E+02  0.6940E+03
      9.300  0.7438E+02  0.6969E+03
      9.340  0.7685E+02  0.7000E+03
      9.379  0.8198E+02  0.7032E+03
      9.419  0.8645E+02  0.7067E+03
      9.459  0.8696E+02  0.7102E+03
      9.499  0.8376E+02  0.7135E+03
      9.539  0.8197E+02  0.7168E+03
      9.579  0.8588E+02  0.7202E+03
      9.619  0.9168E+02  0.7238E+03
      9.658  0.9137E+02  0.7275E+03
      9.698  0.8577E+02  0.7309E+03
      9.738  0.8506E+02  0.7343E+03
      9.778  0.9322E+02  0.7380E+03
      9.818  0.1024E+03  0.7421E+03
      9.858  0.1056E+03  0.7463E+03
      9.897  0.1042E+03  0.7504E+03
      9.937  0.1031E+03  0.7545E+03
      9.977  0.1074E+03  0.7588E+03
     10.017  0.1211E+03  0.7637E+03
     10.057  0.1388E+03  0.7692E+03
     10.097  0.1474E+03  0.7751E+03
     10.137  0.1408E+03  0.7807E+03
     10.176  0.1257E+03  0.7857E+03
     10.216  0.1083E+03  0.7900E+03
     10.256  0.8867E+02  0.7935E+03
     10.296  0.6691E+02  0.7962E+03
     10.336  0.4530E+02  0.7980E+03
     10.376  0.2614E+02  0.7990E+03
     10.416  0.1176E+02  0.7995E+03
     10.455  0.3746E+01  0.7997E+03
     10.495  0.1154E+01  0.7997E+03
     10.535  0.1221E+01  0.7998E+03
     10.575  0.1657E+01  0.7998E+03
     10.615  0.1602E+01  0.7999E+03
     10.655  0.1154E+01  0.7999E+03
     10.694  0.6531E+00  0.8000E+03
     10.734  0.3192E+00  0.8000E+03
     10.774  0.2066E+00  0.8000E+03
     10.814  0.2224E+00  0.8000E+03
     10.854  0.2089E+00  0.8000E+03
     10.894  0.1175E+00  0.8000E+03
     10.934  0.2536E-01  0.8000E+03
     10.973 -0.1197E-01  0.8000E+03
     11.013 -0.1165E-01  0.8000E+03
     11.053 -0.4557E-02  0.8000E+03
     11.093 -0.1081E-02  0.8000E+03
     11.133 -0.1707E-03  0.8000E+03
     11.173 -0.1859E-04  0.8000E+03
     11.212 -0.1423E-05  0.8000E+03
     11.252 -0.7731E-07  0.8000E+03
     11.292 -0.3002E-08  0.8000E+03
     11.332 -0.8368E-10  0.8000E+03
     11.372 -0.1679E-11  0.8000E+03
     11.412 -0.2443E-13  0.8000E+03
     11.452 -0.1783E-15  0.8000E+03
     11.491  0.0000E+00  0.8000E+03
     11.531  0.0000E+00  0.8000E+03
     11.571  0.0000E+00  0.8000E+03
     11.611  0.0000E+00  0.8000E+03
     11.651  0.0000E+00  0.8000E+03
     11.691  0.0000E+00  0.8000E+03
     11.731  0.0000E+00  0.8000E+03
     11.770  0.0000E+00  0.8000E+03
     11.810  0.0000E+00  0.8000E+03
