 256 256   0   0
  0.1418917E+02  0.1588033E-08  0.1692661E-08  0.1693229E-08  0.5000000E-15
  1.000000000000000E-004
  CAR 
 Ir_Ru                                   
     14.26144416     -1.29173644  301      9.45689610      1.00000000
     -1.292  0.0000E+00  0.0000E+00
     -1.240  0.0000E+00  0.0000E+00
     -1.188  0.0000E+00  0.0000E+00
     -1.136 -0.2731E-30 -0.1416E-31
     -1.084 -0.1244E-26 -0.6449E-28
     -1.033 -0.3295E-23 -0.1709E-24
     -0.981 -0.5075E-20 -0.2633E-21
     -0.929 -0.4540E-17 -0.2356E-18
     -0.877 -0.2297E-14 -0.1193E-15
     -0.825 -0.6845E-12 -0.3560E-13
     -0.773 -0.1182E-09 -0.6164E-11
     -0.721 -0.1176E-07 -0.6157E-09
     -0.670 -0.6706E-06 -0.3538E-07
     -0.618 -0.2182E-04 -0.1167E-05
     -0.566 -0.4020E-03 -0.2201E-04
     -0.514 -0.4152E-02 -0.2373E-03
     -0.462 -0.2380E-01 -0.1471E-02
     -0.410 -0.7425E-01 -0.5321E-02
     -0.359 -0.1027E+00 -0.1064E-01
     -0.307  0.1940E+00 -0.5874E-03
     -0.255  0.1599E+01  0.8233E-01
     -0.203  0.4345E+01  0.3076E+00
     -0.151  0.6338E+01  0.6362E+00
     -0.099  0.6425E+01  0.9693E+00
     -0.047  0.6931E+01  0.1329E+01
      0.004  0.8805E+01  0.1785E+01
      0.056  0.1112E+02  0.2362E+01
      0.108  0.1355E+02  0.3064E+01
      0.160  0.1437E+02  0.3809E+01
      0.212  0.1179E+02  0.4421E+01
      0.264  0.1003E+02  0.4941E+01
      0.315  0.1406E+02  0.5669E+01
      0.367  0.2019E+02  0.6716E+01
      0.419  0.2250E+02  0.7882E+01
      0.471  0.2267E+02  0.9057E+01
      0.523  0.2347E+02  0.1027E+02
      0.575  0.2259E+02  0.1145E+02
      0.626  0.2045E+02  0.1251E+02
      0.678  0.2090E+02  0.1359E+02
      0.730  0.2049E+02  0.1465E+02
      0.782  0.1492E+02  0.1542E+02
      0.834  0.9085E+01  0.1590E+02
      0.886  0.8037E+01  0.1631E+02
      0.938  0.1158E+02  0.1691E+02
      0.989  0.1864E+02  0.1788E+02
      1.041  0.2755E+02  0.1931E+02
      1.093  0.3324E+02  0.2103E+02
      1.145  0.3315E+02  0.2275E+02
      1.197  0.2903E+02  0.2425E+02
      1.249  0.2307E+02  0.2545E+02
      1.300  0.1954E+02  0.2646E+02
      1.352  0.2150E+02  0.2758E+02
      1.404  0.2696E+02  0.2897E+02
      1.456  0.3036E+02  0.3055E+02
      1.508  0.2994E+02  0.3210E+02
      1.560  0.2933E+02  0.3362E+02
      1.612  0.3033E+02  0.3519E+02
      1.663  0.3104E+02  0.3680E+02
      1.715  0.3187E+02  0.3846E+02
      1.767  0.3481E+02  0.4026E+02
      1.819  0.3885E+02  0.4227E+02
      1.871  0.4507E+02  0.4461E+02
      1.923  0.5423E+02  0.4742E+02
      1.974  0.5935E+02  0.5050E+02
      2.026  0.5510E+02  0.5336E+02
      2.078  0.5032E+02  0.5596E+02
      2.130  0.6025E+02  0.5909E+02
      2.182  0.8515E+02  0.6350E+02
      2.234  0.1077E+03  0.6909E+02
      2.285  0.1193E+03  0.7527E+02
      2.337  0.1254E+03  0.8177E+02
      2.389  0.1311E+03  0.8857E+02
      2.441  0.1370E+03  0.9567E+02
      2.493  0.1462E+03  0.1033E+03
      2.545  0.1629E+03  0.1117E+03
      2.597  0.1816E+03  0.1211E+03
      2.648  0.1940E+03  0.1312E+03
      2.700  0.2055E+03  0.1418E+03
      2.752  0.2225E+03  0.1534E+03
      2.804  0.2309E+03  0.1653E+03
      2.856  0.2252E+03  0.1770E+03
      2.908  0.2269E+03  0.1888E+03
      2.959  0.2439E+03  0.2014E+03
      3.011  0.2577E+03  0.2148E+03
      3.063  0.2604E+03  0.2283E+03
      3.115  0.2605E+03  0.2418E+03
      3.167  0.2636E+03  0.2554E+03
      3.219  0.2720E+03  0.2695E+03
      3.271  0.2866E+03  0.2844E+03
      3.322  0.3058E+03  0.3003E+03
      3.374  0.3235E+03  0.3170E+03
      3.426  0.3307E+03  0.3342E+03
      3.478  0.3283E+03  0.3512E+03
      3.530  0.3218E+03  0.3679E+03
      3.582  0.3182E+03  0.3844E+03
      3.633  0.3168E+03  0.4008E+03
      3.685  0.3116E+03  0.4170E+03
      3.737  0.3056E+03  0.4328E+03
      3.789  0.3016E+03  0.4484E+03
      3.841  0.2972E+03  0.4638E+03
      3.893  0.2934E+03  0.4791E+03
      3.945  0.2892E+03  0.4941E+03
      3.996  0.2776E+03  0.5084E+03
      4.048  0.2669E+03  0.5223E+03
      4.100  0.2741E+03  0.5365E+03
      4.152  0.2924E+03  0.5517E+03
      4.204  0.3022E+03  0.5673E+03
      4.256  0.3046E+03  0.5831E+03
      4.307  0.3112E+03  0.5992E+03
      4.359  0.3182E+03  0.6157E+03
      4.411  0.3210E+03  0.6324E+03
      4.463  0.3235E+03  0.6491E+03
      4.515  0.3217E+03  0.6658E+03
      4.567  0.3109E+03  0.6819E+03
      4.618  0.2981E+03  0.6974E+03
      4.670  0.2934E+03  0.7126E+03
      4.722  0.2976E+03  0.7280E+03
      4.774  0.3050E+03  0.7439E+03
      4.826  0.3163E+03  0.7603E+03
      4.878  0.3302E+03  0.7774E+03
      4.930  0.3372E+03  0.7948E+03
      4.981  0.3439E+03  0.8127E+03
      5.033  0.3570E+03  0.8312E+03
      5.085  0.3654E+03  0.8501E+03
      5.137  0.3648E+03  0.8690E+03
      5.189  0.3566E+03  0.8875E+03
      5.241  0.3376E+03  0.9050E+03
      5.292  0.3065E+03  0.9209E+03
      5.344  0.2663E+03  0.9347E+03
      5.396  0.2229E+03  0.9463E+03
      5.448  0.1874E+03  0.9560E+03
      5.500  0.1726E+03  0.9649E+03
      5.552  0.1860E+03  0.9746E+03
      5.604  0.2222E+03  0.9861E+03
      5.655  0.2697E+03  0.1000E+04
      5.707  0.3201E+03  0.1017E+04
      5.759  0.3635E+03  0.1036E+04
      5.811  0.3926E+03  0.1056E+04
      5.863  0.4090E+03  0.1077E+04
      5.915  0.4184E+03  0.1099E+04
      5.966  0.4251E+03  0.1121E+04
      6.018  0.4284E+03  0.1143E+04
      6.070  0.4186E+03  0.1165E+04
      6.122  0.3950E+03  0.1185E+04
      6.174  0.3738E+03  0.1205E+04
      6.226  0.3622E+03  0.1223E+04
      6.277  0.3560E+03  0.1242E+04
      6.329  0.3557E+03  0.1260E+04
      6.381  0.3671E+03  0.1279E+04
      6.433  0.3809E+03  0.1299E+04
      6.485  0.3840E+03  0.1319E+04
      6.537  0.3897E+03  0.1339E+04
      6.589  0.4074E+03  0.1360E+04
      6.640  0.4229E+03  0.1382E+04
      6.692  0.4282E+03  0.1404E+04
      6.744  0.4260E+03  0.1426E+04
      6.796  0.4154E+03  0.1448E+04
      6.848  0.3952E+03  0.1469E+04
      6.900  0.3753E+03  0.1488E+04
      6.951  0.3670E+03  0.1507E+04
      7.003  0.3640E+03  0.1526E+04
      7.055  0.3661E+03  0.1545E+04
      7.107  0.3870E+03  0.1565E+04
      7.159  0.4125E+03  0.1586E+04
      7.211  0.4221E+03  0.1608E+04
      7.263  0.4226E+03  0.1630E+04
      7.314  0.4156E+03  0.1652E+04
      7.366  0.3925E+03  0.1672E+04
      7.418  0.3629E+03  0.1691E+04
      7.470  0.3423E+03  0.1709E+04
      7.522  0.3333E+03  0.1726E+04
      7.574  0.3297E+03  0.1743E+04
      7.625  0.3197E+03  0.1759E+04
      7.677  0.2991E+03  0.1775E+04
      7.729  0.2796E+03  0.1789E+04
      7.781  0.2697E+03  0.1803E+04
      7.833  0.2645E+03  0.1817E+04
      7.885  0.2587E+03  0.1831E+04
      7.936  0.2498E+03  0.1844E+04
      7.988  0.2432E+03  0.1856E+04
      8.040  0.2432E+03  0.1869E+04
      8.092  0.2405E+03  0.1881E+04
      8.144  0.2325E+03  0.1893E+04
      8.196  0.2287E+03  0.1905E+04
      8.248  0.2324E+03  0.1917E+04
      8.299  0.2372E+03  0.1929E+04
      8.351  0.2391E+03  0.1942E+04
      8.403  0.2378E+03  0.1954E+04
      8.455  0.2305E+03  0.1966E+04
      8.507  0.2200E+03  0.1978E+04
      8.559  0.2129E+03  0.1989E+04
      8.610  0.2081E+03  0.1999E+04
      8.662  0.2012E+03  0.2010E+04
      8.714  0.1929E+03  0.2020E+04
      8.766  0.1844E+03  0.2029E+04
      8.818  0.1795E+03  0.2039E+04
      8.870  0.1854E+03  0.2048E+04
      8.922  0.2080E+03  0.2059E+04
      8.973  0.2328E+03  0.2071E+04
      9.025  0.2376E+03  0.2083E+04
      9.077  0.2262E+03  0.2095E+04
      9.129  0.2099E+03  0.2106E+04
      9.181  0.1904E+03  0.2116E+04
      9.233  0.1785E+03  0.2125E+04
      9.284  0.1921E+03  0.2135E+04
      9.336  0.2232E+03  0.2147E+04
      9.388  0.2421E+03  0.2159E+04
      9.440  0.2430E+03  0.2172E+04
      9.492  0.2444E+03  0.2185E+04
      9.544  0.2449E+03  0.2197E+04
      9.595  0.2445E+03  0.2210E+04
      9.647  0.2668E+03  0.2224E+04
      9.699  0.3102E+03  0.2240E+04
      9.751  0.3349E+03  0.2257E+04
      9.803  0.3289E+03  0.2274E+04
      9.855  0.3178E+03  0.2291E+04
      9.907  0.3151E+03  0.2307E+04
      9.958  0.3198E+03  0.2324E+04
     10.010  0.3374E+03  0.2341E+04
     10.062  0.3720E+03  0.2360E+04
     10.114  0.4076E+03  0.2382E+04
     10.166  0.4265E+03  0.2404E+04
     10.218  0.4345E+03  0.2426E+04
     10.269  0.4455E+03  0.2449E+04
     10.321  0.4629E+03  0.2473E+04
     10.373  0.4815E+03  0.2498E+04
     10.425  0.4933E+03  0.2524E+04
     10.477  0.4898E+03  0.2549E+04
     10.529  0.4591E+03  0.2573E+04
     10.581  0.4033E+03  0.2594E+04
     10.632  0.3373E+03  0.2611E+04
     10.684  0.2595E+03  0.2625E+04
     10.736  0.1627E+03  0.2633E+04
     10.788  0.6841E+02  0.2637E+04
     10.840  0.1092E+02  0.2637E+04
     10.892 -0.5257E+01  0.2637E+04
     10.943 -0.3547E+01  0.2637E+04
     10.995 -0.9764E+00  0.2637E+04
     11.047 -0.9538E-01  0.2637E+04
     11.099  0.4388E+00  0.2637E+04
     11.151  0.8556E+00  0.2637E+04
     11.203  0.8624E+00  0.2637E+04
     11.254  0.8644E+00  0.2637E+04
     11.306  0.8524E+00  0.2637E+04
     11.358  0.4432E+00  0.2637E+04
     11.410  0.4312E-01  0.2637E+04
     11.462 -0.4666E-01  0.2637E+04
     11.514 -0.1875E-01  0.2637E+04
     11.566 -0.2993E-02  0.2637E+04
     11.617 -0.2525E-03  0.2637E+04
     11.669 -0.2773E-03  0.2637E+04
     11.721 -0.3916E-02  0.2637E+04
     11.773 -0.3039E-01  0.2637E+04
     11.825 -0.1079E+00  0.2637E+04
     11.877 -0.4464E-01  0.2637E+04
     11.928  0.7704E+00  0.2637E+04
     11.980  0.2156E+01  0.2637E+04
     12.032  0.2476E+01  0.2637E+04
     12.084  0.1751E+01  0.2637E+04
     12.136  0.1656E+01  0.2638E+04
     12.188  0.1931E+01  0.2638E+04
     12.240  0.1750E+01  0.2638E+04
     12.291  0.1395E+01  0.2638E+04
     12.343  0.1516E+01  0.2638E+04
     12.395  0.2578E+01  0.2638E+04
     12.447  0.3413E+01  0.2638E+04
     12.499  0.2790E+01  0.2638E+04
     12.551  0.2155E+01  0.2638E+04
     12.602  0.2765E+01  0.2639E+04
     12.654  0.3711E+01  0.2639E+04
     12.706  0.3956E+01  0.2639E+04
     12.758  0.3164E+01  0.2639E+04
     12.810  0.2263E+01  0.2639E+04
     12.862  0.2331E+01  0.2639E+04
     12.914  0.2513E+01  0.2640E+04
     12.965  0.1909E+01  0.2640E+04
     13.017  0.1239E+01  0.2640E+04
     13.069  0.9247E+00  0.2640E+04
     13.121  0.7736E+00  0.2640E+04
     13.173  0.9362E+00  0.2640E+04
     13.225  0.1205E+01  0.2640E+04
     13.276  0.1148E+01  0.2640E+04
     13.328  0.6717E+00  0.2640E+04
     13.380  0.1478E+00  0.2640E+04
     13.432 -0.4658E-01  0.2640E+04
     13.484 -0.3276E-01  0.2640E+04
     13.536 -0.7094E-02  0.2640E+04
     13.587 -0.7472E-03  0.2640E+04
     13.639 -0.4210E-04  0.2640E+04
     13.691 -0.1317E-05  0.2640E+04
     13.743 -0.2329E-07  0.2640E+04
     13.795 -0.2353E-09  0.2640E+04
     13.847 -0.1365E-11  0.2640E+04
     13.899 -0.4759E-14  0.2640E+04
     13.950  0.0000E+00  0.2640E+04
     14.002  0.0000E+00  0.2640E+04
     14.054  0.0000E+00  0.2640E+04
     14.106  0.0000E+00  0.2640E+04
     14.158  0.0000E+00  0.2640E+04
     14.210  0.0000E+00  0.2640E+04
     14.261  0.0000E+00  0.2640E+04
