  96  96   0   0
  0.1439516E+02  0.1183914E-08  0.1183913E-08  0.1183900E-08  0.5000000E-15
  1.000000000000000E-004
  CAR 
 Ir_Ru                                   
     15.79912020     -1.53538377  301      9.75773308      1.00000000
     -1.535  0.0000E+00  0.0000E+00
     -1.478  0.0000E+00  0.0000E+00
     -1.420  0.0000E+00  0.0000E+00
     -1.362 -0.1356E-29 -0.7834E-31
     -1.304 -0.1272E-25 -0.7351E-27
     -1.246 -0.6087E-22 -0.3518E-23
     -1.189 -0.1484E-18 -0.8578E-20
     -1.131 -0.1841E-15 -0.1064E-16
     -1.073 -0.1120E-12 -0.6485E-14
     -1.015 -0.3548E-10 -0.2056E-11
     -0.958 -0.5660E-08 -0.3291E-09
     -0.900 -0.4528E-06 -0.2649E-07
     -0.842 -0.1808E-04 -0.1071E-05
     -0.784 -0.3605E-03 -0.2190E-04
     -0.726 -0.3642E-02 -0.2323E-03
     -0.669 -0.1924E-01 -0.1344E-02
     -0.611 -0.4684E-01 -0.4050E-02
     -0.553  0.5389E-01 -0.9363E-03
     -0.495  0.6548E+00  0.3690E-01
     -0.438  0.1508E+01  0.1240E+00
     -0.380  0.1782E+01  0.2270E+00
     -0.322  0.2262E+01  0.3577E+00
     -0.264  0.3291E+01  0.5479E+00
     -0.206  0.3429E+01  0.7460E+00
     -0.149  0.3354E+01  0.9398E+00
     -0.091  0.3779E+01  0.1158E+01
     -0.033  0.3775E+01  0.1376E+01
      0.025  0.4214E+01  0.1620E+01
      0.083  0.5282E+01  0.1925E+01
      0.140  0.5477E+01  0.2241E+01
      0.198  0.5442E+01  0.2556E+01
      0.256  0.5938E+01  0.2899E+01
      0.314  0.5242E+01  0.3202E+01
      0.371  0.4643E+01  0.3470E+01
      0.429  0.5749E+01  0.3802E+01
      0.487  0.7479E+01  0.4235E+01
      0.545  0.8860E+01  0.4747E+01
      0.603  0.8763E+01  0.5253E+01
      0.660  0.7470E+01  0.5684E+01
      0.718  0.6986E+01  0.6088E+01
      0.776  0.6244E+01  0.6449E+01
      0.834  0.5771E+01  0.6782E+01
      0.891  0.8576E+01  0.7278E+01
      0.949  0.1233E+02  0.7990E+01
      1.007  0.1320E+02  0.8753E+01
      1.065  0.1191E+02  0.9441E+01
      1.123  0.1012E+02  0.1003E+02
      1.180  0.8563E+01  0.1052E+02
      1.238  0.8666E+01  0.1102E+02
      1.296  0.1076E+02  0.1164E+02
      1.354  0.1409E+02  0.1246E+02
      1.411  0.1656E+02  0.1341E+02
      1.469  0.1659E+02  0.1437E+02
      1.527  0.1411E+02  0.1519E+02
      1.585  0.9393E+01  0.1573E+02
      1.643  0.7380E+01  0.1616E+02
      1.700  0.1069E+02  0.1677E+02
      1.758  0.1462E+02  0.1762E+02
      1.816  0.1679E+02  0.1859E+02
      1.874  0.1886E+02  0.1968E+02
      1.932  0.1700E+02  0.2066E+02
      1.989  0.1412E+02  0.2148E+02
      2.047  0.1820E+02  0.2253E+02
      2.105  0.2524E+02  0.2399E+02
      2.163  0.3044E+02  0.2575E+02
      2.220  0.3418E+02  0.2772E+02
      2.278  0.4256E+02  0.3018E+02
      2.336  0.6121E+02  0.3372E+02
      2.394  0.7722E+02  0.3818E+02
      2.452  0.7777E+02  0.4267E+02
      2.509  0.7234E+02  0.4685E+02
      2.567  0.6858E+02  0.5082E+02
      2.625  0.6561E+02  0.5461E+02
      2.683  0.6799E+02  0.5854E+02
      2.740  0.7457E+02  0.6284E+02
      2.798  0.8176E+02  0.6757E+02
      2.856  0.8912E+02  0.7272E+02
      2.914  0.9247E+02  0.7806E+02
      2.972  0.9588E+02  0.8360E+02
      3.029  0.1071E+03  0.8979E+02
      3.087  0.1134E+03  0.9634E+02
      3.145  0.1070E+03  0.1025E+03
      3.203  0.1043E+03  0.1086E+03
      3.260  0.1094E+03  0.1149E+03
      3.318  0.1134E+03  0.1214E+03
      3.376  0.1208E+03  0.1284E+03
      3.434  0.1302E+03  0.1359E+03
      3.492  0.1277E+03  0.1433E+03
      3.549  0.1148E+03  0.1499E+03
      3.607  0.1081E+03  0.1562E+03
      3.665  0.1052E+03  0.1623E+03
      3.723  0.1020E+03  0.1682E+03
      3.781  0.9889E+02  0.1739E+03
      3.838  0.9327E+02  0.1793E+03
      3.896  0.9288E+02  0.1846E+03
      3.954  0.9134E+02  0.1899E+03
      4.012  0.9027E+02  0.1951E+03
      4.069  0.1026E+03  0.2011E+03
      4.127  0.1148E+03  0.2077E+03
      4.185  0.1255E+03  0.2149E+03
      4.243  0.1390E+03  0.2230E+03
      4.301  0.1419E+03  0.2312E+03
      4.358  0.1334E+03  0.2389E+03
      4.416  0.1218E+03  0.2459E+03
      4.474  0.1092E+03  0.2522E+03
      4.532  0.9580E+02  0.2578E+03
      4.589  0.9072E+02  0.2630E+03
      4.647  0.9337E+02  0.2684E+03
      4.705  0.1014E+03  0.2743E+03
      4.763  0.1189E+03  0.2811E+03
      4.821  0.1314E+03  0.2887E+03
      4.878  0.1322E+03  0.2964E+03
      4.936  0.1349E+03  0.3042E+03
      4.994  0.1351E+03  0.3120E+03
      5.052  0.1330E+03  0.3196E+03
      5.110  0.1368E+03  0.3275E+03
      5.167  0.1333E+03  0.3352E+03
      5.225  0.1109E+03  0.3417E+03
      5.283  0.8538E+02  0.3466E+03
      5.341  0.7934E+02  0.3512E+03
      5.398  0.8023E+02  0.3558E+03
      5.456  0.7178E+02  0.3600E+03
      5.514  0.6049E+02  0.3634E+03
      5.572  0.5778E+02  0.3668E+03
      5.630  0.7250E+02  0.3710E+03
      5.687  0.1060E+03  0.3771E+03
      5.745  0.1431E+03  0.3854E+03
      5.803  0.1643E+03  0.3949E+03
      5.861  0.1644E+03  0.4044E+03
      5.918  0.1636E+03  0.4138E+03
      5.976  0.1634E+03  0.4233E+03
      6.034  0.1497E+03  0.4319E+03
      6.092  0.1336E+03  0.4396E+03
      6.150  0.1366E+03  0.4475E+03
      6.207  0.1504E+03  0.4562E+03
      6.265  0.1528E+03  0.4650E+03
      6.323  0.1478E+03  0.4736E+03
      6.381  0.1425E+03  0.4818E+03
      6.438  0.1359E+03  0.4897E+03
      6.496  0.1342E+03  0.4974E+03
      6.554  0.1439E+03  0.5057E+03
      6.612  0.1591E+03  0.5149E+03
      6.670  0.1660E+03  0.5245E+03
      6.727  0.1613E+03  0.5338E+03
      6.785  0.1612E+03  0.5432E+03
      6.843  0.1684E+03  0.5529E+03
      6.901  0.1562E+03  0.5619E+03
      6.959  0.1355E+03  0.5697E+03
      7.016  0.1384E+03  0.5777E+03
      7.074  0.1570E+03  0.5868E+03
      7.132  0.1684E+03  0.5965E+03
      7.190  0.1606E+03  0.6058E+03
      7.247  0.1385E+03  0.6138E+03
      7.305  0.1178E+03  0.6206E+03
      7.363  0.1110E+03  0.6271E+03
      7.421  0.1199E+03  0.6340E+03
      7.479  0.1299E+03  0.6415E+03
      7.536  0.1270E+03  0.6488E+03
      7.594  0.1238E+03  0.6560E+03
      7.652  0.1235E+03  0.6631E+03
      7.710  0.1154E+03  0.6698E+03
      7.767  0.1001E+03  0.6756E+03
      7.825  0.8857E+02  0.6807E+03
      7.883  0.9091E+02  0.6859E+03
      7.941  0.9598E+02  0.6915E+03
      7.999  0.9501E+02  0.6970E+03
      8.056  0.9689E+02  0.7026E+03
      8.114  0.9685E+02  0.7082E+03
      8.172  0.8585E+02  0.7131E+03
      8.230  0.7779E+02  0.7176E+03
      8.288  0.8063E+02  0.7223E+03
      8.345  0.8530E+02  0.7272E+03
      8.403  0.8240E+02  0.7320E+03
      8.461  0.7396E+02  0.7362E+03
      8.519  0.7345E+02  0.7405E+03
      8.576  0.8056E+02  0.7451E+03
      8.634  0.8356E+02  0.7500E+03
      8.692  0.7941E+02  0.7546E+03
      8.750  0.6745E+02  0.7585E+03
      8.808  0.5855E+02  0.7618E+03
      8.865  0.6255E+02  0.7655E+03
      8.923  0.6977E+02  0.7695E+03
      8.981  0.7887E+02  0.7740E+03
      9.039  0.8355E+02  0.7789E+03
      9.096  0.7444E+02  0.7832E+03
      9.154  0.6111E+02  0.7867E+03
      9.212  0.6322E+02  0.7904E+03
      9.270  0.7566E+02  0.7947E+03
      9.328  0.8118E+02  0.7994E+03
      9.385  0.8527E+02  0.8043E+03
      9.443  0.9350E+02  0.8097E+03
      9.501  0.1007E+03  0.8156E+03
      9.559  0.9961E+02  0.8213E+03
      9.616  0.8911E+02  0.8265E+03
      9.674  0.8625E+02  0.8315E+03
      9.732  0.9877E+02  0.8372E+03
      9.790  0.1140E+03  0.8437E+03
      9.848  0.1192E+03  0.8506E+03
      9.905  0.1154E+03  0.8573E+03
      9.963  0.1211E+03  0.8643E+03
     10.021  0.1359E+03  0.8721E+03
     10.079  0.1431E+03  0.8804E+03
     10.137  0.1406E+03  0.8885E+03
     10.194  0.1396E+03  0.8966E+03
     10.252  0.1443E+03  0.9049E+03
     10.310  0.1525E+03  0.9138E+03
     10.368  0.1641E+03  0.9232E+03
     10.425  0.1795E+03  0.9336E+03
     10.483  0.1963E+03  0.9450E+03
     10.541  0.2052E+03  0.9568E+03
     10.599  0.1909E+03  0.9678E+03
     10.657  0.1680E+03  0.9776E+03
     10.714  0.1586E+03  0.9867E+03
     10.772  0.1440E+03  0.9950E+03
     10.830  0.1143E+03  0.1002E+04
     10.888  0.8429E+02  0.1007E+04
     10.945  0.5827E+02  0.1010E+04
     11.003  0.3572E+02  0.1012E+04
     11.061  0.2097E+02  0.1013E+04
     11.119  0.1445E+02  0.1014E+04
     11.177  0.1088E+02  0.1015E+04
     11.234  0.7331E+01  0.1015E+04
     11.292  0.4964E+01  0.1015E+04
     11.350  0.4320E+01  0.1016E+04
     11.408  0.4059E+01  0.1016E+04
     11.465  0.3529E+01  0.1016E+04
     11.523  0.2800E+01  0.1016E+04
     11.581  0.2982E+01  0.1016E+04
     11.639  0.4220E+01  0.1017E+04
     11.697  0.4335E+01  0.1017E+04
     11.754  0.2501E+01  0.1017E+04
     11.812  0.1291E+01  0.1017E+04
     11.870  0.1945E+01  0.1017E+04
     11.928  0.3264E+01  0.1017E+04
     11.986  0.3961E+01  0.1018E+04
     12.043  0.3810E+01  0.1018E+04
     12.101  0.3768E+01  0.1018E+04
     12.159  0.3953E+01  0.1018E+04
     12.217  0.4063E+01  0.1018E+04
     12.274  0.4519E+01  0.1019E+04
     12.332  0.4841E+01  0.1019E+04
     12.390  0.4920E+01  0.1019E+04
     12.448  0.4797E+01  0.1020E+04
     12.506  0.3743E+01  0.1020E+04
     12.563  0.2972E+01  0.1020E+04
     12.621  0.3168E+01  0.1020E+04
     12.679  0.3351E+01  0.1020E+04
     12.737  0.3316E+01  0.1021E+04
     12.794  0.3571E+01  0.1021E+04
     12.852  0.3744E+01  0.1021E+04
     12.910  0.3557E+01  0.1021E+04
     12.968  0.3676E+01  0.1021E+04
     13.026  0.3891E+01  0.1022E+04
     13.083  0.4223E+01  0.1022E+04
     13.141  0.4575E+01  0.1022E+04
     13.199  0.3969E+01  0.1022E+04
     13.257  0.2810E+01  0.1023E+04
     13.315  0.2111E+01  0.1023E+04
     13.372  0.1979E+01  0.1023E+04
     13.430  0.1919E+01  0.1023E+04
     13.488  0.1549E+01  0.1023E+04
     13.546  0.1398E+01  0.1023E+04
     13.603  0.1812E+01  0.1023E+04
     13.661  0.2056E+01  0.1023E+04
     13.719  0.1534E+01  0.1023E+04
     13.777  0.1049E+01  0.1023E+04
     13.835  0.1181E+01  0.1023E+04
     13.892  0.1184E+01  0.1024E+04
     13.950  0.7585E+00  0.1024E+04
     14.008  0.6077E+00  0.1024E+04
     14.066  0.7720E+00  0.1024E+04
     14.123  0.7614E+00  0.1024E+04
     14.181  0.6694E+00  0.1024E+04
     14.239  0.5620E+00  0.1024E+04
     14.297  0.5581E+00  0.1024E+04
     14.355  0.7911E+00  0.1024E+04
     14.412  0.9862E+00  0.1024E+04
     14.470  0.7310E+00  0.1024E+04
     14.528  0.2098E+00  0.1024E+04
     14.586 -0.3274E-01  0.1024E+04
     14.643 -0.3820E-01  0.1024E+04
     14.701 -0.3649E-02  0.1024E+04
     14.759  0.1170E+00  0.1024E+04
     14.817  0.2537E+00  0.1024E+04
     14.875  0.1829E+00  0.1024E+04
     14.932  0.3119E-01  0.1024E+04
     14.990 -0.1293E-01  0.1024E+04
     15.048 -0.5172E-02  0.1024E+04
     15.106 -0.6398E-03  0.1024E+04
     15.164 -0.3465E-04  0.1024E+04
     15.221 -0.8915E-06  0.1024E+04
     15.279 -0.1125E-07  0.1024E+04
     15.337 -0.7080E-10  0.1024E+04
     15.395 -0.2239E-12  0.1024E+04
     15.452 -0.3689E-15  0.1024E+04
     15.510  0.0000E+00  0.1024E+04
     15.568  0.0000E+00  0.1024E+04
     15.626  0.0000E+00  0.1024E+04
     15.684  0.0000E+00  0.1024E+04
     15.741  0.0000E+00  0.1024E+04
     15.799  0.0000E+00  0.1024E+04
