       N       E                     dE             d eps       ncg     rms          rms(c)
RMM:   1     0.541949397562E+04    0.54195E+04   -0.18273E+05 32256   0.716E+02
RMM:   2     0.594580243431E+03   -0.48249E+04   -0.51142E+04 32256   0.260E+02
RMM:   3    -0.356938413819E+03   -0.95152E+03   -0.90959E+03 32256   0.113E+02
RMM:   4    -0.674248376372E+03   -0.31731E+03   -0.22780E+03 32256   0.773E+01
RMM:   5    -0.783185901399E+03   -0.10894E+03   -0.95162E+02 32256   0.451E+01
RMM:   6    -0.838730943545E+03   -0.55545E+02   -0.48520E+02 32256   0.338E+01
RMM:   7    -0.867520479286E+03   -0.28790E+02   -0.26798E+02 32256   0.228E+01
RMM:   8    -0.884606831822E+03   -0.17086E+02   -0.15758E+02 32256   0.182E+01
RMM:   9    -0.910915420007E+03   -0.26309E+02   -0.25820E+02 89990   0.128E+01
RMM:  10    -0.914698439503E+03   -0.37830E+01   -0.39696E+01101555   0.259E+00
RMM:  11    -0.915616802818E+03   -0.91836E+00   -0.71687E+00 99974   0.669E-01
RMM:  12    -0.915765692409E+03   -0.14889E+00   -0.10418E+00101387   0.203E-01    0.451E+01
RMM:  13    -0.871208991447E+03    0.44557E+02   -0.11510E+02 66484   0.193E+01    0.228E+01
RMM:  14    -0.876503603898E+03   -0.52946E+01   -0.10181E+02 67076   0.156E+01    0.267E+01
RMM:  15    -0.859114704467E+03    0.17389E+02   -0.27456E+01 67564   0.787E+00    0.283E+00
RMM:  16    -0.859142192036E+03   -0.27488E-01   -0.48908E+00 88307   0.215E+00    0.294E+00
RMM:  17    -0.859058768126E+03    0.83424E-01   -0.65397E-01 83489   0.885E-01    0.245E+00
RMM:  18    -0.858931773995E+03    0.12699E+00   -0.27236E-01 75355   0.731E-01    0.739E-01
RMM:  19    -0.858939564595E+03   -0.77906E-02   -0.12662E-01 87077   0.345E-01    0.896E-01
RMM:  20    -0.858933861474E+03    0.57031E-02   -0.20356E-02 85081   0.114E-01    0.694E-01
RMM:  21    -0.858925920716E+03    0.79408E-02   -0.18297E-02 77602   0.173E-01    0.194E-01
RMM:  22    -0.858926143685E+03   -0.22297E-03   -0.72301E-03 91044   0.766E-02    0.117E-01
RMM:  23    -0.858926079327E+03    0.64358E-04   -0.10795E-03 83160   0.307E-02    0.915E-02
RMM:  24    -0.858925903691E+03    0.17564E-03   -0.37275E-04 77353   0.308E-02    0.346E-02
RMM:  25    -0.858925889705E+03    0.13986E-04   -0.12166E-04 83988   0.102E-02
   1 F= -.85892589E+03 E0= -.85891974E+03  d E =-.184453E-01
