 256 256   0   0
  0.1419206E+02  0.1537080E-08  0.1537218E-08  0.1537636E-08  0.5000000E-15
  1.000000000000000E-004
  CAR 
 Ir_Ru                                   
     12.68618962     -1.29546278  301      9.24212414      1.00000000
     -1.295  0.0000E+00  0.0000E+00
     -1.249  0.0000E+00  0.0000E+00
     -1.202  0.0000E+00  0.0000E+00
     -1.156  0.0000E+00  0.0000E+00
     -1.109 -0.2760E-28 -0.1286E-29
     -1.062 -0.4120E-25 -0.1921E-26
     -1.016 -0.3967E-22 -0.1851E-23
     -0.969 -0.2465E-19 -0.1150E-20
     -0.923 -0.9878E-17 -0.4615E-18
     -0.876 -0.2479E-14 -0.1160E-15
     -0.829 -0.4111E-12 -0.1927E-13
     -0.783 -0.4390E-10 -0.2065E-11
     -0.736 -0.3021E-08 -0.1429E-09
     -0.690 -0.1340E-06 -0.6389E-08
     -0.643 -0.3839E-05 -0.1853E-06
     -0.596 -0.7120E-04 -0.3504E-05
     -0.550 -0.8574E-03 -0.4347E-04
     -0.503 -0.6707E-02 -0.3561E-03
     -0.457 -0.3367E-01 -0.1925E-02
     -0.410 -0.1023E+00 -0.6691E-02
     -0.363 -0.1376E+00 -0.1311E-01
     -0.317  0.2259E+00 -0.2577E-02
     -0.270  0.1515E+01  0.6801E-01
     -0.224  0.3545E+01  0.2332E+00
     -0.177  0.5075E+01  0.4698E+00
     -0.130  0.5738E+01  0.7372E+00
     -0.084  0.7341E+01  0.1079E+01
     -0.037  0.1021E+02  0.1555E+01
      0.009  0.1102E+02  0.2069E+01
      0.056  0.9148E+01  0.2495E+01
      0.103  0.9405E+01  0.2933E+01
      0.149  0.1318E+02  0.3548E+01
      0.196  0.1593E+02  0.4290E+01
      0.243  0.1606E+02  0.5039E+01
      0.289  0.1676E+02  0.5820E+01
      0.336  0.1851E+02  0.6682E+01
      0.382  0.1834E+02  0.7537E+01
      0.429  0.1747E+02  0.8351E+01
      0.476  0.1989E+02  0.9278E+01
      0.522  0.2342E+02  0.1037E+02
      0.569  0.2406E+02  0.1149E+02
      0.615  0.2227E+02  0.1253E+02
      0.662  0.1867E+02  0.1340E+02
      0.709  0.1403E+02  0.1405E+02
      0.755  0.1115E+02  0.1457E+02
      0.802  0.1073E+02  0.1507E+02
      0.848  0.1109E+02  0.1559E+02
      0.895  0.1205E+02  0.1615E+02
      0.942  0.1453E+02  0.1683E+02
      0.988  0.1826E+02  0.1768E+02
      1.035  0.2285E+02  0.1874E+02
      1.081  0.2809E+02  0.2005E+02
      1.128  0.3127E+02  0.2151E+02
      1.175  0.2973E+02  0.2290E+02
      1.221  0.2590E+02  0.2410E+02
      1.268  0.2309E+02  0.2518E+02
      1.314  0.2100E+02  0.2616E+02
      1.361  0.2005E+02  0.2709E+02
      1.408  0.2162E+02  0.2810E+02
      1.454  0.2406E+02  0.2922E+02
      1.501  0.2566E+02  0.3042E+02
      1.547  0.2896E+02  0.3177E+02
      1.594  0.3507E+02  0.3340E+02
      1.641  0.3871E+02  0.3521E+02
      1.687  0.3784E+02  0.3697E+02
      1.734  0.3923E+02  0.3880E+02
      1.781  0.4547E+02  0.4092E+02
      1.827  0.4931E+02  0.4321E+02
      1.874  0.4783E+02  0.4544E+02
      1.920  0.4733E+02  0.4765E+02
      1.967  0.5097E+02  0.5003E+02
      2.014  0.5419E+02  0.5255E+02
      2.060  0.5555E+02  0.5514E+02
      2.107  0.6143E+02  0.5800E+02
      2.153  0.7464E+02  0.6148E+02
      2.200  0.8951E+02  0.6565E+02
      2.247  0.1032E+03  0.7046E+02
      2.293  0.1178E+03  0.7595E+02
      2.340  0.1310E+03  0.8206E+02
      2.386  0.1382E+03  0.8850E+02
      2.433  0.1431E+03  0.9517E+02
      2.480  0.1522E+03  0.1023E+03
      2.526  0.1608E+03  0.1098E+03
      2.573  0.1617E+03  0.1173E+03
      2.619  0.1614E+03  0.1248E+03
      2.666  0.1690E+03  0.1327E+03
      2.713  0.1784E+03  0.1410E+03
      2.759  0.1847E+03  0.1496E+03
      2.806  0.1979E+03  0.1588E+03
      2.852  0.2232E+03  0.1692E+03
      2.899  0.2479E+03  0.1808E+03
      2.946  0.2565E+03  0.1927E+03
      2.992  0.2498E+03  0.2044E+03
      3.039  0.2468E+03  0.2159E+03
      3.085  0.2621E+03  0.2281E+03
      3.132  0.2864E+03  0.2415E+03
      3.179  0.3011E+03  0.2555E+03
      3.225  0.3037E+03  0.2696E+03
      3.272  0.3050E+03  0.2839E+03
      3.318  0.3082E+03  0.2982E+03
      3.365  0.3106E+03  0.3127E+03
      3.412  0.3138E+03  0.3273E+03
      3.458  0.3212E+03  0.3423E+03
      3.505  0.3330E+03  0.3578E+03
      3.552  0.3438E+03  0.3738E+03
      3.598  0.3467E+03  0.3900E+03
      3.645  0.3448E+03  0.4061E+03
      3.691  0.3487E+03  0.4223E+03
      3.738  0.3577E+03  0.4390E+03
      3.785  0.3594E+03  0.4557E+03
      3.831  0.3523E+03  0.4722E+03
      3.878  0.3477E+03  0.4884E+03
      3.924  0.3496E+03  0.5047E+03
      3.971  0.3506E+03  0.5210E+03
      4.018  0.3416E+03  0.5369E+03
      4.064  0.3231E+03  0.5520E+03
      4.111  0.3069E+03  0.5663E+03
      4.157  0.2976E+03  0.5801E+03
      4.204  0.2873E+03  0.5935E+03
      4.251  0.2712E+03  0.6062E+03
      4.297  0.2537E+03  0.6180E+03
      4.344  0.2428E+03  0.6293E+03
      4.390  0.2452E+03  0.6407E+03
      4.437  0.2576E+03  0.6528E+03
      4.484  0.2617E+03  0.6649E+03
      4.530  0.2508E+03  0.6766E+03
      4.577  0.2479E+03  0.6882E+03
      4.623  0.2673E+03  0.7006E+03
      4.670  0.2919E+03  0.7142E+03
      4.717  0.3067E+03  0.7285E+03
      4.763  0.3136E+03  0.7432E+03
      4.810  0.3135E+03  0.7578E+03
      4.856  0.3049E+03  0.7720E+03
      4.903  0.2900E+03  0.7855E+03
      4.950  0.2784E+03  0.7985E+03
      4.996  0.2812E+03  0.8116E+03
      5.043  0.2952E+03  0.8253E+03
      5.089  0.3077E+03  0.8397E+03
      5.136  0.3091E+03  0.8541E+03
      5.183  0.2977E+03  0.8680E+03
      5.229  0.2857E+03  0.8813E+03
      5.276  0.2846E+03  0.8945E+03
      5.323  0.2905E+03  0.9081E+03
      5.369  0.2974E+03  0.9219E+03
      5.416  0.3019E+03  0.9360E+03
      5.462  0.2986E+03  0.9499E+03
      5.509  0.2887E+03  0.9634E+03
      5.556  0.2868E+03  0.9767E+03
      5.602  0.3028E+03  0.9909E+03
      5.649  0.3217E+03  0.1006E+04
      5.695  0.3254E+03  0.1021E+04
      5.742  0.3203E+03  0.1036E+04
      5.789  0.3199E+03  0.1051E+04
      5.835  0.3263E+03  0.1066E+04
      5.882  0.3368E+03  0.1082E+04
      5.928  0.3502E+03  0.1098E+04
      5.975  0.3653E+03  0.1115E+04
      6.022  0.3789E+03  0.1133E+04
      6.068  0.3854E+03  0.1151E+04
      6.115  0.3875E+03  0.1169E+04
      6.161  0.3918E+03  0.1187E+04
      6.208  0.3988E+03  0.1206E+04
      6.255  0.4098E+03  0.1225E+04
      6.301  0.4275E+03  0.1245E+04
      6.348  0.4467E+03  0.1265E+04
      6.394  0.4573E+03  0.1287E+04
      6.441  0.4570E+03  0.1308E+04
      6.488  0.4530E+03  0.1329E+04
      6.534  0.4499E+03  0.1350E+04
      6.581  0.4455E+03  0.1371E+04
      6.627  0.4390E+03  0.1391E+04
      6.674  0.4317E+03  0.1411E+04
      6.721  0.4248E+03  0.1431E+04
      6.767  0.4169E+03  0.1451E+04
      6.814  0.4013E+03  0.1469E+04
      6.861  0.3764E+03  0.1487E+04
      6.907  0.3541E+03  0.1503E+04
      6.954  0.3442E+03  0.1520E+04
      7.000  0.3391E+03  0.1535E+04
      7.047  0.3275E+03  0.1551E+04
      7.094  0.3147E+03  0.1565E+04
      7.140  0.3136E+03  0.1580E+04
      7.187  0.3195E+03  0.1595E+04
      7.233  0.3133E+03  0.1609E+04
      7.280  0.2872E+03  0.1623E+04
      7.327  0.2556E+03  0.1635E+04
      7.373  0.2401E+03  0.1646E+04
      7.420  0.2489E+03  0.1657E+04
      7.466  0.2714E+03  0.1670E+04
      7.513  0.2846E+03  0.1683E+04
      7.560  0.2764E+03  0.1696E+04
      7.606  0.2583E+03  0.1708E+04
      7.653  0.2482E+03  0.1720E+04
      7.699  0.2573E+03  0.1732E+04
      7.746  0.2832E+03  0.1745E+04
      7.793  0.3056E+03  0.1759E+04
      7.839  0.3120E+03  0.1774E+04
      7.886  0.3088E+03  0.1788E+04
      7.932  0.3031E+03  0.1802E+04
      7.979  0.2960E+03  0.1816E+04
      8.026  0.2910E+03  0.1830E+04
      8.072  0.2959E+03  0.1843E+04
      8.119  0.3094E+03  0.1858E+04
      8.165  0.3171E+03  0.1873E+04
      8.212  0.3177E+03  0.1887E+04
      8.259  0.3299E+03  0.1903E+04
      8.305  0.3538E+03  0.1919E+04
      8.352  0.3622E+03  0.1936E+04
      8.398  0.3395E+03  0.1952E+04
      8.445  0.2996E+03  0.1966E+04
      8.492  0.2667E+03  0.1978E+04
      8.538  0.2558E+03  0.1990E+04
      8.585  0.2713E+03  0.2003E+04
      8.632  0.2959E+03  0.2017E+04
      8.678  0.3002E+03  0.2031E+04
      8.725  0.2838E+03  0.2044E+04
      8.771  0.2673E+03  0.2056E+04
      8.818  0.2568E+03  0.2068E+04
      8.865  0.2490E+03  0.2080E+04
      8.911  0.2450E+03  0.2091E+04
      8.958  0.2453E+03  0.2103E+04
      9.004  0.2536E+03  0.2115E+04
      9.051  0.2737E+03  0.2127E+04
      9.098  0.2840E+03  0.2141E+04
      9.144  0.2657E+03  0.2153E+04
      9.191  0.2406E+03  0.2164E+04
      9.237  0.2282E+03  0.2175E+04
      9.284  0.2198E+03  0.2185E+04
      9.331  0.2138E+03  0.2195E+04
      9.377  0.2221E+03  0.2205E+04
      9.424  0.2427E+03  0.2217E+04
      9.470  0.2625E+03  0.2229E+04
      9.517  0.2736E+03  0.2242E+04
      9.564  0.2773E+03  0.2255E+04
      9.610  0.2762E+03  0.2268E+04
      9.657  0.2709E+03  0.2280E+04
      9.703  0.2609E+03  0.2292E+04
      9.750  0.2436E+03  0.2304E+04
      9.797  0.2241E+03  0.2314E+04
      9.843  0.2195E+03  0.2324E+04
      9.890  0.2368E+03  0.2335E+04
      9.936  0.2645E+03  0.2348E+04
      9.983  0.2956E+03  0.2362E+04
     10.030  0.3278E+03  0.2377E+04
     10.076  0.3494E+03  0.2393E+04
     10.123  0.3462E+03  0.2409E+04
     10.169  0.3236E+03  0.2424E+04
     10.216  0.3102E+03  0.2439E+04
     10.263  0.3297E+03  0.2454E+04
     10.309  0.3882E+03  0.2472E+04
     10.356  0.4676E+03  0.2494E+04
     10.403  0.5191E+03  0.2518E+04
     10.449  0.5086E+03  0.2542E+04
     10.496  0.4493E+03  0.2563E+04
     10.542  0.3725E+03  0.2580E+04
     10.589  0.3009E+03  0.2594E+04
     10.636  0.2474E+03  0.2606E+04
     10.682  0.2118E+03  0.2616E+04
     10.729  0.1802E+03  0.2624E+04
     10.775  0.1413E+03  0.2631E+04
     10.822  0.9664E+02  0.2635E+04
     10.869  0.5596E+02  0.2638E+04
     10.915  0.2707E+02  0.2639E+04
     10.962  0.1049E+02  0.2639E+04
     11.008  0.3059E+01  0.2640E+04
     11.055  0.1336E+01  0.2640E+04
     11.102  0.1735E+01  0.2640E+04
     11.148  0.1606E+01  0.2640E+04
     11.195  0.6868E+00  0.2640E+04
     11.241  0.1188E-01  0.2640E+04
     11.288 -0.1137E+00  0.2640E+04
     11.335 -0.5033E-01  0.2640E+04
     11.381 -0.1093E-01  0.2640E+04
     11.428 -0.3496E-02  0.2640E+04
     11.474 -0.1349E-01  0.2640E+04
     11.521 -0.4287E-01  0.2640E+04
     11.568 -0.3423E-01  0.2640E+04
     11.614  0.2070E+00  0.2640E+04
     11.661  0.7246E+00  0.2640E+04
     11.707  0.1026E+01  0.2640E+04
     11.754  0.7132E+00  0.2640E+04
     11.801  0.1980E+00  0.2640E+04
     11.847 -0.3604E-01  0.2640E+04
     11.894 -0.4217E-01  0.2640E+04
     11.941 -0.1295E-01  0.2640E+04
     11.987 -0.2081E-02  0.2640E+04
     12.034 -0.1965E-03  0.2640E+04
     12.080 -0.1137E-04  0.2640E+04
     12.127 -0.4116E-06  0.2640E+04
     12.174 -0.9419E-08  0.2640E+04
     12.220 -0.1372E-09  0.2640E+04
     12.267 -0.1278E-11  0.2640E+04
     12.313 -0.7742E-14  0.2640E+04
     12.360  0.0000E+00  0.2640E+04
     12.407  0.0000E+00  0.2640E+04
     12.453  0.0000E+00  0.2640E+04
     12.500  0.0000E+00  0.2640E+04
     12.546  0.0000E+00  0.2640E+04
     12.593  0.0000E+00  0.2640E+04
     12.640  0.0000E+00  0.2640E+04
     12.686  0.0000E+00  0.2640E+04
